      -----------------------------------------------------------      
     |                   =====================                   |     
     |                           x T B                           |     
     |                   =====================                   |     
     |                         S. Grimme                         |     
     |          Mulliken Center for Theoretical Chemistry        |     
     |                    University of Bonn                     |     
      -----------------------------------------------------------      

   * xtb version 6.6.1 (8d0f1dd) compiled by 'conda@1efc2f54142f' on 2023-08-01

   xtb is free software: you can redistribute it and/or modify it under
   the terms of the GNU Lesser General Public License as published by
   the Free Software Foundation, either version 3 of the License, or
   (at your option) any later version.
   
   xtb is distributed in the hope that it will be useful,
   but WITHOUT ANY WARRANTY; without even the implied warranty of
   MERCHANTABILITY or FITNESS FOR A PARTICULAR PURPOSE.  See the
   GNU Lesser General Public License for more details.
   
   Cite this work as:
   * C. Bannwarth, E. Caldeweyher, S. Ehlert, A. Hansen, P. Pracht,
     J. Seibert, S. Spicher, S. Grimme, WIREs Comput. Mol. Sci., 2020, 11,
     e01493. DOI: 10.1002/wcms.1493
   
   for GFN2-xTB:
   * C. Bannwarth, S. Ehlert and S. Grimme., J. Chem. Theory Comput., 2019,
     15, 1652-1671. DOI: 10.1021/acs.jctc.8b01176
   for GFN1-xTB:
   * S. Grimme, C. Bannwarth, P. Shushkov, J. Chem. Theory Comput., 2017,
     13, 1989-2009. DOI: 10.1021/acs.jctc.7b00118
   for GFN0-xTB:
   * P. Pracht, E. Caldeweyher, S. Ehlert, S. Grimme, ChemRxiv, 2019, preprint.
     DOI: 10.26434/chemrxiv.8326202.v1
   for GFN-FF:
   * S. Spicher and S. Grimme, Angew. Chem. Int. Ed., 2020, 59, 15665-15673.
     DOI: 10.1002/anie.202004239
   
   for ALPB and GBSA implicit solvation:
   * S. Ehlert, M. Stahn, S. Spicher, S. Grimme, J. Chem. Theory Comput.,
     2021, 17, 4250-4261. DOI: 10.1021/acs.jctc.1c00471
   
   for DFT-D4:
   * E. Caldeweyher, C. Bannwarth and S. Grimme, J. Chem. Phys., 2017,
     147, 034112. DOI: 10.1063/1.4993215
   * E. Caldeweyher, S. Ehlert, A. Hansen, H. Neugebauer, S. Spicher,
     C. Bannwarth and S. Grimme, J. Chem. Phys., 2019, 150, 154122.
     DOI: 10.1063/1.5090222
   * E. Caldeweyher, J.-M. Mewes, S. Ehlert and S. Grimme, Phys. Chem. Chem. Phys.
     2020, 22, 8499-8512. DOI: 10.1039/D0CP00502A
   
   for sTDA-xTB:
   * S. Grimme and C. Bannwarth, J. Chem. Phys., 2016, 145, 054103.
     DOI: 10.1063/1.4959605
   
   in the mass-spec context:
   * V. Asgeirsson, C. Bauer and S. Grimme, Chem. Sci., 2017, 8, 4879.
     DOI: 10.1039/c7sc00601b
   * J. Koopman and S. Grimme, ACS Omega 2019, 4, 12, 15120-15133.
     DOI: 10.1021/acsomega.9b02011
   
   for metadynamics refer to:
   * S. Grimme, J. Chem. Theory Comput., 2019, 155, 2847-2862
     DOI: 10.1021/acs.jctc.9b00143
   
   for SPH calculations refer to:
   * S. Spicher and S. Grimme, J. Chem. Theory Comput., 2021, 17, 1701-1714
     DOI: 10.1021/acs.jctc.0c01306
   
   with help from (in alphabetical order)
   P. Atkinson, C. Bannwarth, F. Bohle, G. Brandenburg, E. Caldeweyher
   M. Checinski, S. Dohm, S. Ehlert, S. Ehrlich, I. Gerasimov, C. Hölzer
   A. Katbashev, J. Koopman, C. Lavigne, S. Lehtola, F. März, M. Müller,
   F. Musil, H. Neugebauer, J. Pisarek, C. Plett, P. Pracht, F. Pultar,
   J. Seibert, P. Shushkov, S. Spicher, M. Stahn, M. Steiner, T. Strunk,
   J. Stückrath, T. Rose, and J. Unsleber
   
 * started run on 2024/06/05 at 19:58:15.713     

           -------------------------------------------------
          |                Calculation Setup                |
           -------------------------------------------------

          program call               : xtb xtbopt.xyz --opt crude --input .xc2 --gfn2
          hostname                   : n-62-21-71
          coordinate file            : xtbopt.xyz
          omp threads                :                     1

   ID    Z sym.   atoms
    1    6 C      1, 3, 5-7, 10, 11, 14
    2    7 N      2, 4, 9, 13
    3    8 O      8, 12
    4    1 H      15-25
########################################################################
[WARNING] Please study the warnings concerning your input carefully
-1- readin_getIntValue: could not parse ''
########################################################################

           -------------------------------------------------
          |                 G F N 2 - x T B                 |
           -------------------------------------------------

        Reference                      10.1021/acs.jctc.8b01176
      * Hamiltonian:
        H0-scaling (s, p, d)           1.850000    2.230000    2.230000
        zeta-weighting                 0.500000
      * Dispersion:
        s8                             2.700000
        a1                             0.520000
        a2                             5.000000
        s9                             5.000000
      * Repulsion:
        kExp                           1.500000    1.000000
        rExp                           1.000000
      * Coulomb:
        alpha                          2.000000
        third order                    shell-resolved
        anisotropic                    true
        a3                             3.000000
        a5                             4.000000
        cn-shift                       1.200000
        cn-exp                         4.000000
        max-rad                        5.000000

q/qsh data taken from xtbrestart
CAMM data taken from xtbrestart

          ...................................................
          :                      SETUP                      :
          :.................................................:
          :  # basis functions                  67          :
          :  # atomic orbitals                  67          :
          :  # shells                           39          :
          :  # electrons                        74          :
          :  max. iterations                   250          :
          :  Hamiltonian                  GFN2-xTB          :
          :  restarted?                       true          :
          :  GBSA solvation                  false          :
          :  PC potential                    false          :
          :  electronic temp.         2500.0000000     K    :
          :  accuracy                    1.0000000          :
          :  -> integral cutoff          0.2500000E+02      :
          :  -> integral neglect         0.1000000E-07      :
          :  -> SCF convergence          0.1000000E-05 Eh   :
          :  -> wf. convergence          0.1000000E-03 e    :
          :  Broyden damping             0.4000000          :
          ...................................................

 iter      E             dE          RMSdq      gap      omega  full diag
   1    -42.6960258 -0.426960E+02  0.825E-06    1.76       0.0  T
   2    -42.6960258 -0.646594E-12  0.634E-06    1.76    3154.9  T
   3    -42.6960258 -0.100187E-11  0.232E-06    1.76    8621.4  T

   *** convergence criteria satisfied after 3 iterations ***

         #    Occupation            Energy/Eh            Energy/eV
      -------------------------------------------------------------
         1        2.0000           -0.9124528             -24.8291
       ...           ...                  ...                  ...
        31        2.0000           -0.6226195             -16.9423
        32        2.0000           -0.6047088             -16.4550
        33        2.0000           -0.5884620             -16.0129
        34        2.0000           -0.5732865             -15.5999
        35        1.9999           -0.5585952             -15.2002
        36        1.9986           -0.5323278             -14.4854
        37        1.9671           -0.5073796             -13.8065 (HOMO)
        38        0.0340           -0.4428649             -12.0510 (LUMO)
        39        0.0004           -0.4078817             -11.0990
        40        0.0000           -0.3743609             -10.1869
        41                         -0.2856046              -7.7717
        42                         -0.2025277              -5.5111
       ...                                ...                  ...
        67                          5.2981609             144.1703
      -------------------------------------------------------------
                  HL-Gap            0.0645147 Eh            1.7555 eV
             Fermi-level           -0.4749934 Eh          -12.9252 eV

 SCC (total)                   0 d,  0 h,  0 min,  0.025 sec
 SCC setup                      ...        0 min,  0.000 sec (  1.321%)
 Dispersion                     ...        0 min,  0.000 sec (  1.627%)
 classical contributions        ...        0 min,  0.000 sec (  0.446%)
 integral evaluation            ...        0 min,  0.006 sec ( 21.963%)
 iterations                     ...        0 min,  0.006 sec ( 23.583%)
 molecular gradient             ...        0 min,  0.013 sec ( 50.444%)
 printout                       ...        0 min,  0.000 sec (  0.558%)

         :::::::::::::::::::::::::::::::::::::::::::::::::::::
         ::                     SUMMARY                     ::
         :::::::::::::::::::::::::::::::::::::::::::::::::::::
         :: total energy             -40.297197692809 Eh    ::
         :: gradient norm             11.294433984441 Eh/a0 ::
         :: HOMO-LUMO gap              1.755533479307 eV    ::
         ::.................................................::
         :: SCC energy               -42.696025775841 Eh    ::
         :: -> isotropic ES            0.128381681304 Eh    ::
         :: -> anisotropic ES         -0.004727913763 Eh    ::
         :: -> anisotropic XC          0.012007303952 Eh    ::
         :: -> dispersion             -0.022203983660 Eh    ::
         :: repulsion energy           2.398727938517 Eh    ::
         :: add. restraining           0.000000000000 Eh    ::
         :: total charge               1.000000000000 e     ::
         :::::::::::::::::::::::::::::::::::::::::::::::::::::

      ----------------------------------------------------------- 
     |                   =====================                   |
     |                        A N C O P T                        |
     |                   =====================                   |
     |               Approximate Normal Coordinate               |
     |                Rational Function Optimizer                |
      ----------------------------------------------------------- 

          ...................................................
          :                      SETUP                      :
          :.................................................:
          :   optimization level             crude          :
          :   max. optcycles                   200          :
          :   ANC micro-cycles                  20          :
          :   degrees of freedom                69          :
          :.................................................:
          :   RF solver                   davidson          :
          :   write xtbopt.log                true          :
          :   linear?                        false          :
          :   energy convergence         0.5000000E-03 Eh   :
          :   grad. convergence          0.1000000E-01 Eh/α :
          :   maxmium RF displ.          1.0000000          :
          :   Hlow (freq-cutoff)         0.1000000E-01      :
          :   Hmax (freq-cutoff)         5.0000000          :
          :   S6 in model hess.         20.0000000          :
          ...................................................

generating ANC from model Hessian ...
Using Lindh-Hessian (1995)
 Shifting diagonal of input Hessian by    7.5911282145358413E-003
 Lowest  eigenvalues of input Hessian
    0.000000    0.000000    0.000000    0.000000    0.000000    0.000000
    0.010000    0.011416    0.012562    0.014666    0.016550    0.019127
    0.019583    0.024160    0.026123    0.028079    0.038625    0.042461
 Highest eigenvalues
    2.182465    2.241145    2.293726    2.513300    3.785915    4.552056


........................................................................
.............................. CYCLE    1 ..............................
........................................................................

 iter      E             dE          RMSdq      gap      omega  full diag
   1    -42.6960258 -0.426960E+02  0.908E-07    1.76       0.0  T
   2    -42.6960258  0.426326E-13  0.540E-07    1.76   37010.6  T
   3    -42.6960258 -0.213163E-13  0.349E-07    1.76   57268.9  T
     SCC iter.                  ...        0 min,  0.005 sec
     gradient                   ...        0 min,  0.013 sec
 * total energy  :   -40.2971977 Eh     change        0.7105427E-13 Eh
   gradient norm :    11.2944340 Eh/α   predicted     0.0000000E+00 (-100.00%)
   displ. norm   :     0.8461737 α      lambda       -0.9540335E+01
   maximum displ.:     0.7987616 α      in ANC's #68, #69, #56, ...

........................................................................
.............................. CYCLE    2 ..............................
........................................................................

 iter      E             dE          RMSdq      gap      omega  full diag
   1    -42.6269749 -0.426270E+02  0.131E+00    1.15       0.0  T
   2    -42.6422369 -0.152620E-01  0.702E-01    1.80       1.0  T
   3    -42.6464481 -0.421118E-02  0.408E-01    1.85       1.0  T
   4    -42.6473752 -0.927134E-03  0.178E-01    1.78       1.0  T
   5    -42.6475135 -0.138234E-03  0.784E-02    1.83       1.0  T
   6    -42.6475927 -0.792014E-04  0.406E-02    1.81       1.0  T
   7    -42.6475989 -0.622859E-05  0.208E-02    1.82       1.0  T
   8    -42.6476021 -0.316851E-05  0.643E-03    1.82       3.1  T
   9    -42.6476026 -0.490268E-06  0.268E-03    1.82       7.5  T
  10    -42.6476026 -0.563533E-07  0.871E-04    1.82      23.0  T
  11    -42.6476026 -0.796113E-08  0.347E-04    1.82      57.7  T
     SCC iter.                  ...        0 min,  0.015 sec
     gradient                   ...        0 min,  0.013 sec
 * total energy  :   -42.1231039 Eh     change       -0.1825906E+01 Eh
   gradient norm :     0.2535524 Eh/α   predicted    -0.8195231E+01 ( 348.83%)
   displ. norm   :     0.3707257 α      lambda       -0.4846589E-01
   maximum displ.:     0.1850082 α      in ANC's #28, #33, #4, ...

........................................................................
.............................. CYCLE    3 ..............................
........................................................................

 iter      E             dE          RMSdq      gap      omega  full diag
   1    -42.6445679 -0.426446E+02  0.373E-01    1.83       0.0  T
   2    -42.6456111 -0.104318E-02  0.240E-01    1.86       1.0  T
   3    -42.6456676 -0.564358E-04  0.131E-01    1.81       1.0  T
   4    -42.6456872 -0.196471E-04  0.488E-02    1.85       1.0  T
   5    -42.6457370 -0.497579E-04  0.184E-02    1.82       1.1  T
   6    -42.6457426 -0.568087E-05  0.897E-03    1.83       2.2  T
   7    -42.6457430 -0.332643E-06  0.532E-03    1.83       3.8  T
   8    -42.6457431 -0.886506E-07  0.122E-03    1.83      16.4  T
   9    -42.6457431 -0.228410E-07  0.498E-04    1.83      40.1  T
  10    -42.6457431 -0.761055E-09  0.172E-04    1.83     116.2  T
     SCC iter.                  ...        0 min,  0.014 sec
     gradient                   ...        0 min,  0.013 sec
 * total energy  :   -42.1464486 Eh     change       -0.2334469E-01 Eh
   gradient norm :     0.0771714 Eh/α   predicted    -0.2757410E-01 (  18.12%)
   displ. norm   :     0.2235673 α      lambda       -0.2866558E-02
   maximum displ.:     0.1419965 α      in ANC's #10, #4, #12, ...

........................................................................
.............................. CYCLE    4 ..............................
........................................................................

 iter      E             dE          RMSdq      gap      omega  full diag
   1    -42.6480406 -0.426480E+02  0.120E-01    1.84       0.0  T
   2    -42.6480689 -0.283842E-04  0.664E-02    1.84       1.0  T
   3    -42.6480690 -0.675863E-07  0.192E-02    1.83       1.0  T
   4    -42.6480707 -0.165452E-05  0.872E-03    1.84       2.3  T
   5    -42.6480720 -0.136601E-05  0.332E-03    1.83       6.0  T
   6    -42.6480721 -0.888547E-07  0.175E-03    1.83      11.5  T
   7    -42.6480721 -0.190195E-07  0.588E-04    1.83      34.0  T
   8    -42.6480721 -0.422227E-08  0.181E-04    1.83     110.4  T
     SCC iter.                  ...        0 min,  0.011 sec
     gradient                   ...        0 min,  0.013 sec
 * total energy  :   -42.1484345 Eh     change       -0.1985910E-02 Eh
   gradient norm :     0.0635269 Eh/α   predicted    -0.1504972E-02 ( -24.22%)
   displ. norm   :     0.1743439 α      lambda       -0.1198529E-02
   maximum displ.:     0.1039336 α      in ANC's #4, #10, #3, ...

........................................................................
.............................. CYCLE    5 ..............................
........................................................................

 iter      E             dE          RMSdq      gap      omega  full diag
   1    -42.6500267 -0.426500E+02  0.723E-02    1.83       0.0  T
   2    -42.6500424 -0.156574E-04  0.404E-02    1.83       1.0  T
   3    -42.6500425 -0.942486E-07  0.140E-02    1.82       1.4  T
   4    -42.6500431 -0.632864E-06  0.574E-03    1.83       3.5  T
   5    -42.6500436 -0.535203E-06  0.218E-03    1.82       9.2  T
   6    -42.6500437 -0.694129E-07  0.101E-03    1.83      19.7  T
   7    -42.6500437 -0.631255E-08  0.367E-04    1.83      54.5  T
   8    -42.6500437 -0.863487E-09  0.978E-05    1.83     204.5  T
     SCC iter.                  ...        0 min,  0.011 sec
     gradient                   ...        0 min,  0.013 sec
 * total energy  :   -42.1492639 Eh     change       -0.8293887E-03 Eh
   gradient norm :     0.0553736 Eh/α   predicted    -0.6174890E-03 ( -25.55%)
   displ. norm   :     0.1549096 α      lambda       -0.1009584E-02
   maximum displ.:     0.0769501 α      in ANC's #4, #3, #2, ...

........................................................................
.............................. CYCLE    6 ..............................
........................................................................

 iter      E             dE          RMSdq      gap      omega  full diag
   1    -42.6523100 -0.426523E+02  0.596E-02    1.82       0.0  T
   2    -42.6523179 -0.789641E-05  0.347E-02    1.82       1.0  T
   3    -42.6523176  0.312618E-06  0.113E-02    1.81       1.8  T
   4    -42.6523185 -0.885734E-06  0.324E-03    1.82       6.2  T
   5    -42.6523186 -0.122465E-06  0.144E-03    1.81      13.9  T
   6    -42.6523186 -0.417952E-07  0.625E-04    1.82      32.0  T
   7    -42.6523187 -0.311022E-08  0.254E-04    1.82      78.9  T
     SCC iter.                  ...        0 min,  0.010 sec
     gradient                   ...        0 min,  0.013 sec
 * total energy  :   -42.1501032 Eh     change       -0.8392904E-03 Eh
   gradient norm :     0.0485646 Eh/α   predicted    -0.5169084E-03 ( -38.41%)
   displ. norm   :     0.3037019 α      lambda       -0.2520209E-02
   maximum displ.:     0.1768726 α      in ANC's #3, #2, #4, ...

........................................................................
.............................. CYCLE    7 ..............................
........................................................................

 iter      E             dE          RMSdq      gap      omega  full diag
   1    -42.6571856 -0.426572E+02  0.124E-01    1.80       0.0  T
   2    -42.6572083 -0.227454E-04  0.741E-02    1.80       1.0  T
   3    -42.6572067  0.168440E-05  0.207E-02    1.80       1.0  T
   4    -42.6572109 -0.423657E-05  0.376E-03    1.80       5.3  T
   5    -42.6572110 -0.104039E-06  0.178E-03    1.80      11.2  T
   6    -42.6572110 -0.682343E-08  0.942E-04    1.80      21.2  T
   7    -42.6572110 -0.152631E-08  0.513E-04    1.80      39.0  T
     SCC iter.                  ...        0 min,  0.010 sec
     gradient                   ...        0 min,  0.013 sec
 * total energy  :   -42.1519782 Eh     change       -0.1874990E-02 Eh
   gradient norm :     0.0340295 Eh/α   predicted    -0.1376332E-02 ( -26.60%)
   displ. norm   :     0.2323291 α      lambda       -0.2203765E-02
   maximum displ.:     0.1421739 α      in ANC's #3, #2, #4, ...

........................................................................
.............................. CYCLE    8 ..............................
........................................................................

 iter      E             dE          RMSdq      gap      omega  full diag
   1    -42.6621441 -0.426621E+02  0.104E-01    1.79       0.0  T
   2    -42.6621586 -0.145760E-04  0.631E-02    1.78       1.0  T
   3    -42.6621566  0.203577E-05  0.182E-02    1.79       1.1  T
   4    -42.6621600 -0.338924E-05  0.555E-03    1.78       3.6  T
   5    -42.6621606 -0.612779E-06  0.221E-03    1.79       9.0  T
   6    -42.6621606 -0.174813E-07  0.966E-04    1.79      20.7  T
   7    -42.6621606 -0.958227E-08  0.238E-04    1.79      84.1  T
     SCC iter.                  ...        0 min,  0.010 sec
     gradient                   ...        0 min,  0.013 sec
 * total energy  :   -42.1534892 Eh     change       -0.1511035E-02 Eh
   gradient norm :     0.0246143 Eh/α   predicted    -0.1161380E-02 ( -23.14%)
   displ. norm   :     0.1047582 α      lambda       -0.1102376E-02
   maximum displ.:     0.0424423 α      in ANC's #3, #10, #8, ...

........................................................................
.............................. CYCLE    9 ..............................
........................................................................

 iter      E             dE          RMSdq      gap      omega  full diag
   1    -42.6651603 -0.426652E+02  0.585E-02    1.79       0.0  T
   2    -42.6651708 -0.105350E-04  0.352E-02    1.79       1.0  T
   3    -42.6651695  0.135206E-05  0.157E-02    1.80       1.3  T
   4    -42.6651709 -0.140751E-05  0.708E-03    1.79       2.8  T
   5    -42.6651720 -0.115633E-05  0.136E-03    1.79      14.7  T
   6    -42.6651721 -0.152514E-07  0.553E-04    1.79      36.1  T
   7    -42.6651721 -0.100739E-08  0.264E-04    1.79      75.7  T
     SCC iter.                  ...        0 min,  0.010 sec
     gradient                   ...        0 min,  0.013 sec
 * total energy  :   -42.1542241 Eh     change       -0.7349185E-03 Eh
   gradient norm :     0.0223477 Eh/α   predicted    -0.5572448E-03 ( -24.18%)
   displ. norm   :     0.0766347 α      lambda       -0.4967891E-03
   maximum displ.:     0.0285104 α      in ANC's #8, #10, #12, ...

........................................................................
.............................. CYCLE   10 ..............................
........................................................................

 iter      E             dE          RMSdq      gap      omega  full diag
   1    -42.6651002 -0.426651E+02  0.481E-02    1.80       0.0  T
   2    -42.6651081 -0.787271E-05  0.275E-02    1.80       1.0  T
   3    -42.6651076  0.463318E-06  0.136E-02    1.80       1.5  T
   4    -42.6651085 -0.851013E-06  0.536E-03    1.80       3.7  T
   5    -42.6651091 -0.574104E-06  0.139E-03    1.80      14.4  T
   6    -42.6651091 -0.230136E-07  0.612E-04    1.80      32.7  T
   7    -42.6651091 -0.282503E-08  0.302E-04    1.80      66.1  T
     SCC iter.                  ...        0 min,  0.010 sec
     gradient                   ...        0 min,  0.013 sec
 * total energy  :   -42.1545679 Eh     change       -0.3437929E-03 Eh
   gradient norm :     0.0218255 Eh/α   predicted    -0.2498571E-03 ( -27.32%)
   displ. norm   :     0.0858067 α      lambda       -0.3134417E-03
   maximum displ.:     0.0439822 α      in ANC's #3, #4, #8, ...

........................................................................
.............................. CYCLE   11 ..............................
........................................................................

 iter      E             dE          RMSdq      gap      omega  full diag
   1    -42.6648092 -0.426648E+02  0.454E-02    1.81       0.0  T
   2    -42.6648139 -0.472385E-05  0.259E-02    1.81       1.0  T
   3    -42.6648130  0.937789E-06  0.122E-02    1.81       1.6  T
   4    -42.6648143 -0.138877E-05  0.436E-03    1.81       4.6  T
   5    -42.6648147 -0.374550E-06  0.134E-03    1.81      15.0  T
   6    -42.6648147 -0.118995E-07  0.681E-04    1.81      29.4  T
   7    -42.6648147 -0.179548E-08  0.332E-04    1.81      60.3  T
     SCC iter.                  ...        0 min,  0.010 sec
     gradient                   ...        0 min,  0.013 sec
 * total energy  :   -42.1547941 Eh     change       -0.2261283E-03 Eh
   gradient norm :     0.0195143 Eh/α   predicted    -0.1578752E-03 ( -30.18%)
   displ. norm   :     0.1209380 α      lambda       -0.3125481E-03
   maximum displ.:     0.0696136 α      in ANC's #4, #3, #1, ...

........................................................................
.............................. CYCLE   12 ..............................
........................................................................

 iter      E             dE          RMSdq      gap      omega  full diag
   1    -42.6636929 -0.426637E+02  0.481E-02    1.82       0.0  T
   2    -42.6636955 -0.256301E-05  0.281E-02    1.81       1.0  T
   3    -42.6636938  0.168235E-05  0.127E-02    1.82       1.6  T
   4    -42.6636962 -0.236578E-05  0.366E-03    1.81       5.5  T
   5    -42.6636964 -0.214355E-06  0.163E-03    1.81      12.3  T
   6    -42.6636964 -0.623008E-08  0.709E-04    1.81      28.2  T
   7    -42.6636964 -0.367249E-08  0.243E-04    1.81      82.3  T
     SCC iter.                  ...        0 min,  0.010 sec
     gradient                   ...        0 min,  0.013 sec
 * total energy  :   -42.1550249 Eh     change       -0.2308025E-03 Eh
   gradient norm :     0.0166858 Eh/α   predicted    -0.1585704E-03 ( -31.30%)
   displ. norm   :     0.1614852 α      lambda       -0.3564818E-03
   maximum displ.:     0.0938084 α      in ANC's #3, #4, #7, ...

........................................................................
.............................. CYCLE   13 ..............................
........................................................................

 iter      E             dE          RMSdq      gap      omega  full diag
   1    -42.6630358 -0.426630E+02  0.581E-02    1.82       0.0  T
   2    -42.6630386 -0.280069E-05  0.343E-02    1.81       1.0  T
   3    -42.6630360  0.264892E-05  0.142E-02    1.82       1.4  T
   4    -42.6630398 -0.383958E-05  0.413E-03    1.81       4.8  T
   5    -42.6630400 -0.182411E-06  0.218E-03    1.81       9.2  T
   6    -42.6630400 -0.993860E-08  0.634E-04    1.81      31.6  T
   7    -42.6630400 -0.373727E-08  0.245E-04    1.81      81.8  T
     SCC iter.                  ...        0 min,  0.010 sec
     gradient                   ...        0 min,  0.013 sec
 * total energy  :   -42.1552682 Eh     change       -0.2433223E-03 Eh
   gradient norm :     0.0116659 Eh/α   predicted    -0.1828940E-03 ( -24.83%)
   displ. norm   :     0.0975130 α      lambda       -0.2444799E-03
   maximum displ.:     0.0552265 α      in ANC's #4, #3, #10, ...

........................................................................
.............................. CYCLE   14 ..............................
........................................................................

 iter      E             dE          RMSdq      gap      omega  full diag
   1    -42.6627074 -0.426627E+02  0.394E-02    1.81       0.0  T
   2    -42.6627095 -0.212889E-05  0.233E-02    1.81       1.0  T
   3    -42.6627093  0.225764E-06  0.811E-03    1.81       2.5  T
   4    -42.6627099 -0.619876E-06  0.283E-03    1.80       7.1  T
   5    -42.6627100 -0.119212E-06  0.153E-03    1.81      13.1  T
   6    -42.6627100 -0.147612E-07  0.550E-04    1.81      36.3  T
   7    -42.6627100 -0.264543E-08  0.192E-04    1.81     104.3  T
     SCC iter.                  ...        0 min,  0.010 sec
     gradient                   ...        0 min,  0.013 sec
 * total energy  :   -42.1554381 Eh     change       -0.1698933E-03 Eh
   gradient norm :     0.0079295 Eh/α   predicted    -0.1234065E-03 ( -27.36%)
   displ. norm   :     0.0650773 α      lambda       -0.1857129E-03
   maximum displ.:     0.0300757 α      in ANC's #2, #5, #10, ...

   *** GEOMETRY OPTIMIZATION CONVERGED AFTER 14 ITERATIONS ***

------------------------------------------------------------------------
 total energy gain   :        -1.8582404 Eh    -1166.0634 kcal/mol
 total RMSD          :         0.2654807 a0        0.1405 Å
 total power (kW/mol):      -348.4863906 (step)********** (real)
------------------------------------------------------------------------

 ANCopt (total)                0 d,  0 h,  0 min,  0.408 sec
 optimizer setup                ...        0 min,  0.000 sec (  0.101%)
 model hessian                  ...        0 min,  0.007 sec (  1.636%)
 ANC generation                 ...        0 min,  0.001 sec (  0.211%)
 coordinate transformation      ...        0 min,  0.000 sec (  0.025%)
 single point calculation       ...        0 min,  0.395 sec ( 96.828%)
 optimization log               ...        0 min,  0.002 sec (  0.589%)
 hessian update                 ...        0 min,  0.000 sec (  0.043%)
 rational function              ...        0 min,  0.002 sec (  0.393%)

================
 final structure:
================
25
 xtb: 6.6.1 (8d0f1dd)
C            3.21954697934513        1.08305615899739       -0.06899384421472
N            2.29562779016460       -0.01671244378798       -0.03971143694848
C            2.56652174931226       -1.30788244869258       -0.03263151999847
N            1.42031374143054       -2.02565020875017        0.01518808729268
C            0.38211005588305       -1.14376068207014        0.04229623915094
C            0.92972461947481        0.13747797199719        0.00590302620258
C            0.13917498091180        1.31673859352942       -0.03147894747970
O           -1.52827119124956        3.27367063892199       -0.59135226524678
N           -1.16067396080917        1.02712113841515        0.02374718769112
C           -2.09820434994924        2.18418983640409       -0.00099252128838
C           -1.79222164910492       -0.21948581071481        0.10528814178856
O           -2.98001116391371       -0.35093602761458        0.17318800576064
N           -0.93955536459930       -1.34690089503432        0.09001732438244
C           -1.52537821780326       -2.67320597039282        0.11594736696607
H            3.59219916674020        1.29187743878937        0.93537942373819
H            4.06339837389804        0.85855165079175       -0.71891738080195
H            2.68814271966649        1.96136392671219       -0.43215012518282
H            3.54824323751986       -1.74076624974908       -0.05988041508306
H           -2.40265059396576        2.36650378604694        1.04771817287116
H           -0.57965178494899        3.28239182625790       -0.37381420022841
H           -2.98658645610877        1.88980383782315       -0.56878304910577
H           -1.21955115648665       -3.20686340286079        1.01598671190653
H           -1.23454325883164       -3.23385635632701       -0.77257288099956
H           -2.60806073496727       -2.55289836614975        0.12442219043268
H            1.37078798249096       -3.03558940094199        0.02736832629309

 Bond Distances (Angstroems)
 ---------------------------
C1-N2=1.4367         C1-H15=1.0914        C1-H16=1.0885        C1-H17=1.0889        N2-C1=1.4367         N2-C3=1.3193         
N2-C6=1.3753         C3-N2=1.3193         C3-N4=1.3532         C3-H18=1.0733        N4-C3=1.3532         N4-C5=1.3625         
N4-H25=1.0112        C5-N4=1.3625         C5-C6=1.3938         C5-N13=1.3380        C6-N2=1.3753         C6-C5=1.3938         
C6-C7=1.4202         C7-C6=1.4202         C7-N9=1.3329         O8-C10=1.3639        O8-H20=0.9733        N9-C7=1.3329         
N9-C10=1.4894        N9-C11=1.3998        C10-O8=1.3639        C10-N9=1.4894        C10-H19=1.1071       C10-H21=1.0947       
C11-N9=1.3998        C11-O12=1.1970       C11-N13=1.4136       O12-C11=1.1970       N13-C5=1.3380        N13-C11=1.4136       
N13-C14=1.4502       C14-N13=1.4502       C14-H22=1.0901       C14-H23=1.0901       C14-H24=1.0894       H15-C1=1.0914        
H16-C1=1.0885        H17-C1=1.0889        H18-C3=1.0733        H19-C10=1.1071       H20-O8=0.9733        H21-C10=1.0947       
H22-C14=1.0901       H23-C14=1.0901       H24-C14=1.0894       H25-N4=1.0112        
 C  H  Rav=1.0904 sigma=0.0082  Rmin=1.0733  Rmax=1.1071     9
 C  C  Rav=1.4070 sigma=0.0132  Rmin=1.3938  Rmax=1.4202     2
 N  H  Rav=1.0112 sigma=0.0000  Rmin=1.0112  Rmax=1.0112     1
 N  C  Rav=1.3883 sigma=0.0519  Rmin=1.3193  Rmax=1.4894    11
 O  H  Rav=0.9733 sigma=0.0000  Rmin=0.9733  Rmax=0.9733     1
 O  C  Rav=1.2805 sigma=0.0835  Rmin=1.1970  Rmax=1.3639     2

 selected bond angles (degree)
 --------------------
H15-C1-N2=110.32               H16-C1-N2=110.66               H16-C1-H15=108.92              H17-C1-N2=108.08               
H17-C1-H15=108.61              H17-C1-H16=110.22              C3-N2-C1=128.12                C6-N2-C1=123.61                
C6-N2-C3=108.27                N4-C3-N2=110.20                H18-C3-N2=125.62               H18-C3-N4=124.18               
C5-N4-C3=107.63                H25-N4-C3=124.86               H25-N4-C5=127.51               C6-C5-N4=107.16                
N13-C5-N4=130.93               N13-C5-C6=121.91               C5-C6-N2=106.74                C7-C6-N2=130.17                
C7-C6-C5=123.04                N9-C7-C6=111.18                H20-O8-C10=108.52              C10-N9-C7=116.38               
C11-N9-C7=129.49               C11-N9-C10=114.13              N9-C10-O8=111.39               H19-C10-O8=113.16              
H19-C10-N9=106.58              H21-C10-O8=109.23              H21-C10-N9=108.09              H21-C10-H19=108.21             

 selected dihedral angles (degree)
 ---------------------------------
C3-N2-C1-H15=277.96           C3-N2-C1-H16= 38.57           C3-N2-C1-H17=159.34           C6-N2-C1-H15= 96.98           
C6-N2-C1-H16=217.58           C6-N2-C1-H17=338.36           N4-C3-N2-C1=179.20            N4-C3-N2-C6=  0.06            
H18-C3-N2-C1=359.23           H18-C3-N2-C6=180.09           C5-N4-C3-N2=359.86            C5-N4-C3-H18=179.83           
H25-N4-C3-N2=179.85           H25-N4-C3-H18=359.81          C6-C5-N4-C3=  0.16            C6-C5-N4-H25=180.17           
N13-C5-N4-C3=179.95           N13-C5-N4-H25=359.97          C5-C6-N2-C1=180.85            C5-C6-N2-C3=  0.04            
C7-C6-N2-C1=  3.44            C7-C6-N2-C3=182.63            N2-C6-C5-N4=359.88            N2-C6-C5-N13=180.06           
C7-C6-C5-N4=177.52            C7-C6-C5-N13=357.70           N9-C7-C6-N2=179.37            N9-C7-C6-C5=  2.33            
C10-N9-C7-C6=179.70           C11-N9-C7-C6=359.83           N9-C10-O8-H20=325.33          H19-C10-O8-H20= 85.39         
H21-C10-O8-H20=206.00         O8-C10-N9-C7= 24.16           O8-C10-N9-C11=204.05          H19-C10-N9-C7=260.29          
H19-C10-N9-C11= 80.18         H21-C10-N9-C7=144.17          H21-C10-N9-C11=324.06         
           -------------------------------------------------
          |                Final Singlepoint                |
           -------------------------------------------------

          ...................................................
          :                      SETUP                      :
          :.................................................:
          :  # basis functions                  67          :
          :  # atomic orbitals                  67          :
          :  # shells                           39          :
          :  # electrons                        74          :
          :  max. iterations                   250          :
          :  Hamiltonian                  GFN2-xTB          :
          :  restarted?                      false          :
          :  GBSA solvation                  false          :
          :  PC potential                    false          :
          :  electronic temp.         2500.0000000     K    :
          :  accuracy                    1.0000000          :
          :  -> integral cutoff          0.2500000E+02      :
          :  -> integral neglect         0.1000000E-07      :
          :  -> SCF convergence          0.1000000E-05 Eh   :
          :  -> wf. convergence          0.1000000E-03 e    :
          :  Broyden damping             0.4000000          :
          ...................................................

 iter      E             dE          RMSdq      gap      omega  full diag
   1    -42.6627100 -0.426627E+02  0.823E-05    1.81       0.0  T
   2    -42.6627100 -0.330616E-10  0.522E-05    1.81     383.2  T
   3    -42.6627100 -0.120508E-10  0.319E-05    1.81     626.0  T

   *** convergence criteria satisfied after 3 iterations ***

         #    Occupation            Energy/Eh            Energy/eV
      -------------------------------------------------------------
         1        2.0000           -0.9159497             -24.9243
       ...           ...                  ...                  ...
        31        2.0000           -0.6257814             -17.0284
        32        2.0000           -0.6137471             -16.7009
        33        2.0000           -0.5949061             -16.1882
        34        2.0000           -0.5791419             -15.7593
        35        1.9999           -0.5606740             -15.2567
        36        1.9971           -0.5318748             -14.4730
        37        1.9715           -0.5137805             -13.9807 (HOMO)
        38        0.0312           -0.4474253             -12.1751 (LUMO)
        39        0.0003           -0.4112444             -11.1905
        40        0.0000           -0.3769770             -10.2581
        41                         -0.2892822              -7.8718
        42                         -0.2066005              -5.6219
       ...                                ...                  ...
        67                          0.5378220              14.6349
      -------------------------------------------------------------
                  HL-Gap            0.0663552 Eh            1.8056 eV
             Fermi-level           -0.4802404 Eh          -13.0680 eV

 SCC (total)                   0 d,  0 h,  0 min,  0.023 sec
 SCC setup                      ...        0 min,  0.000 sec (  0.829%)
 Dispersion                     ...        0 min,  0.000 sec (  0.823%)
 classical contributions        ...        0 min,  0.000 sec (  0.312%)
 integral evaluation            ...        0 min,  0.005 sec ( 21.557%)
 iterations                     ...        0 min,  0.005 sec ( 19.968%)
 molecular gradient             ...        0 min,  0.013 sec ( 55.935%)
 printout                       ...        0 min,  0.000 sec (  0.515%)

         :::::::::::::::::::::::::::::::::::::::::::::::::::::
         ::                     SUMMARY                     ::
         :::::::::::::::::::::::::::::::::::::::::::::::::::::
         :: total energy             -42.155438080237 Eh    ::
         :: gradient norm              0.007928595334 Eh/a0 ::
         :: HOMO-LUMO gap              1.805616177231 eV    ::
         ::.................................................::
         :: SCC energy               -42.662710021304 Eh    ::
         :: -> isotropic ES            0.136162205913 Eh    ::
         :: -> anisotropic ES         -0.007097958268 Eh    ::
         :: -> anisotropic XC          0.011625486684 Eh    ::
         :: -> dispersion             -0.022246525283 Eh    ::
         :: repulsion energy           0.507164100527 Eh    ::
         :: add. restraining           0.000000000000 Eh    ::
         :: total charge               1.000000000000 e     ::
         :::::::::::::::::::::::::::::::::::::::::::::::::::::

           -------------------------------------------------
          |                Property Printout                |
           -------------------------------------------------

    * Orbital Energies and Occupations

         #    Occupation            Energy/Eh            Energy/eV
      -------------------------------------------------------------
         1        2.0000           -0.9159497             -24.9243
       ...           ...                  ...                  ...
        25        2.0000           -0.6680983             -18.1799
        26        2.0000           -0.6579185             -17.9029
        27        2.0000           -0.6423333             -17.4788
        28        2.0000           -0.6370784             -17.3358
        29        2.0000           -0.6331053             -17.2277
        30        2.0000           -0.6273662             -17.0715
        31        2.0000           -0.6257814             -17.0284
        32        2.0000           -0.6137471             -16.7009
        33        2.0000           -0.5949061             -16.1882
        34        2.0000           -0.5791419             -15.7593
        35        1.9999           -0.5606740             -15.2567
        36        1.9971           -0.5318748             -14.4730
        37        1.9715           -0.5137805             -13.9807 (HOMO)
        38        0.0312           -0.4474253             -12.1751 (LUMO)
        39        0.0003           -0.4112444             -11.1905
        40        0.0000           -0.3769770             -10.2581
        41                         -0.2892822              -7.8718
        42                         -0.2066005              -5.6219
        43                         -0.1990340              -5.4160
        44                         -0.1426751              -3.8824
        45                         -0.1275209              -3.4700
        46                         -0.0818266              -2.2266
        47                         -0.0547389              -1.4895
        48                         -0.0473949              -1.2897
       ...                                ...                  ...
        67                          0.5378220              14.6349
      -------------------------------------------------------------
                  HL-Gap            0.0663552 Eh            1.8056 eV
             Fermi-level           -0.4802404 Eh          -13.0680 eV

     #   Z          covCN         q      C6AA      α(0)
     1   6 C        3.693    -0.093    22.463     6.782
     2   7 N        2.835     0.081    19.841     6.616
     3   6 C        3.065     0.061    26.568     8.452
     4   7 N        2.790    -0.062    22.438     7.035
     5   6 C        3.054     0.117    25.375     8.261
     6   6 C        3.142     0.019    27.339     8.556
     7   6 C        1.919    -0.145    35.197     9.581
     8   8 O        1.657    -0.395    20.761     6.151
     9   7 N        2.763    -0.031    21.840     6.941
    10   6 C        3.632     0.134    18.767     6.236
    11   6 C        2.724     0.313    21.688     7.624
    12   8 O        0.859    -0.366    21.007     6.145
    13   7 N        2.739    -0.045    22.111     6.984
    14   6 C        3.696    -0.071    22.034     6.715
    15   1 H        0.924     0.113     1.670     2.021
    16   1 H        0.925     0.106     1.731     2.058
    17   1 H        0.925     0.127     1.559     1.953
    18   1 H        0.926     0.122     1.595     1.975
    19   1 H        0.922     0.070     2.089     2.260
    20   1 H        0.804     0.328     0.643     1.260
    21   1 H        0.924     0.101     1.772     2.081
    22   1 H        0.925     0.082     1.958     2.188
    23   1 H        0.925     0.081     1.967     2.193
    24   1 H        0.925     0.126     1.568     1.958
    25   1 H        0.860     0.227     0.979     1.550

 Mol. C6AA /au·bohr⁶  :       6568.687921
 Mol. C8AA /au·bohr⁸  :     151435.655358
 Mol. α(0) /au        :        123.575635


Wiberg/Mayer (AO) data.
largest (>0.10) Wiberg bond orders for each atom

 ---------------------------------------------------------------------------
     #   Z sym  total        # sym  WBO       # sym  WBO       # sym  WBO
 ---------------------------------------------------------------------------
     1   6 C    3.921 --     2 N    0.988    16 H    0.968    17 H    0.965
                            15 H    0.953
     2   7 N    3.718 --     3 C    1.433     6 C    1.145     1 C    0.988
     3   6 C    3.908 --     2 N    1.433     4 N    1.276    18 H    0.952
     4   7 N    3.605 --     3 C    1.276     5 C    1.191    25 H    0.918
     5   6 C    3.951 --     6 C    1.311    13 N    1.241     4 N    1.191
     6   6 C    3.920 --     5 C    1.311     7 C    1.195     2 N    1.145
     7   6 C    2.889 --     9 N    1.405     6 C    1.195
     8   8 O    2.010 --    10 C    1.066    20 H    0.846
     9   7 N    3.657 --     7 C    1.405    11 C    1.073    10 C    0.922
                            12 O    0.113
    10   6 C    3.927 --     8 O    1.066    21 H    0.950    19 H    0.937
                             9 N    0.922
    11   6 C    3.956 --    12 O    1.726     9 N    1.073    13 N    1.047
    12   8 O    2.076 --    11 C    1.726    13 N    0.139     9 N    0.113
    13   7 N    3.596 --     5 C    1.241    11 C    1.047    14 C    0.974
                            12 O    0.139
    14   6 C    3.929 --    13 N    0.974    23 H    0.971    22 H    0.970
                            24 H    0.965
    15   1 H    0.986 --     1 C    0.953
    16   1 H    0.988 --     1 C    0.968
    17   1 H    0.984 --     1 C    0.965
    18   1 H    0.984 --     3 C    0.952
    19   1 H    0.990 --    10 C    0.937
    20   1 H    0.892 --     8 O    0.846
    21   1 H    0.988 --    10 C    0.950
    22   1 H    0.993 --    14 C    0.970
    23   1 H    0.993 --    14 C    0.971
    24   1 H    0.984 --    14 C    0.965
    25   1 H    0.948 --     4 N    0.918
 ---------------------------------------------------------------------------

Topologies differ in total number of bonds
Writing topology from bond orders to xtbtopo.mol

molecular dipole:
                 x           y           z       tot (Debye)
 q only:        3.344      -1.759       0.195
   full:        3.623      -2.809       0.367      11.690
molecular quadrupole (traceless):
                xx          xy          yy          xz          yz          zz
 q only:        9.626       0.643       8.806      -1.567       1.787     -18.432
  q+dip:        8.784      -1.997       6.161      -1.699       4.052     -14.945
   full:        7.908      -1.430       5.456      -1.721       3.832     -13.364

           -------------------------------------------------
          |                Geometry Summary                 |
           -------------------------------------------------

      molecular mass/u    :      195.1988581
   center of mass at/Å    :       -0.1196670       0.0207927      -0.0183831
  moments of inertia/u·Å² :        0.5176267E+03   0.7761087E+03   0.1277506E+04
rotational constants/cm⁻¹ :        0.3256716E-01   0.2172071E-01   0.1319573E-01

 * 24 selected distances

     #   Z          #   Z                                           value/Å
     1   6 C        2   7 N                                       1.4366543
     2   7 N        3   6 C                                       1.3193006
     3   6 C        4   7 N                                       1.3532444
     4   7 N        5   6 C                                       1.3624725
     2   7 N        6   6 C                                       1.3753353
     5   6 C        6   6 C                                       1.3938361
     7   6 C        9   7 N                                       1.3328675
     8   8 O       10   6 C                                       1.3639345
     9   7 N       11   6 C                                       1.3998324
    11   6 C       12   8 O                                       1.1969686
     5   6 C       13   7 N                                       1.3380370
    11   6 C       13   7 N                                       1.4136259
    13   7 N       14   6 C                                       1.4501539 (max)
     1   6 C       15   1 H                                       1.0914403
     1   6 C       16   1 H                                       1.0885257
     1   6 C       17   1 H                                       1.0888975
     3   6 C       18   1 H                                       1.0732699
    10   6 C       19   1 H                                       1.1071225
     8   8 O       20   1 H                                       0.9732820 (min)
    10   6 C       21   1 H                                       1.0946562
    14   6 C       22   1 H                                       1.0901337
    14   6 C       23   1 H                                       1.0901295
    14   6 C       24   1 H                                       1.0893794
     4   7 N       25   1 H                                       1.0112262

 * 6 distinct bonds (by element types)

   Z      Z             #   av. dist./Å        max./Å        min./Å
   1 H    6 C           9     1.0903950     1.1071225     1.0732699
   6 C    6 C           1     1.3938361     1.3938361     1.3938361
   1 H    7 N           1     1.0112262     1.0112262     1.0112262
   6 C    7 N          10     1.3781524     1.4501539     1.3193006
   1 H    8 O           1     0.9732820     0.9732820     0.9732820
   6 C    8 O           2     1.2804515     1.3639345     1.1969686


optimized geometry written to: xtbopt.xyz


           -------------------------------------------------
          | TOTAL ENERGY              -42.155438080237 Eh   |
          | GRADIENT NORM               0.007928595334 Eh/α |
          | HOMO-LUMO GAP               1.805616177231 eV   |
           -------------------------------------------------

------------------------------------------------------------------------
 * finished run on 2024/06/05 at 19:58:16.215     
------------------------------------------------------------------------
 total:
 * wall-time:     0 d,  0 h,  0 min,  0.502 sec
 *  cpu-time:     0 d,  0 h,  0 min,  0.470 sec
 * ratio c/w:     0.936 speedup
 SCF:
 * wall-time:     0 d,  0 h,  0 min,  0.025 sec
 *  cpu-time:     0 d,  0 h,  0 min,  0.025 sec
 * ratio c/w:     1.000 speedup
 ANC optimizer:
 * wall-time:     0 d,  0 h,  0 min,  0.437 sec
 *  cpu-time:     0 d,  0 h,  0 min,  0.431 sec
 * ratio c/w:     0.987 speedup

