25
 energy: -43.830472991681 gnorm: 0.148593890166 xtb: 6.6.1 (8d0f1dd)
C            3.28920974595932        1.16720980628841        0.08996927192212
N            2.32992114687975        0.11037632428290        0.03266890421841
C            2.61591389684988       -1.25173133702427        0.02703773167666
N            1.39560175440392       -1.92740925652325       -0.00804459501073
C            0.40758014719098       -1.02248866036977       -0.01012128219519
C            0.93206010793072        0.26199826607252        0.01237000224537
C            0.05299038540000        1.39293230625185        0.02662887882099
O            0.45026111208626        2.57787470317738        0.01914561687623
N           -1.35042558465307        1.03867866570161       -0.03406114064555
C           -2.29241538165373        2.13782260698605       -0.05280255381205
C           -1.91127422242316       -0.20102418145526       -0.06610057866821
O           -3.05101191117511       -0.41093868634403       -0.07971603617825
N           -0.94587051619627       -1.26606177772234       -0.03359517505744
C           -1.44766135308495       -2.62383723027367       -0.05328484982290
H            3.78222622332536        1.22701720294665        1.08227387240172
H            4.13252269718190        0.97525295901379       -0.63527896204328
H            2.82774529610565        2.09599917683608       -0.13105085204459
H            3.58560868320978       -1.69263011634648        0.03323990843741
H           -1.71013376790437        3.05111858959255       -0.02737761889379
H           -2.90860914513900        2.11623171337879       -0.95333152786961
H           -2.95961320543312        2.09712473651130        0.80872805074376
H           -1.13099745468824       -3.17290454467958        0.83773268188469
H           -1.11089213936489       -3.15678770531729       -0.94810794116102
H           -2.51610279695390       -2.53990048777074       -0.06101568650066
H            1.32767785973910       -2.93659967799342       -0.02180706790849
25
 energy: -43.837349791072 gnorm: 0.035060990877 xtb: 6.6.1 (8d0f1dd)
C            3.29064722165799        1.16199175654365        0.09125382668534
N            2.32162690751517        0.11514845066157        0.03251126178596
C            2.60280247512594       -1.24432892216035        0.02902128889100
N            1.39620459219917       -1.92304632248365       -0.00687125131895
C            0.40014503321783       -1.02479452330214       -0.01085566870692
C            0.92636897945626        0.25982660668125        0.01115155637870
C            0.06961919218763        1.39430466013607        0.01212266099931
O            0.43727807784212        2.57712220990305        0.02051123493247
N           -1.32439937585791        1.04268583226854       -0.03257223174325
C           -2.27477575951577        2.14093970319061       -0.05176964775461
C           -1.88051469499981       -0.20010124929444       -0.05446122883803
O           -3.06116338664079       -0.41712638667548       -0.08236446214636
N           -0.94170910445296       -1.27303199424621       -0.03424685626911
C           -1.44740589738254       -2.62705511723966       -0.05428512978439
H            3.76365820086119        1.22235698996596        1.08471502487286
H            4.10336110200403        0.97653334207714       -0.63718687313038
H            2.81056371189553        2.10215790458204       -0.13066189633329
H            3.57099997991156       -1.68505256452843        0.03359629388082
H           -1.69903052727711        3.06212524280695       -0.02821587815514
H           -2.89017085371333        2.10646289205246       -0.95339407720852
H           -2.94116518871604        2.09090974171939        0.81174537155922
H           -1.12780592811751       -3.17361201529685        0.83670441737507
H           -1.11011414934901       -3.15729225391952       -0.94897319290750
H           -2.52874438454646       -2.55211790753857       -0.06258145429377
H            1.32803535428762       -2.92768268068359       -0.02079403735494
25
 energy: -43.837098950020 gnorm: 0.023520364178 xtb: 6.6.1 (8d0f1dd)
C            3.31888920911657        1.15054840324022        0.08758603906388
N            2.32822796333302        0.11590501445845        0.03054233607998
C            2.60454823742048       -1.24572506267164        0.02787552280191
N            1.40085025593468       -1.92090217990003       -0.00653894761884
C            0.39871742209281       -1.02331934781764       -0.00988261982288
C            0.92721811837776        0.26068155466740        0.01730847568578
C            0.07093332858908        1.39494895684790        0.01990992403070
O            0.42659167848623        2.57626904225432        0.02838139857717
N           -1.32804468949093        1.04762324112453       -0.03251749084170
C           -2.30046162224642        2.13587284469064       -0.05270986406059
C           -1.86720947252825       -0.19883667329038       -0.06077586884347
O           -3.06157786642791       -0.42342703070671       -0.09024580614010
N           -0.94052234631549       -1.26977924288419       -0.03591553639655
C           -1.44570211304565       -2.62000407394454       -0.05145428046286
H            3.78740714476177        1.22005902248233        1.07778065040952
H            4.13076968018659        0.96559427967488       -0.62643445556272
H            2.84163870202724        2.10026636883327       -0.13772965139761
H            3.57403845839840       -1.69113510485752        0.02844468592158
H           -1.73070542428260        3.05948021497395       -0.02251545225820
H           -2.91655340196908        2.10687889055677       -0.95473380311960
H           -2.97435347590872        2.08279464870256        0.80556496211647
H           -1.13453494126686       -3.16564726995896        0.84265579620654
H           -1.11276379927098       -3.15289399179868       -0.94536567601306
H           -2.52938825721804       -2.53317228697036       -0.06202774097265
H            1.32629878883914       -2.92475682248676       -0.02310354596712
25
 energy: -43.838051261349 gnorm: 0.009709240389 xtb: 6.6.1 (8d0f1dd)
C            3.30380531727989        1.15771185576645        0.08959924010732
N            2.32385286923383        0.11389233704076        0.02971408925880
C            2.60474278842425       -1.24771910482348        0.02849811774916
N            1.40097126626472       -1.92488928676213       -0.00712193823113
C            0.39574357683888       -1.02840637784631       -0.01095997484617
C            0.92353159358582        0.25536132568966        0.01559230219381
C            0.07160282584400        1.39142539855349        0.01670974920586
O            0.43237020410082        2.57201444746806        0.01804353006074
N           -1.32925326900750        1.04464546754650       -0.03281044941764
C           -2.28762901162092        2.14190128760340       -0.05270800941462
C           -1.86934004309463       -0.20032803839073       -0.05787930026673
O           -3.06104099441271       -0.41959230390296       -0.07969815966044
N           -0.94568316174314       -1.27352246749823       -0.03569002685351
C           -1.44484999348156       -2.62604099897449       -0.05369343979053
H            3.77058184662050        1.22948381504007        1.08097317857208
H            4.11487957715302        0.98262482905138       -0.62989799267208
H            2.81537203467119        2.10220669738116       -0.13054418804591
H            3.57650184706243       -1.69026822308093        0.03296926766063
H           -1.70097289849984        3.05484292909855       -0.02889350104425
H           -2.90439289065065        2.11652238057891       -0.95337514757095
H           -2.95366303572451        2.09984692580547        0.81099520800801
H           -1.12954234590592       -3.17424131108336        0.83719792669011
H           -1.11176964469207       -3.15594955686264       -0.94949966251618
H           -2.52741230263385       -2.54449398706431       -0.06163762648264
H            1.32590542198077       -2.92970464511451       -0.02178414127816
25
 energy: -43.838011283659 gnorm: 0.010135561157 xtb: 6.6.1 (8d0f1dd)
C            3.30097764444896        1.15802582667737        0.08965669577885
N            2.32197680917814        0.11676337809086        0.03032616691490
C            2.60288991730485       -1.24416493639171        0.02882472371453
N            1.39961248423479       -1.92101001651953       -0.00659595185991
C            0.39563804566686       -1.02421826847960       -0.01066676576524
C            0.92314028110269        0.26010405982757        0.01442707638364
C            0.07320260220832        1.39704976528954        0.01663988838288
O            0.43608362750010        2.57884476462824        0.02509663426618
N           -1.32814658935701        1.04534210020580       -0.03306272681613
C           -2.28406296017139        2.13977175002237       -0.05209392368957
C           -1.87005455799987       -0.19873587931354       -0.05976959095561
O           -3.05846059410978       -0.41491019506414       -0.08491896668480
N           -0.94673055883065       -1.27097866769871       -0.03586200395498
C           -1.44546182541231       -2.62442287469150       -0.05316368252731
H            3.76919276281296        1.21901267271731        1.08240940708606
H            4.10544467208097        0.96854677406114       -0.63777792063003
H            2.81867224255530        2.10320266106522       -0.13125268455684
H            3.57381656912994       -1.68535159570113        0.03298902856426
H           -1.70779699815867        3.06016443495394       -0.02488564581848
H           -2.89430545463408        2.10204736687713       -0.95568679717788
H           -2.94923728781916        2.08226507501457        0.81045244210949
H           -1.12924196145942       -3.16925781528632        0.83937207080939
H           -1.10857994531836       -3.15632552310090       -0.94649634952250
H           -2.52771878941874       -2.54849115976618       -0.06308017253075
H            1.32346144205839       -2.92595030219802       -0.02078190010457
25
 energy: -43.838179150947 gnorm: 0.002900973894 xtb: 6.6.1 (8d0f1dd)
C            3.30412681553383        1.15787876613427        0.09047900386503
N            2.32385007308885        0.11584392967059        0.02989550553568
C            2.60415535648832       -1.24547438319421        0.02840547133541
N            1.40168018109540       -1.92248611254900       -0.00737840585665
C            0.39659878884877       -1.02632288190429       -0.01071242458295
C            0.92386352821333        0.25811586621243        0.01391769173841
C            0.07271999862547        1.39419908738436        0.01455563846758
O            0.43304130756286        2.57585693535370        0.02014155539454
N           -1.32993894272722        1.04412550045548       -0.03261071677689
C           -2.28660274367874        2.14047256659128       -0.05238376768943
C           -1.86934772330256       -0.20109932289190       -0.05654556217279
O           -3.05959724412950       -0.41901465612335       -0.08131524330342
N           -0.94593859006895       -1.27245447947152       -0.03490572409449
C           -1.44638859422949       -2.62476466655079       -0.05352232783391
H            3.77027789946765        1.22416927537037        1.08323706979010
H            4.11420848404465        0.97474653019128       -0.63034495344836
H            2.82037639023655        2.10253966943928       -0.13268807264818
H            3.57488583854660       -1.68753372348688        0.03194718596836
H           -1.70729698771960        3.05874455131610       -0.02815371491584
H           -2.90119283902544        2.10801186307131       -0.95340798051840
H           -2.95219982879252        2.09147427713987        0.81049411271777
H           -1.13048421532167       -3.17233390646640        0.83751684595566
H           -1.11292678561486       -3.15523689292034       -0.94896917130151
H           -2.52890479919979       -2.54478566843520       -0.06149430472447
H            1.32534620965090       -2.92734872911665       -0.02205865948568
25
 energy: -43.838139481112 gnorm: 0.004504247409 xtb: 6.6.1 (8d0f1dd)
C            3.30386551427062        1.15744072085413        0.08817378236359
N            2.32378113655798        0.11454903643757        0.03052977703616
C            2.60360915654817       -1.24701070904716        0.02940256734925
N            1.40127411444421       -1.92346057332882       -0.00558187635778
C            0.39612993394522       -1.02707487522566       -0.00970533527840
C            0.92343795167150        0.25711177226085        0.01694886052954
C            0.07290559045155        1.39325265841840        0.01914974255449
O            0.43284817853685        2.57448986998611        0.02533287792064
N           -1.33071092462448        1.04443984873516       -0.03292998648597
C           -2.28740544821082        2.14136082674810       -0.05244130225257
C           -1.86911151672130       -0.20096591786045       -0.06058797279769
O           -3.06032410572370       -0.41833182620854       -0.08687934405936
N           -0.94632743918610       -1.27229664984219       -0.03598260527236
C           -1.44447800846137       -2.62517224591879       -0.05313460889433
H            3.77442921743037        1.22523273758842        1.07821852353897
H            4.11141699420131        0.97833846326392       -0.63604641393932
H            2.81702534707407        2.10168740481951       -0.13147240956695
H            3.57434945131355       -1.68977235388346        0.03255051882190
H           -1.70511113842602        3.05734268152457       -0.02430169139468
H           -2.90085552837262        2.11470036308474       -0.95475770378284
H           -2.95571069998443        2.09324965333178        0.80872758840286
H           -1.12973271925409       -3.17056205980887        0.83978102366798
H           -1.10770743826000       -3.15682130957312       -0.94666106224765
H           -2.52709739556566       -2.54610442278886       -0.06381250795675
H            1.32381135393799       -2.92829969834757       -0.02042139048314
25
 energy: -43.838190728184 gnorm: 0.001167476482 xtb: 6.6.1 (8d0f1dd)
C            3.30378100440167        1.15757521362684        0.09003463024375
N            2.32376850212109        0.11524314580178        0.02995708287990
C            2.60377540560190       -1.24611557921969        0.02862459112269
N            1.40152817214660       -1.92270288773921       -0.00726753277795
C            0.39638999013716       -1.02644765753711       -0.01098638068111
C            0.92360281031150        0.25794469182699        0.01470362208514
C            0.07340251024405        1.39423217280797        0.01599287122157
O            0.43356840221088        2.57562158740258        0.02106332211274
N           -1.33028729442348        1.04453471283969       -0.03300618447908
C           -2.28714745593230        2.14043673495930       -0.05246170155355
C           -1.86902786126672       -0.20075014868591       -0.05814292890928
O           -3.05978135726758       -0.41769535580736       -0.08230062223128
N           -0.94624828200456       -1.27195229346389       -0.03568328173859
C           -1.44533814230355       -2.62465138166285       -0.05325859677677
H            3.77123176876620        1.22393464207008        1.08195264142981
H            4.11276513907205        0.97556684881274       -0.63228093943420
H            2.81898878386437        2.10216878427907       -0.13127079242095
H            3.57464767325997       -1.68837371785923        0.03254523766545
H           -1.70658746201634        3.05770506484641       -0.02717847904433
H           -2.90159163313432        2.10945257005636       -0.95390432982662
H           -2.95323280357169        2.09133620156072        0.81029938068588
H           -1.12942395310370       -3.17131602816128        0.83842334984527
H           -1.11080564381159       -3.15564722428886       -0.94802753317233
H           -2.52783422057151       -2.54520994604249       -0.06187668103853
H            1.32416752486271       -2.92756675520287       -0.02185169379205
25
 energy: -43.838178255663 gnorm: 0.002113142011 xtb: 6.6.1 (8d0f1dd)
C            3.30379535466818        1.15837735120589        0.08901568032444
N            2.32384082427638        0.11592613197435        0.03018703550300
C            2.60419426013214       -1.24520036673471        0.02903250682019
N            1.40236417980973       -1.92243480917605       -0.00579072293808
C            0.39667700172360       -1.02683975889027       -0.00944093654072
C            0.92343900052524        0.25801485212105        0.01546485514598
C            0.07323516256199        1.39401640536503        0.01707985149226
O            0.43263713942803        2.57573176801468        0.02317693982399
N           -1.33064445680951        1.04376342850834       -0.03202712655382
C           -2.28605962059060        2.14051511761893       -0.05233299161271
C           -1.86912218864552       -0.20185465019223       -0.05733013199373
O           -3.05958278074260       -0.41883658862849       -0.08321507119161
N           -0.94627138209501       -1.27274035047979       -0.03463326328675
C           -1.44686069678812       -2.62514169859606       -0.05399264538626
H            3.77082397550839        1.22581972978749        1.08127163961335
H            4.11356832235390        0.97440597087382       -0.63222717605171
H            2.82006251087674        2.10268700571420       -0.13484722936455
H            3.57531811112709       -1.68676132948189        0.03157406768895
H           -1.70598405232929        3.05828375765105       -0.02675683763358
H           -2.89933364258464        2.10918550927870       -0.95440388464456
H           -2.95283770202062        2.09168685323947        0.80977152721073
H           -1.13238584423590       -3.17331520186746        0.83723891315413
H           -1.11277844584014       -3.15568589294537       -0.94921259446450
H           -2.52930505667605       -2.54492968687963       -0.06314834685818
H            1.32552160395944       -2.92735015226125       -0.02035500684070
25
 energy: -43.838190584888 gnorm: 0.000839141636 xtb: 6.6.1 (8d0f1dd)
C            3.30380447497757        1.15797758095878        0.08968827124022
N            2.32383858789136        0.11557343085578        0.03006546862341
C            2.60392804220960       -1.24564695095080        0.02869553118787
N            1.40201721658742       -1.92254636235095       -0.00664207377888
C            0.39655356790810       -1.02672011284858       -0.01022206017090
C            0.92342671260741        0.25801694663922        0.01491003168103
C            0.07336926480501        1.39412043220247        0.01623788824727
O            0.43287262083848        2.57573441960504        0.02211169087070
N           -1.33073492842424        1.04408821909518       -0.03268944169953
C           -2.28649537651571        2.14063922305566       -0.05236799058803
C           -1.86912690496068       -0.20155094614657       -0.05788734588725
O           -3.05970332639851       -0.41845132387953       -0.08317300515069
N           -0.94631119799930       -1.27240484092799       -0.03514610802021
C           -1.44611028839817       -2.62500804256783       -0.05343105791992
H            3.77124385243658        1.22454904047361        1.08175006151065
H            4.11323841053377        0.97522822808722       -0.63218909620372
H            2.81963943415513        2.10244129545356       -0.13275198931248
H            3.57492202042971       -1.68756980658593        0.03182518887485
H           -1.70641355983917        3.05835650720989       -0.02684052375917
H           -2.90042885530607        2.10970112741905       -0.95405010888010
H           -2.95295571239077        2.09170116281051        0.81002541690458
H           -1.13082481648054       -3.17214260193813        0.83816734602129
H           -1.11165321646895       -3.15591968180489       -0.94829194887020
H           -2.52859522605095       -2.54539605208838       -0.06236063259925
H            1.32481078144576       -2.92744749655662       -0.02133446090597
25
 energy: -43.799454759437 gnorm: 0.295744800316 xtb: 6.6.1 (8d0f1dd)
C            3.34069170848464        1.15186207097756        0.09327328511270
N            2.36711184375441        0.13768381780575        0.01950280621539
C            2.62580324000557       -1.29578543409247        0.00718004680078
N            1.35939281342758       -1.90053103905254       -0.02373024598191
C            0.40893283087224       -0.98005256594073       -0.01432073575774
C            0.93359844623711        0.31110978466562        0.01005205276242
C           -0.00041707316701        1.42575758891878        0.06351978789353
O            0.38724757934693        2.59979256048865        0.04770367708255
N           -1.45363608767446        1.04816968090418       -0.03368016626137
C           -2.36784869544888        2.13053408148316       -0.05566425316614
C           -2.00202348874027       -0.19178518186628       -0.09506975376872
O           -3.08869382911911       -0.45802852261070       -0.09849202317777
N           -0.95240132468067       -1.22348087577812       -0.03161406809583
C           -1.41980496839017       -2.60781146578569       -0.04548509594888
H            3.85181395652379        1.21421241648893        1.10155895803159
H            4.23935603497130        0.88895064137856       -0.59199199257166
H            2.95567573085059        2.09146582839386       -0.17297764228558
H            3.58074080896775       -1.74962648729951        0.01337447271426
H           -1.77093443624385        3.03990783329496       -0.02832089958737
H           -2.99544921861520        2.12544106198107       -0.95319110188335
H           -3.04477936300848        2.10432598192774        0.80036200577711
H           -1.09163510411369       -3.15015649463504        0.84566813002968
H           -1.07545890157535       -3.13970684978945       -0.93965818957129
H           -2.47248058833529       -2.54926616100100       -0.04556630040414
H            1.27657146031636       -2.92049620870358       -0.03466659961596
25
 energy: -43.826237055765 gnorm: 0.062471503305 xtb: 6.6.1 (8d0f1dd)
C            3.34789936324819        1.13420060977129        0.09430839318998
N            2.34408071094052        0.13135078237916        0.02231041346024
C            2.59880652106998       -1.26554913597333        0.01062391726638
N            1.36571775149825       -1.90010358924890       -0.02281738453669
C            0.39555147700960       -0.98750672114301       -0.01538063539381
C            0.92557951816325        0.29806505455301        0.01053810543809
C            0.02792273374264        1.41750502414493        0.03748989088452
O            0.37012678399041        2.59989127105170        0.05341736879046
N           -1.40037072855479        1.05030652702369       -0.03040154811094
C           -2.34701873607812        2.13671196826904       -0.05439157867178
C           -1.94595134842068       -0.19224916607870       -0.07179263321982
O           -3.10867724840671       -0.46347035118637       -0.10520677326862
N           -0.94679265814808       -1.24042277489292       -0.03296359919613
C           -1.41906571271842       -2.61219017022824       -0.04717389466778
H            3.81857730881410        1.20911448569289        1.10127669749711
H            4.20037588286462        0.89262278571920       -0.59591082991657
H            2.94390607459699        2.09346309082622       -0.17253876392906
H            3.55933713977707       -1.72129369554492        0.01468987949785
H           -1.77047581420693        3.05860607407138       -0.02990631633877
H           -2.97391116431875        2.11751334189323       -0.95325136519943
H           -3.02586696879255        2.10141205922669        0.80402795191474
H           -1.08538448515611       -3.14816315589001        0.84510170961244
H           -1.07353765445881       -3.13879220256069       -0.94117450849201
H           -2.49496204188958       -2.56003234638606       -0.04825078551266
H            1.28550667007973       -2.90850370333558       -0.03485755675542
25
 energy: -43.827431882209 gnorm: 0.023352151574 xtb: 6.6.1 (8d0f1dd)
C            3.37495974036630        1.12530706956483        0.09012197250908
N            2.34527748738901        0.12812258307196        0.02043024821100
C            2.59508093368878       -1.25656674586478        0.00742871390787
N            1.37015455346788       -1.89530630142755       -0.02088125346533
C            0.38952522489699       -0.98053787639349       -0.01350986358657
C            0.92596800546081        0.30124534454824        0.01961916592268
C            0.02795876080784        1.41617348722752        0.04699093631669
O            0.35444096941268        2.60228423486718        0.05935713525600
N           -1.39619964079076        1.05299231220107       -0.03415360754863
C           -2.36999041896832        2.13234299206054       -0.05530447653961
C           -1.92169312853500       -0.19299416231934       -0.08149014955445
O           -3.09866792118269       -0.46619710053209       -0.11723489520381
N           -0.94875108051773       -1.23661586155437       -0.03532869836630
C           -1.41505074568286       -2.60331611813752       -0.04297017695726
H            3.84442462535937        1.20559042749060        1.08659422701706
H            4.21942482143775        0.88318616399629       -0.57941401048364
H            2.96461369399194        2.09405657070768       -0.17646145205447
H            3.55440404197281       -1.73509666010928        0.00671820110789
H           -1.79067035046854        3.04962787219319       -0.02195293279123
H           -2.99369338085126        2.11247134949365       -0.95555447857698
H           -3.05067156108633        2.08444760601074        0.80075467921368
H           -1.09278578947704       -3.14096728442367        0.85195310565182
H           -1.07599744493176       -3.13428609438146       -0.93564788654319
H           -2.49567410749844       -2.54376894753746       -0.04761389091418
H            1.27498608638441       -2.89970879859877       -0.03468445818580
25
 energy: -43.827949218893 gnorm: 0.020829922449 xtb: 6.6.1 (8d0f1dd)
C            3.36299882841457        1.13357181948759        0.09395600736418
N            2.33906656943512        0.12411838090784        0.01772961174328
C            2.59561099384554       -1.25413040811368        0.00928674236372
N            1.37509233813983       -1.90067770532631       -0.02397861031989
C            0.38376582120466       -0.98684413085476       -0.01742761199627
C            0.92130579803315        0.29412196604165        0.01534029067249
C            0.03012956896651        1.41091144435008        0.03962940499498
O            0.36079915770112        2.59631018701787        0.04475488758585
N           -1.39367528671886        1.05043048122447       -0.03289700505011
C           -2.35709690642802        2.14266054670234       -0.05556084516717
C           -1.91572305073954       -0.19630743687564       -0.07104146036088
O           -3.09678579225049       -0.46048802170052       -0.09450151125845
N           -0.95720100330753       -1.24252266427497       -0.03577484133524
C           -1.41307183279841       -2.61063389367687       -0.04734881338352
H            3.81620760243411        1.21706897210319        1.09557425226955
H            4.19731976908863        0.90223934399446       -0.58383849580542
H            2.93158542897053        2.09855973854687       -0.16960828869230
H            3.55711713943573       -1.73749796784886        0.01759068665405
H           -1.75564877676771        3.04581689390169       -0.03329183019808
H           -2.98026462548295        2.12207775310995       -0.95354965413312
H           -3.02652957449845        2.10884889286425        0.80701634573567
H           -1.08582246664253       -3.15328831050393        0.84229979966989
H           -1.07712125808828       -3.13759331082466       -0.94371071746668
H           -2.49491835239873       -2.55937263308702       -0.04744096770221
H            1.27423328509779       -2.90489387501131       -0.03544122184201
25
 energy: -43.828391691163 gnorm: 0.008398852480 xtb: 6.6.1 (8d0f1dd)
C            3.36490638213070        1.13226004832356        0.09363472410692
N            2.34055842557501        0.12814589758445        0.01965745925835
C            2.59776050687223       -1.25273632230496        0.00951584043107
N            1.37631832215642       -1.89914642212595       -0.02166461874487
C            0.38731069517930       -0.98530959341423       -0.01528185019268
C            0.92241449093040        0.29787086538183        0.01452278491833
C            0.02930856410223        1.41585145376762        0.04063853013726
O            0.36711095083316        2.60072711606386        0.05925607520173
N           -1.39767091680692        1.05123618216248       -0.03251369684343
C           -2.35864966020845        2.14078297940028       -0.05467046971109
C           -1.92337797396845       -0.19613742388873       -0.07709478295794
O           -3.10130250724054       -0.45838696090567       -0.10698124493309
N           -0.95653074791042       -1.24008853516918       -0.03640061210955
C           -1.41577745784249       -2.60865947523111       -0.04574650817295
H            3.82026346364799        1.20527134296655        1.09842086724169
H            4.19518480015718        0.88553492170063       -0.59635894501755
H            2.94561912992621        2.09628018453610       -0.17353124932664
H            3.55943768952273       -1.72715598499631        0.01372389557073
H           -1.77403400504069        3.05601443438376       -0.02572924857436
H           -2.97588217058289        2.11387257917312       -0.95572573080423