25
 energy: 0.000000000000 xtb: 6.6.1 (8d0f1dd)
C            3.23720163006194        1.16630919979326        0.08434469647475
N            2.29877817382611        0.07527477071623        0.03981603040599
C            2.58028210190900       -1.21425402444508        0.03006176031096
N            1.43813958087363       -1.93419271955128        0.00098261760884
C            0.39035688448383       -1.05887472636071       -0.00790371836672
C            0.93510056364412        0.21347819449412        0.01709077491437
C            0.09450143893243        1.40504303904423       -0.00410947031874
O            0.49712751527797        2.54126714362870       -0.00342325688240
N           -1.25076640035757        1.06271879480407       -0.03085478223738
C           -2.21907211982101        2.15522099834493       -0.05001256985998
C           -1.81739487048744       -0.20012725993278       -0.04692818574614
O           -2.99983886758376       -0.37846417018721       -0.07008878229737
N           -0.92618586207120       -1.30210215599479       -0.03682761578324
C           -1.46982264913417       -2.64643102187190       -0.06029820460571
H            3.71247264356769        1.21471455160235        1.06488849150277
H            4.00791497605742        1.03430808813993       -0.67357694370751
H            2.69910007168542        2.09770118228144       -0.09130154882931
H            3.56654120610678       -1.63682992603973        0.04233140067262
H           -1.67107961066214        3.09322851271934       -0.02552706933167
H           -2.82428953597071        2.09428624779827       -0.95318082946668
H           -2.87644029173232        2.07745725625962        0.81450067533302
H           -1.17061996399332       -3.19584890659852        0.83242232437030
H           -1.14560257411436       -3.17511610292205       -0.95688275822323
H           -2.55549792440841       -2.55659984320617       -0.07459039797972
H            1.38130855184625       -2.94313852034425       -0.01389874181052
25
 energy: -5.369736662312 xtb: 6.6.1 (8d0f1dd)
C            3.25275537331366        1.17224090296689        0.08668599155488
N            2.31162803827748        0.09439776935690        0.03771211354096
C            2.60199914303707       -1.23409183343086        0.02919506120120
N            1.42910040017052       -1.94014157318333       -0.00016974291211
C            0.39799507540766       -1.05475432944948       -0.00794986167139
C            0.93220696524640        0.22357445567773        0.01592522554032
C            0.09838927649588        1.39592188326532       -0.00281117988373
O            0.49590938795214        2.56143203892036        0.00012136154020
N           -1.26795608363151        1.05295249698649       -0.03141127801218
C           -2.23203586066720        2.14930975135054       -0.05045857615591
C           -1.82902721365918       -0.20016798311010       -0.04820156747805
O           -3.02541480279394       -0.38674108674365       -0.07214976231348
N           -0.93357351482013       -1.29823564830783       -0.03634768893747
C           -1.46773299981613       -2.64134197371747       -0.05921053951724
H            3.72727152330858        1.22121940217586        1.07027717408451
H            4.02492677736375        1.03083142628991       -0.67090666238865
H            2.71206143707358        2.09827931615165       -0.09629033691161
H            3.58015296449560       -1.66189497425226        0.03986137647685
H           -1.67230465812997        3.08128060930547       -0.02587834034342
H           -2.83998888546690        2.10038813022650       -0.95392856334518
H           -2.89207010874315        2.08310794442560        0.81438760118705
H           -1.16323978282914       -3.19219912085679        0.83283872517995
H           -1.13822169272932       -3.17144062572233       -0.95501539992141
H           -2.55284273013937       -2.55090955714555       -0.07346217520846
H            1.36222663921984       -2.94398881900751       -0.01577905915834
25
 energy: -6.130024079271 xtb: 6.6.1 (8d0f1dd)
C            3.28634688356221        1.16776959469224        0.08975894890288
N            2.32759319648631        0.10857942758330        0.03337546887567
C            2.61680949427918       -1.25329189490619        0.02678382121726
N            1.41372980953443       -1.93634947243122       -0.00316759751476
C            0.40374723524565       -1.04231500081972       -0.00864056949025
C            0.93138879709271        0.23986776001117        0.01414254875468
C            0.09517392497499        1.38565681540292        0.00113439643183
O            0.47062372408793        2.57110951530178        0.01059191155471
N           -1.29769165515337        1.04434820573897       -0.03250436291050
C           -2.26004125228194        2.14283214047710       -0.05153583729593
C           -1.84482677962975       -0.20063201408912       -0.05089840464278
O           -3.04564505886092       -0.40497543269435       -0.07770340666165
N           -0.94018940336443       -1.28620269328725       -0.03524424461348
C           -1.45742689659997       -2.63102026410329       -0.05607559842960
H            3.75874683578860        1.22767940031403        1.07704403274077
H            4.06946329033486        1.01269211627026       -0.65744450836222
H            2.75945023275150        2.09746050531403       -0.11023982940253
H            3.58571048328283       -1.69650490173007        0.03218149106652
H           -1.68425500944980        3.06516008647482       -0.02656034308561
H           -2.87409357073926        2.10976308608216       -0.95372074029734
H           -2.92619010174109        2.09164790565061        0.81177577097266
H           -1.14471102960821       -3.18103392384406        0.83536899884324
H           -1.12021136868010       -3.16157356605098       -0.95038809333852
H           -2.54260745858128       -2.54410427642086       -0.06994666510023
H            1.33132034520512       -2.93753451676423       -0.02105329206751
25
 energy: -1.836342570559 xtb: 6.6.1 (8d0f1dd)
C            3.36206837957370        1.14405050672970        0.09450097377960
N            2.35353664253206        0.12694870111429        0.02467843220195
C            2.62717216392105       -1.27822554262625        0.02044759186346
N            1.38552663719229       -1.92105716612263       -0.01138684358300
C            0.40846047763072       -1.01187355778028       -0.01103619503807
C            0.93258004897717        0.27453637589165        0.01158056177833
C            0.07658649229815        1.38274448852466        0.01273710655491
O            0.40623362340413        2.59230499660152        0.03846838205795
N           -1.35628316673500        1.03859482789093       -0.03412714623107
C           -2.32441067236609        2.13415186351283       -0.05404599462908
C           -1.87603355312546       -0.20170141839212       -0.05738030846504
O           -3.07737739058637       -0.44429601484534       -0.09230154381385
N           -0.94725522142548       -1.25934388465794       -0.03314732854706
C           -1.42780610212654       -2.61189754023234       -0.04774351082268
H            3.82095677919683        1.22374524046260        1.09179376984739
H            4.17489971224280        0.94470853682392       -0.61898672727176
H            2.88896446831417        2.09428185064603       -0.15049042338333
H            3.57978602808778       -1.75576190949859        0.01060695354866
H           -1.73155846864951        3.04497292512372       -0.02782502115831
H           -2.94913757349433        2.12181882171352       -0.95300844908071
H           -3.00244058055471        2.10200831380922        0.80453526191719
H           -1.09693267503508       -3.15313058040458        0.84455174356537
H           -1.07470934702127       -3.13937487952073       -0.93947693936469
H           -2.51389160252805       -2.53986605802900       -0.06025716979565
H            1.27327956821335       -2.91931029456276       -0.03565327978318
25
 energy: 4.411128532639 xtb: 6.6.1 (8d0f1dd)
C            3.43422786018104        1.11288173062887        0.09830472214578
N            2.37202718446515        0.14194754479597        0.01748903484283
C            2.62773458733365       -1.29073301682604        0.01329927306809
N            1.36348244574335       -1.90422534583057       -0.02135826521402
C            0.40893301160045       -0.98033367174186       -0.01428878475131
C            0.93360035962512        0.30786112019975        0.01011366859760
C            0.05230958656457        1.39327567720904        0.02705041552509
O            0.34767377599916        2.61683117545660        0.06881629757098
N           -1.40754058708161        1.04159752730518       -0.03436068724935
C           -2.38826826663452        2.12979743274065       -0.05643787141319
C           -1.90485708402047       -0.20123104201619       -0.06441704920025
O           -3.10438395617211       -0.47668155904069       -0.10802494679944
N           -0.95102736967277       -1.23443178153675       -0.03194096384831
C           -1.39518083697191       -2.59705948733341       -0.03844604727610
H            3.86992634509723        1.20588426836108        1.10841974684633
H            4.27598512298338        0.85277435236209       -0.57517050728767
H            3.02894495083649        2.08700734820602       -0.19895337710546
H            3.56650866577382       -1.79712304760210       -0.01462628131900
H           -1.79462466614978        3.03885124006712       -0.02850976906840
H           -3.01952757342150        2.12713615652242       -0.95338696713723
H           -3.07602675370463        2.10576244262319        0.79720051174658
H           -1.04550692572307       -3.12509260579265        0.85623659680720
H           -1.02662212383514       -3.11997905332509       -0.92771879910229
H           -2.48236048603420       -2.54606752721456       -0.04918040061609
H            1.22678740115465       -2.89962127604604       -0.05307565361506
25
 energy: 11.375130030984 xtb: 6.6.1 (8d0f1dd)
C            3.50201723768246        1.07744410830484        0.10214174327993
N            2.38628292907684        0.15613207587263        0.01110147402595
C            2.62506745566420       -1.29626085777396        0.00540562552750
N            1.34615528295717       -1.88673842062730       -0.03311737708576
C            0.40796228189620       -0.94928329364665       -0.01820981762363
C            0.93347143340718        0.33967530006543        0.00972364800184
C            0.02658575471877        1.40793782021361        0.04389221007755
O            0.29553542823495        2.63940140990901        0.10153634890777
N           -1.45590720334365        1.04856456817326       -0.03363660905022
C           -2.45083317456786        2.12948248783042       -0.05894757249045
C           -1.93276368091738       -0.19980401916240       -0.07206736033812
O           -3.12873717864346       -0.50438933260157       -0.12486228199659
N           -0.95376371563993       -1.21097078872969       -0.03142460763938
C           -1.36102584877125       -2.58480376880752       -0.02810967323978
H            3.90705203082593        1.18505229564426        1.12662233511175
H            4.36884066003302        0.74769858433058       -0.52647306971201
H            3.17135674956435        2.07136581534785       -0.25306391899552
H            3.55156737052413       -1.82595388141483       -0.04410916469472
H           -1.86364322871631        3.04162813388712       -0.02881137895247
H           -3.08600025689655        2.13246745779382       -0.95517064409027
H           -3.14763239594493        2.10968978289357        0.78965662050335
H           -0.99236934584854       -3.09726154164985        0.86969982614674
H           -0.97758997049349       -3.10353197322094       -0.91448614137669
H           -2.44910315527579       -2.55940741535843       -0.03673717865783
H            1.18968920841034       -2.87910594510125       -0.07351913949157
25
 energy: 18.786752119497 xtb: 6.6.1 (8d0f1dd)
C            3.56676164243647        1.03768588817810        0.10636682232095
N            2.39843227675495        0.16901187207466        0.00565425238090
C            2.62092397570254       -1.29658691364514       -0.00292420684232
N            1.33300567194906       -1.86841566677062       -0.04618594727070
C            0.40657160092640       -0.91919119098015       -0.02256730806134
C            0.93297896937066        0.36985978187295        0.01061220941014
C            0.00120556358818        1.42461246124428        0.06226891375920
O            0.24987464759270        2.65947775210285        0.13580594994262
N           -1.50199462701052        1.05863181023164       -0.03246760823541
C           -2.51343602482860        2.13176914971034       -0.06206065861496
C           -1.95946776672976       -0.19690592077573       -0.08015295893620
O           -3.15039135286965       -0.52753582088927       -0.14233787361966
N           -0.95571149399386       -1.18809190949129       -0.03151807779207
C           -1.32633218650373       -2.57320657685633       -0.01684908976792
H            3.93825124324855        1.16183423724910        1.14409772101885
H            4.45119658473212        0.63509956800637       -0.47533051250798
H            3.31410783445574        2.04461685564813       -0.30667001097569
H            3.53673609385153       -1.84433911962118       -0.07718821189435
H           -1.93957501490420        3.05144996732873       -0.02934904279814
H           -3.15072691846083        2.13722058552191       -0.95854280996810
H           -3.21934511045173        2.11323882731400        0.78108820623703
H           -0.93874583368223       -3.06832340143175        0.88449727474774
H           -0.92865351866416       -3.08842981479306       -0.89983486770437
H           -2.41475206182346       -2.57666943893572       -0.02299818451092
H            1.16130047325028       -2.85778438012078       -0.09638008416991
25
 energy: 26.467694120644 xtb: 6.6.1 (8d0f1dd)
C            3.62914783772573        0.99356264667374        0.11124813115375
N            2.41008911602702        0.17968110273978        0.00151602761908
C            2.61642918127415       -1.29289762391725       -0.01137628374241
N            1.32404263434688       -1.84947608593438       -0.05996015274449
C            0.40550983507710       -0.89046960460821       -0.02709432437921
C            0.93314107074955        0.39808657048512        0.01304388644866
C           -0.02229061555801        1.44262837949289        0.08113278858702
O            0.21125919136040        2.67730767193581        0.17061317549854
N           -1.54545825849746        1.07171904298539       -0.03145710058839
C           -2.57696455020425        2.13549323901258       -0.06634975908123
C           -1.98436370209288       -0.19191890735617       -0.08840827294521
O           -3.16901629415677       -0.54583496758976       -0.15987674177700
N           -0.95669249547170       -1.16523143680034       -0.03207504047142
C           -1.29216773583409       -2.56083965955260       -0.00479816022303
H            3.96924146017206        1.13440162444461        1.15865574174750
H            4.52075902585377        0.52049147621728       -0.42533401595625
H            3.45394458951899        2.00560722580161       -0.35302873043969
H            3.52322930000184       -1.85357880736244       -0.11282775419550
H           -2.02422339419243        3.06744182875764       -0.03085589528528
H           -3.21510666603219        2.13973160792599       -0.96383253129178
H           -3.29239837674095        2.11474716142879        0.77071701104764
H           -0.88624695933948       -3.03737570373943        0.90027308296834
H           -0.88131019321969       -3.07337894074740       -0.88402315912321
H           -2.38005274693223       -2.59478250024018       -0.00800501838148
H            1.14171341410111       -2.83608673788099       -0.12086300829756
25
 energy: 25.625839534441 xtb: 6.6.1 (8d0f1dd)
C            3.67786326665159        0.92067644896486        0.11136720303873
N            2.41243648874041        0.16681315109383       -0.00293358121957
C            2.58319959366198       -1.24530531184035       -0.01975856983252
N            1.35135353106729       -1.82303414228151       -0.07886288799578
C            0.39473564902099       -0.86387911741969       -0.03450045047640
C            0.94388216198420        0.41103461987413        0.02194133851756
C           -0.06171968406944        1.49160096828103        0.10909192069873
O            0.18861208953182        2.66872173215945        0.21428682298478
N           -1.58105685802791        1.10802778289415       -0.02934849053415
C           -2.64118493443713        2.16247047864429       -0.07232043958550
C           -2.01318919913482       -0.19168181084502       -0.09914220066330
O           -3.16681140197521       -0.55732757306233       -0.18217113716758
N           -0.94254701077576       -1.14858362849093       -0.03434573654502
C           -1.24843688014045       -2.55725984439127        0.01149611595939
H            3.95857771272167        1.10303197651436        1.16201541717654
H            4.53885721634878        0.37132517185461       -0.34561343975416
H            3.61915495790430        1.89603584299424       -0.40565125541029
H            3.48771840564245       -1.80823975012962       -0.16767147037548
H           -2.13221798532075        3.12060518249849       -0.03337470619289
H           -3.27085862605184        2.14895926447062       -0.97441989220990
H           -3.35979294020826        2.12459987708403        0.75998256483279
H           -0.83208504192575       -3.00234113200484        0.92226597037304
H           -0.83433567586572       -3.06273601775525       -0.86485924969458
H           -2.33176191973906       -2.63605811262833        0.01202531322345
H            1.17182175233319       -2.80842745430686       -0.15246526300050
25
 energy: 36.946554200434 xtb: 6.6.1 (8d0f1dd)
C            3.73501023924556        0.86253226045183        0.12108881635222
N            2.43003926121562        0.17198620526252       -0.00926058936566
C            2.58367911530080       -1.23374360512008       -0.03200173249930
N            1.34872526539899       -1.80085591953091       -0.10173010205545
C            0.39658843974908       -0.83877978727747       -0.04453752441980
C            0.94669358387365        0.43447141763620        0.02536730684653
C           -0.07975235957550        1.50034827715621        0.12440894968433
O            0.14020977083806        2.68819301642736        0.29073079865931
N           -1.63557512927964        1.11853838785751       -0.03486592440642
C           -2.70981169057717        2.17744697282992       -0.07949638748174
C           -2.04528872529851       -0.18545530281572       -0.10909681277517
O           -3.18806092737018       -0.58780452657707       -0.21037253827276
N           -0.94490747383138       -1.12263065115061       -0.03518301840966
C           -1.20734542342673       -2.54281322271358        0.03159804629429
H            3.96523613582438        1.10132351200283        1.17970612778352
H            4.59210473704761        0.21969839653507       -0.25741127605549
H            3.77273497472302        1.80865371975774       -0.48128600760315
H            3.48070915530970       -1.79828808717164       -0.23026557193637
H           -2.21945901786125        3.14550369924638       -0.03766334456251
H           -3.34397316965140        2.17973241113703       -0.98312352662372
H           -3.44297365412291        2.15320293218554        0.74584971183010
H           -0.76806741225726       -2.96303118687212        0.94662238779905
H           -0.77967083605137       -3.05049803271759       -0.83879639329499
H           -2.28630253842310       -2.66343976431947        0.03891798194964
H            1.17167234713658       -2.78526252004779       -0.19216548128939
25
 energy: 49.665496994450 xtb: 6.6.1 (8d0f1dd)
C            3.78586983768837        0.79525567288027        0.13076876642686
N            2.46189752019970        0.16186769042887       -0.02404342293137
C            2.58340741356125       -1.20795617424454       -0.04821020770446
N            1.35570538233821       -1.77617311926706       -0.12779851508367
C            0.39936011426024       -0.81878047769824       -0.05972514556539
C            0.96398476916905        0.44826082918701        0.03177285507978
C           -0.08297540093841        1.50573565159878        0.13049964738531
O            0.09382713270238        2.69778231402353        0.38971804748411
N           -1.69201247814666        1.13027058252644       -0.05162489934752
C           -2.78420331043279        2.19742619705810       -0.09203468223273
C           -2.08223649548214       -0.17373219422723       -0.11631304672486
O           -3.20215635734004       -0.62517375671536       -0.23876248498365
N           -0.94505203503107       -1.09300385448477       -0.03337375732404
C           -1.16978856496815       -2.52020328228800        0.05541805609121
H            3.97566594105279        1.11636458326918        1.16820031747657
H            4.59746133175305        0.08015755211097       -0.13600196333478
H            3.93591686835102        1.65642818703446       -0.53878920169962
H            3.47379590757802       -1.76651950542186       -0.30127762710397
H           -2.31627083822607        3.17442830682885       -0.04817609303065
H           -3.42622081783836        2.21582992840270       -0.99529127070877
H           -3.52851587751878        2.18577615618508        0.72897154255391
H           -0.71036219893606       -2.91646486894829        0.96998969160385
H           -0.73322294657958       -3.03186897863672       -0.81006089612800
H           -2.23712869184325       -2.68244962690897        0.07293686360520
H            1.19546846256403       -2.76422921052113       -0.22975867765591
25
 energy: 63.953752919267 xtb: 6.6.1 (8d0f1dd)
C            3.83919072070490        0.75485454072499        0.14468365567465
N            2.48647194186987        0.16790636003501       -0.03306544761846
C            2.59081904823073       -1.20598071007826       -0.07388948432889
N            1.35706369300165       -1.76553461977212       -0.15477162916713
C            0.40648063728597       -0.80066690320747       -0.06939835008060
C            0.97293198990343        0.46926198475061        0.04515407940786
C           -0.07766989539742        1.51508238142643        0.16800329826523
O            0.09271696159847        2.68428169837504        0.42189519594036
N           -1.74555645934396        1.15185203483208       -0.05786149686892
C           -2.86870190967867        2.20485242261759       -0.10375934947494
C           -2.11002324879374       -0.15400923427007       -0.12425984562251
O           -3.21650059165130       -0.64463107343979       -0.24706725612119
N           -0.94345205770526       -1.06518540585657       -0.02957729522035
C           -1.14649673800331       -2.49293234354328        0.07098134839291
H            4.00298480389314        1.12961070194931        1.16540332031171
H            4.63688370814760       -0.04421231556683       -0.02481442337891
H            4.08638257180386        1.56803880683409       -0.59994115212577
H            3.47590489988602       -1.75981589598059       -0.35061517159757
H           -2.42874909565171        3.19580186989375       -0.05387294472358
H           -3.51292824051806        2.21509110196799       -1.00592592214019
H           -3.61726157873252        2.17728597062614        0.71330320633650
H           -0.66807648382949       -2.87637191615717        0.98235580259423
H           -0.70719438593113       -3.00479653017072       -0.79396270495362
H           -2.20812460421704       -2.67576798966850        0.10104613168782
H            1.21511898106481       -2.75498633414958       -0.26300966904124
25
 energy: 74.360298086203 xtb: 6.6.1 (8d0f1dd)
C            3.87474901725976        0.72564002114162        0.15449008015893
N            2.52417412425280        0.15880371124175       -0.05024371824883
C            2.60752934713623       -1.21282487117108       -0.10618149421335
N            1.36618709422583       -1.76521850618142       -0.18003461085504
C            0.41972476492025       -0.79820215710335       -0.08403417116688
C            0.99557801203014        0.47070693199810        0.04509341239372
C           -0.04544930600552        1.50999511601613        0.17728870031584
O            0.09816163923577        2.67629647703202        0.48818154659226
N           -1.79139212557635        1.16348641060642       -0.07936441254637
C           -2.93365071429111        2.21470783711931       -0.11802276816785
C           -2.13523677678144       -0.13627601886149       -0.13350706836868
O           -3.22498763722195       -0.66687874484473       -0.24850131361197
N           -0.93822663965691       -1.04365423782611       -0.02499069227246
C           -1.13824670197249       -2.46714313391826        0.08797459973402
H            4.02137001240891        1.17834638795139        1.14740178488394
H            4.63348649127355       -0.07983206039829        0.07548485629775
H            4.16554126177699        1.44370782468512       -0.61990418273332
H            3.48871121036189       -1.76195703837985       -0.38636423376058
H           -2.50529204931392        3.20795971126354       -0.06881125495557
H           -3.58563661945066        2.23085438446950       -1.01688562369120
H           -3.68280693069801        2.18581467641657        0.70008041230426
H           -0.64905515315635       -2.84567175933585        0.99423275478534
H           -0.70866939405712       -2.98535919229084       -0.77835985247894
H           -2.19420172623811       -2.65454621647095        0.13322348896442
H            1.24985346747472       -2.75972695098718       -0.28121234321199
25
 energy: 84.659516812826 xtb: 6.6.1 (8d0f1dd)
C            3.88419333986671        0.71817085573915        0.16283949091916
N            2.55837496515933        0.14717006583889       -0.06160759195363
C            2.63181759276125       -1.21773377223002       -0.13626195006877
N            1.39253720930388       -1.77384991133893       -0.20407980053249
C            0.43751144707980       -0.81200346361899       -0.09582789192301
C            1.02122377891079        0.45417326491221        0.04437025610942
C            0.01459532064409        1.49790673293852        0.18810426343025
O            0.14581642389130        2.64895292795402        0.53521509204745
N           -1.84005305390553        1.17781112644364       -0.09974742750649
C           -2.99699821179426        2.22938034976339       -0.12566649424915
C           -2.16365959338209       -0.11724456560062       -0.13444074403135
O           -3.23326012792714       -0.68263927843525       -0.23363826054477
N           -0.92732463014147       -1.03052111640907       -0.01977833160954
C           -1.14483155505029       -2.44713276290577        0.09425468302643
H            4.00145989904011        1.27026942434213        1.12163398501390
H            4.62187561474241       -0.12005427686484        0.21072116761990
H            4.23320236493993        1.33498448933902       -0.69015089795026
H            3.51927941322040       -1.75557620614442       -0.40442166918564
H           -2.57285297795145        3.22131596074837       -0.07806579639513
H           -3.65632867272830        2.25343505263530       -1.02070936056913
H           -3.73886561910033        2.19807905524554        0.69907689770680
H           -0.65459705726976       -2.83639932647455        0.99018396073357
H           -0.73964747366401       -2.97335710499363       -0.77893386009569
H           -2.19892691304161       -2.61956480997982        0.15805220318269
H            1.31767318433314       -2.77654410873218       -0.29408802702707
25
 energy: 97.266497185833 xtb: 6.6.1 (8d0f1dd)
C            3.89820022237403        0.73199963572229        0.16720691636914
N            2.60384674828895        0.13654527252127       -0.07136699876327
C            2.66983731852302       -1.24102537580780       -0.18309188978869
N            1.42643548708501       -1.79519042948991       -0.22750380750725
C            0.46378430942342       -0.83578103032992       -0.10046871095070
C            1.05859917540734        0.42704062719282        0.04663848637103
C            0.13079271487752        1.48262453414573        0.21202480891301
O            0.24916899167640        2.60569901095867        0.55875782026345
N           -1.92357107110184        1.20346876403094       -0.12665592372670
C           -3.09559918851580        2.24823366640914       -0.13697316444183
C           -2.21472877166261       -0.08397364642146       -0.13390967220937
O           -3.25687036794544       -0.69423470225489       -0.20269806291789
N           -0.90795085809399       -1.01395929272440       -0.00945381794728
C           -1.16084707598585       -2.42485151485176        0.09412616790854
H            4.01229246303788        1.36817932289426        1.05054850714468
H            4.59604351507972       -0.10879066853446        0.36801369379008
H            4.30519513338461        1.21824143073145       -0.73218529654221
H            3.57332303228905       -1.77176678768211       -0.39843366256504
H           -2.66247237928575        3.23188286724315       -0.09137500503426
H           -3.75597318188938        2.27454933871316       -1.02904258507580
H           -3.81946976992594        2.20627849542886        0.70051812359132
H           -0.67467240947175       -2.84036352808732        0.97646865651226
H           -0.78855524556880       -2.96376780231035       -0.78929191734117
H           -2.22279784435714       -2.56183270497698        0.17783126935424
H            1.40820372029430       -2.81017688034834       -0.29265003925882
25