25
 energy: 0.000000000000 xtb: 6.6.1 (8d0f1dd)
C            3.23720163006194        1.16630919979326        0.08434469647475
N            2.29877817382611        0.07527477071623        0.03981603040599
C            2.58028210190900       -1.21425402444508        0.03006176031096
N            1.43813958087363       -1.93419271955128        0.00098261760884
C            0.39035688448383       -1.05887472636071       -0.00790371836672
C            0.93510056364412        0.21347819449412        0.01709077491437
C            0.09450143893243        1.40504303904423       -0.00410947031874
O            0.49712751527797        2.54126714362870       -0.00342325688240
N           -1.25076640035757        1.06271879480407       -0.03085478223738
C           -2.21907211982101        2.15522099834493       -0.05001256985998
C           -1.81739487048744       -0.20012725993278       -0.04692818574614
O           -2.99983886758376       -0.37846417018721       -0.07008878229737
N           -0.92618586207120       -1.30210215599479       -0.03682761578324
C           -1.46982264913417       -2.64643102187190       -0.06029820460571
H            3.71247264356769        1.21471455160235        1.06488849150277
H            4.00791497605742        1.03430808813993       -0.67357694370751
H            2.69910007168542        2.09770118228144       -0.09130154882931
H            3.56654120610678       -1.63682992603973        0.04233140067262
H           -1.67107961066214        3.09322851271934       -0.02552706933167
H           -2.82428953597071        2.09428624779827       -0.95318082946668
H           -2.87644029173232        2.07745725625962        0.81450067533302
H           -1.17061996399332       -3.19584890659852        0.83242232437030
H           -1.14560257411436       -3.17511610292205       -0.95688275822323
H           -2.55549792440841       -2.55659984320617       -0.07459039797972
H            1.38130855184625       -2.94313852034425       -0.01389874181052
25
 energy: -5.388066711520 xtb: 6.6.1 (8d0f1dd)
C            3.24459875608526        1.17935815464806        0.08675324953154
N            2.30921655639948        0.09673199722190        0.03780765263235
C            2.60150344921986       -1.23117334281343        0.03016339478936
N            1.42981133135896       -1.93969526618484        0.00093727045364
C            0.39766443237524       -1.05676842419061       -0.00822888255267
C            0.93120183382535        0.22253769507589        0.01531423956123
C            0.10258986894048        1.39586135059795       -0.00522826295207
O            0.49884213302317        2.56189122633600       -0.00458801395101
N           -1.25917045042480        1.04990638633065       -0.03112156225447
C           -2.21973441053065        2.14569822108000       -0.04986339393979
C           -1.82215448907679       -0.20153971851667       -0.04734716705605
O           -3.01876065593436       -0.38389830606282       -0.07048440527878
N           -0.93339465635178       -1.30229004853552       -0.03707794544567
C           -1.47628669621056       -2.64347608235831       -0.06032928850457
H            3.72341416535609        1.22545185393047        1.06854744499300
H            4.01254816214828        1.04537946944760       -0.67654319009237
H            2.69751268146041        2.10391209899026       -0.08829868263493
H            3.58010809779433       -1.65664278234040        0.04287877725004
H           -1.65857191104418        3.07719770081851       -0.02533510239544
H           -2.82504570026755        2.09196086391007       -0.95429257798188
H           -2.87725564501833        2.07526469495245        0.81600343696112
H           -1.17700875487363       -3.19690076004401        0.83174045925136
H           -1.15189925546432       -3.17637851741115       -0.95622948706906
H           -2.56132261276737       -2.54996988192898       -0.07470897000336
H            1.36380843791363       -2.94338998078106       -0.01343509716424
25
 energy: -6.511405560538 xtb: 6.6.1 (8d0f1dd)
C            3.25423061261974        1.19244182801158        0.08982100694869
N            2.32053912811885        0.11139622439380        0.03423152776349
C            2.61732417348109       -1.24395425013570        0.03049215504947
N            1.42168642923168       -1.93775358464027        0.00151855131040
C            0.40420102898644       -1.05363189572608       -0.00905033457761
C            0.93057182370403        0.23059612907918        0.01222579553933
C            0.11071026318935        1.38227795554756       -0.00803972577846
O            0.48646117421101        2.56569012996383       -0.00818847677829
N           -1.26784712109654        1.03447958881551       -0.03206835119886
C           -2.21854429528764        2.13326635293496       -0.04965016290511
C           -1.82329534016418       -0.20627539660305       -0.04805874063336
O           -3.02484324742074       -0.39467558602084       -0.07079352665430
N           -0.93801941496506       -1.30202558588302       -0.03753749022946
C           -1.48688427826684       -2.63846102653203       -0.06034518669416
H            3.74350987694732        1.24376749986254        1.06891720395986
H            4.02076459652490        1.07213861564236       -0.67964556506760
H            2.69894127770993        2.11390704478835       -0.07804369307882
H            3.58937803650912       -1.67707075384412        0.04421419505283
H           -1.63594837597479        3.05233057118986       -0.02504901785132
H           -2.82481034867496        2.08803731833478       -0.95460233641376
H           -2.87621961669868        2.07135136307586        0.81746641616743
H           -1.19429855040941       -3.19821807171908        0.83119146502650
H           -1.16885548971766       -3.17831404305720       -0.95559553715023
H           -2.57140611392641       -2.53315534733450       -0.07490043274654
H            1.34486843930568       -2.93911647797227       -0.01147584291283
25
 energy: -6.165481104497 xtb: 6.6.1 (8d0f1dd)
C            3.26192099008195        1.20561078830967        0.09284216871273
N            2.33223797121090        0.11772495171035        0.03046696395404
C            2.62777995684689       -1.25073736248906        0.03067014728865
N            1.42172473000904       -1.93483725012033        0.00295679716244
C            0.41051586326390       -1.05375349150918       -0.01023338565036
C            0.93551534326783        0.23361462225996        0.00853778880857
C            0.11590802704128        1.37305093033020       -0.01303598737360
O            0.46927217803110        2.56417122026576       -0.01518212429321
N           -1.27239010746433        1.02065297302058       -0.03429115656172
C           -2.21477724100539        2.12110855997441       -0.04960901527466
C           -1.82168226570870       -0.21557144295011       -0.04930350329188
O           -3.02358084490040       -0.41046097695592       -0.07117399687270
N           -0.93635616097948       -1.30535912897927       -0.03826505963125
C           -1.50190404111195       -2.63427900264480       -0.06021064492298
H            3.76644763690147        1.26067874950360        1.06566587574992
H            4.02574695337453        1.11232855855718       -0.68513105006787
H            2.69824396510521        2.12639307226331       -0.05799983235202
H            3.59545676483597       -1.69326074133946        0.04631953966964
H           -1.61107926994494        3.02681182127228       -0.02515673729267
H           -2.82259931372659        2.08283933855416       -0.95396887542387
H           -2.87122137345545        2.06565105419534        0.81904473250108
H           -1.22472057706599       -3.20088692715205        0.83208688177126
H           -1.19852383463782       -3.18240886375363       -0.95571290668119
H           -2.58533709020749       -2.50435459467535       -0.07504709972093
H            1.33561640817465       -2.93569825547565       -0.00723562406014
25
 energy: 0.662057185350 xtb: 6.6.1 (8d0f1dd)
C            3.28500371745099        1.25770683329517        0.10501342265428
N            2.37772274467243        0.13622098448510        0.01592311431404
C            2.66730578698070       -1.26935259504127        0.03081226651780
N            1.43491600938825       -1.92591882520646        0.00969999638411
C            0.43669422656574       -1.05956115831632       -0.01522892042440
C            0.95991671831188        0.23872548375542       -0.00676029593459
C            0.13610930660183        1.34194883619867       -0.03589209520086
O            0.40944403344429        2.55500704549535       -0.04748049881148
N           -1.28166671316675        0.96973534837477       -0.04526873080472
C           -2.19629572062194        2.07565555862171       -0.04994360431841
C           -1.81067121164623       -0.25422557558913       -0.05518763426840
O           -3.01225970771147       -0.47066049273698       -0.07284253358014
N           -0.92280605245252       -1.32419950881911       -0.04155748268529
C           -1.56640691726667       -2.62048302357541       -0.05922711348120
H            3.85410836275968        1.31470625713965        1.04976803138714
H            4.03096758746481        1.28153525785021       -0.71340183876737
H            2.68294907100230        2.17464091750796        0.03579709404167
H            3.62016326264191       -1.74571947225288        0.05583951502459
H           -1.52136355577742        2.93492746722277       -0.02689002865137
H           -2.81153347437335        2.06122495262545       -0.95031105916123
H           -2.84563526142962        2.04098338711324        0.82554346144569
H           -1.35929667968260       -3.21474177819803        0.83739406085478
H           -1.32945043016945       -3.20349091800865       -0.95609364599142
H           -2.64394941231788       -2.37993256880613       -0.07544479429886
H            1.31824897726724       -2.92570381096308        0.01277320990292
25
 energy: 18.832202734899 xtb: 6.6.1 (8d0f1dd)
C            3.30601449438689        1.31651812494963        0.11956478862255
N            2.42724215206423        0.15391234390830       -0.00155496043932
C            2.70835622148254       -1.28837479718009        0.03089685312387
N            1.45226309242718       -1.91638071199912        0.01833982004619
C            0.46357613740846       -1.06790100586244       -0.02157054561070
C            0.98770069560559        0.24192259922797       -0.02576215211576
C            0.15909620036457        1.30998823242132       -0.06485389348266
O            0.34422559202966        2.54202624154130       -0.08805866742539
N           -1.29088491600123        0.91549401173149       -0.05967639389759
C           -2.17223900173344        2.03070347459880       -0.05032721840743
C           -1.79906100134588       -0.29722888927503       -0.06275576941402
O           -2.99998912632998       -0.53262871869903       -0.07489247212140
N           -0.90751188094574       -1.34927263315414       -0.04583217509034
C           -1.63613032976323       -2.61120381307126       -0.05774012659437
H            3.95382077433700        1.36711526499798        1.02830079391590
H            4.02422199890720        1.48016376875792       -0.74852859623774
H            2.65919721176450        2.22806019102203        0.15370540810533
H            3.64437952311034       -1.80374504264082        0.06770658296559
H           -1.41904317721449        2.83707094437715       -0.02966470363078
H           -2.79701350369691        2.04536751936532       -0.94490606223497
H           -2.81172269354442        2.02076716570540        0.83380591106972
H           -1.50789076342485       -3.23296874084945        0.84372701895584
H           -1.47321884416449       -3.23147117813812       -0.95479255862304
H           -2.70501908647562       -2.25358286421456       -0.07614357600171
H            1.30184489868820       -2.91532288534850        0.03804659066948
25
 energy: 18.280944886397 xtb: 6.6.1 (8d0f1dd)
C            3.30201349502043        1.32688756526013        0.12376584512315
N            2.43274520167359        0.14979414763037       -0.00708408652940
C            2.70526262125770       -1.28877999311320        0.03268057589907
N            1.45754143927513       -1.91400903491347        0.02272409799483
C            0.45926478191891       -1.07162786796596       -0.02511449620402
C            0.99347122000611        0.23803560638343       -0.03414155345000
C            0.16628530470444        1.31350399094807       -0.07812889383977
O            0.34110158924724        2.53238519118313       -0.10486300192618
N           -1.29099537791928        0.91612099631101       -0.06657485158943
C           -2.16443667530473        2.03658855877078       -0.04837152312093
C           -1.80112265707572       -0.29985182561178       -0.06613162516816
O           -3.00174720498179       -0.52048982050643       -0.07511796157276
N           -0.90889467782026       -1.36083373155170       -0.04849378120364
C           -1.63941031733348       -2.62558245688158       -0.05764638288384
H            3.97203247850888        1.36778439750411        1.01624410470949
H            4.00294874114733        1.52216921217015       -0.75114951151609
H            2.65391826062901        2.23540480303999        0.18835206111226
H            3.63700642608046       -1.81581611159513        0.07240244452638
H           -1.40708987848534        2.83302086277113       -0.02896063364061
H           -2.79257118999872        2.05973321979056       -0.93901886418093
H           -2.79736913370499        2.02983364179052        0.83904832264314
H           -1.52078690457393       -3.24023701772232        0.84382526449953
H           -1.48507716675923       -3.24281296470639       -0.95198358086122
H           -2.70238606546759       -2.27859186468708       -0.07716917608522
H            1.30051035789191       -2.91360090212628        0.04794110341159
25
 energy: 18.552789834839 xtb: 6.6.1 (8d0f1dd)
C            3.28283659154691        1.36061523238053        0.13947562396178
N            2.44846042317587        0.14122340100611       -0.02203185394007
C            2.70360547660568       -1.27653392159605        0.04139198307789
N            1.48839356753887       -1.91140893186023        0.04149740271528
C            0.45132847626875       -1.08716576621509       -0.03846186258584
C            1.01342932021281        0.22048555686475       -0.06391804004949
C            0.20309430699676        1.32475617228890       -0.12958736024933
O            0.37318264746669        2.50999875626263       -0.17955918401418
N           -1.27250607875512        0.91489433323635       -0.09512198489558
C           -2.14066187647002        2.04480305147367       -0.03875048854542
C           -1.79714567876734       -0.30875980179514       -0.07943524901285
O           -2.99980975527078       -0.48682111099520       -0.07449025210802
N           -0.90800319492661       -1.39850397344764       -0.06026636102081
C           -1.66327476270499       -2.66252056971917       -0.05908597143287
H            4.02170846601853        1.35404285367563        0.97230947791570
H            3.90429234724881        1.64401528026382       -0.75616729099375
H            2.62671313467606        2.24251778999332        0.31134912421734
H            3.62401840147233       -1.82586238378288        0.08925147377537
H           -1.40854591850259        2.83375429070113       -0.02262030154725
H           -2.78245488389314        2.09216676320881       -0.91480362676896
H           -2.74642378340547        2.03304396376471        0.86347973107590
H           -1.58430424314118       -3.26099555869635        0.84504962601801
H           -1.54547696424559       -3.28031400275776       -0.94558632194659
H           -2.70759414910150       -2.31838917010426       -0.08236838414896
H            1.32735279789222       -2.91001365197852        0.08548398664994
25
 energy: 23.515015165885 xtb: 6.6.1 (8d0f1dd)
C            3.25663800848730        1.39751792479103        0.15983514838441
N            2.46451543417301        0.13711996116938       -0.03664699775358
C            2.71320745225555       -1.24962032536022        0.05523386357940
N            1.53412973425073       -1.91318155306155        0.06590842952375
C            0.45093341091973       -1.11051442719022       -0.05290123208546
C            1.03575258972951        0.19617305894380       -0.09931086020625
C            0.24528091732703        1.33333036284205       -0.19399274860649
O            0.42081818967511        2.50158392350104       -0.29013246928137
N           -1.23748564276107        0.90620595146562       -0.13239028114579
C           -2.11071201851382        2.04007271498241       -0.02568867562500
C           -1.78277923267641       -0.31956431929498       -0.09584265341166
O           -2.99106620847200       -0.44688726569594       -0.07204455082210
N           -0.90212106902038       -1.44392496542497       -0.07538704870297
C           -1.70664632054263       -2.69527111377669       -0.06262259777503
H            4.07558114782739        1.32413208680734        0.91499919097165
H            3.76461407711847        1.78423014247902       -0.76540709091733
H            2.58561242699863        2.23397450328663        0.47243227451036
H            3.62775736794612       -1.80752472079434        0.11159508963792
H           -1.40914665640969        2.83722957139694       -0.01267665440061
H           -2.77325499947853        2.10985026725049       -0.88265249788156
H           -2.68263689230076        2.00720761183882        0.89693649944159
H           -1.68419768820900       -3.28152938536149        0.84715990203819
H           -1.64074157881093       -3.32298480770387       -0.94092843793278
H           -2.72934671096973       -2.31838547210396       -0.09144370654793
H            1.38750892939223       -2.91021112281426        0.13300200115586
25
 energy: 24.711417964812 xtb: 6.6.1 (8d0f1dd)
C            3.21843551365233        1.41580961313872        0.17747316776821
N            2.46212588176549        0.13808177303862       -0.04511263320999
C            2.72610152972099       -1.18990847074837        0.07610421908289
N            1.59266408012291       -1.92586599428209        0.08796327722489
C            0.45572830770147       -1.13807372466562       -0.06351680750547
C            1.04901788868920        0.16416213058380       -0.13276713201663
C            0.26940714164438        1.34171015774498       -0.24752517422607
O            0.50772150213823        2.51457709010715       -0.42040107672169
N           -1.17636016462107        0.90089179981359       -0.16627782512246
C           -2.08279263575249        2.02630383456121       -0.00964614044370
C           -1.75723015410029       -0.32348349437774       -0.10893616801249
O           -2.97406097629682       -0.39770169780862       -0.06577201303617
N           -0.88989830961997       -1.48780327616109       -0.08991868816337
C           -1.75603745849616       -2.71507594996777       -0.06954538747552
H            4.08340063205422        1.27149235862436        0.84304678483207
H            3.58565529914371        1.86214885752994       -0.74758212939413
H            2.55630804917818        2.17494700176693        0.61358636443383
H            3.65130106120092       -1.72270674485407        0.13297757997537
H           -1.43771345151175        2.87434281213520        0.00047165623374
H           -2.76825289383585        2.10114471581185       -0.84629030123781
H           -2.62267911479394        1.94698973265227        0.93279293966126
H           -1.78660923980894       -3.29194175392263        0.84647806592029
H           -1.73919134141905       -3.35534242335694       -0.94057194558295
H           -2.75601767325898       -2.27543187754200       -0.10507826188031
H            1.50119119443906       -2.92023786764958        0.17508152504347
25
 energy: 35.228545552606 xtb: 6.6.1 (8d0f1dd)
C            3.19039998879695        1.43979249798697        0.19610937165684
N            2.46899835826683        0.14534264977261       -0.06010885037683
C            2.75048047564697       -1.15477231098409        0.10161951264646
N            1.63964419797988       -1.93557618107347        0.10577273934984
C            0.47160288407161       -1.16181727867105       -0.07290152907004
C            1.05978736674373        0.14172957828528       -0.17283016653119
C            0.28044068755505        1.32846513652165       -0.30473187875587
O            0.56240055702888        2.49656067501908       -0.52278085205386
N           -1.13182612844540        0.88742770247774       -0.19804038988443
C           -2.05010802278738        2.00675129750175       -0.00126909600311
C           -1.72832965629637       -0.33252029716476       -0.12497560050488
O           -2.94777922438327       -0.37712889983196       -0.06428928704616
N           -0.87579019493727       -1.52450003599178       -0.10272450724750
C           -1.81651853480979       -2.72015980740831       -0.07271516432311
H            4.14101410974620        1.22910498769464        0.76453178209729
H            3.41718031495585        2.01953893289155       -0.77320147854284
H            2.51146418440732        2.13467206514958        0.80440134858860
H            3.68557239468206       -1.67394385051457        0.16202102643687
H           -1.42356726032093        2.87957021650745        0.00530010498154
H           -2.76064044485880        2.08473263808112       -0.81743212259284
H           -2.56214394556469        1.89662563062113        0.95676172985593
H           -1.90872447698035       -3.29841095997655        0.84793298072121
H           -1.85583564714638       -3.38526755253098       -0.93420929198667
H           -2.79223189571838       -2.20755208128868       -0.11568205944860
H            1.58672458030332       -2.92963615090226        0.22047557418060
25
 energy: 34.752199400298 xtb: 6.6.1 (8d0f1dd)
C            3.15430533430110        1.40938748460512        0.19804440649612
N            2.42670206400686        0.17851368700184       -0.07055606709902
C            2.78088111332774       -1.11528951912840        0.14837742039730
N            1.65280337165464       -1.95998603372865        0.09378970631614
C            0.51113715429219       -1.16985731846400       -0.07171028035886
C            1.02190438463337        0.13660474781916       -0.21869999936202
C            0.19269293980836        1.27597876738661       -0.33773482044685
O            0.62873994492199        2.46417507078441       -0.54540107518329
N           -1.08081025493026        0.88984417326990       -0.20269590062165
C           -2.02803788510638        1.98394842734116        0.00553693194830
C           -1.68035453345346       -0.31746015748003       -0.13448117465064
O           -2.89223486201307       -0.40297613034526       -0.05928787050777
N           -0.85785173793100       -1.51089024465957       -0.10949716425341
C           -1.86378359816982       -2.66338477608630       -0.07617726839878
H            4.09415039179821        1.20358997697891        0.69637945104693
H            3.30070216583557        2.03023366048843       -0.74752669999785
H            2.51206004963668        2.03174149488775        0.86285233416633
H            3.76064182846435       -1.56589603766655        0.18500699978855
H           -1.41159461042257        2.92193361907707        0.01411762398895
H           -2.76972736092814        2.02670406307955       -0.79354541015494
H           -2.53218442340380        1.83344117032962        0.96476647532968
H           -1.96346086379796       -3.27374659026041        0.83992007252605
H           -1.91304145264963       -3.37231054756462       -0.92831132929632
H           -2.82397509317253       -2.08994162469446       -0.12341712992150
H            1.69255060123320       -2.95532876079918        0.23728466439577
25
 energy: 37.741466977433 xtb: 6.6.1 (8d0f1dd)
C            3.10960662169078        1.45533786347172        0.21772446330492
N            2.43597844076508        0.17889239010131       -0.09453692071436
C            2.79877602705240       -1.11696788211560        0.17483038759325
N            1.68370414177077       -1.95301999844814        0.11292465478352
C            0.52209785663172       -1.19804846605140       -0.09366678027603
C            1.03821286767996        0.11436741860915       -0.26995942976674
C            0.23678809211802        1.26389866325069       -0.43971319418229
O            0.63052685104774        2.43003702918084       -0.64016551540588
N           -1.07504176259768        0.88117905996845       -0.23231804219990
C           -1.99861696753946        1.98049160319466        0.02948669391988
C           -1.66513184123864       -0.32851401656139       -0.14865597115795
O           -2.88139131307663       -0.37679274285399       -0.04579154697131
N           -0.85763263124448       -1.54008461290885       -0.13170255728432
C           -1.90985451204509       -2.67750696975329       -0.08465881361920
H            4.13101153826089        1.22123504833758        0.64363752897295
H            3.20734794170793        2.11908448586078       -0.69365078070948
H            2.49985625848260        2.05465934334001        0.95683859412710
H            3.77760360799545       -1.55672797457708        0.20986828781618
H           -1.38097825832070        2.88835270642462        0.03331333787618
H           -2.76520444079142        2.03813395697229       -0.74561088435566
H           -2.46139125012773        1.81274770416421        1.01044123536200
H           -2.05067359885892       -3.27428316261448        0.83486288425925
H           -1.99661188898037       -3.38971873009356       -0.92705114484494
H           -2.85081123670719       -2.09053912117994       -0.13611721137993
H            1.73404412426054       -2.94718499354644        0.28670462100001
25
 energy: 37.417255869979 xtb: 6.6.1 (8d0f1dd)
C            3.05745533683344        1.46101206135453        0.23678179068108
N            2.42577037060834        0.17139240251663       -0.12077460843852
C            2.80620719710022       -1.12116584607777        0.21558567586640
N            1.69789156938087       -1.94781779461318        0.13309761987370
C            0.53455905871080       -1.23028971252802       -0.11620782575291
C            1.04228174448082        0.08246997744430       -0.32336807471129
C            0.26390030292567        1.23802965789106       -0.54855963915770
O            0.63549667820254        2.38372770900597       -0.75606269889455
N           -1.06987067966536        0.88726477062621       -0.25396312606879
C           -1.96483347633860        1.98750172165799        0.06088551807275
C           -1.64698072040961       -0.32732522818719       -0.15440908594964
O           -2.86527104676102       -0.34156754637181       -0.02073509645233
N           -0.86548916452156       -1.54948910877733       -0.15671591836502
C           -1.93712533777762       -2.67640707244097       -0.09957493730857
H            4.08462111785707        1.24710159151926        0.59976128954954
H            3.10924250933392        2.16134009579507       -0.63227541679093
H            2.48772223793330        2.02247002349884        1.02722951467602
H            3.80082527627049       -1.51495016006279        0.22818688430283
H           -1.35366166162937        2.87364925030226        0.05844519001577
H           -2.76227595408402        2.04590663267789       -0.68101392830503
H           -2.38539443265853        1.79439775098543        1.05615755344745
H           -2.08012583530222       -3.24493574338072        0.82258018175169
H           -2.02373298047784       -3.37408371532114       -0.93027693879072
H           -2.86120541980990       -2.10298679052020       -0.15671957459403
H            1.78220797773365       -2.93621632482219        0.33897954748998
25
 energy: 37.942505393372 xtb: 6.6.1 (8d0f1dd)
C            2.99517918179313        1.45131104877911        0.26276284722228
N            2.40300102641142        0.16619468167133       -0.13795655813256
C            2.80360718957625       -1.11229505766593        0.27072631245491
N            1.70506067304566       -1.94801144381263        0.16427070161632
C            0.54776055108168       -1.26116823257220       -0.13757463673549
C            1.03575808852363        0.04733951070087       -0.37378246937011
C            0.26458130508958        1.20303214566000       -0.63931429577265
O            0.64281609347839        2.33463704993624       -0.91225221767858
N           -1.06163596143883        0.89403217334241       -0.27863797220790
C           -1.92819907116527        1.99347994786881        0.09303971220415
C           -1.62938290158220       -0.32801866880659       -0.15718325002630
O           -2.84428315953358       -0.32398554306880        0.00924492044944
N           -0.86988199072446       -1.55064060101747       -0.18388525641682
C           -1.94316530795233       -2.66564702381103       -0.12213247440434
H            4.06542220792871        1.25126732478661        0.53078530702854
H            2.95658724952118        2.19207629703751       -0.57512720148927
H            2.46866520301430        1.95013537074077        1.12357614934530
H            3.82469864620844       -1.44774312252287        0.24216361135719
H           -1.31902475445292        2.87462820691940        0.08161851231443
H           -2.76451435485279        2.05427861044381       -0.60670702195813
H           -2.30452278131831        1.77539090902457        1.09961620141811
H           -2.09090919691098       -3.20532225577975        0.81135308817753
H           -2.02815981967194       -3.35998452363409       -0.94466057384117
H           -2.85454196748304       -2.06951252058208       -0.19222348649778
H            1.83729851934973       -2.92644568146584        0.39931394709006
25