25
 energy: 0.000000000000 xtb: 6.6.1 (8d0f1dd)
C            3.23720132972391        1.16630909158653        0.08434468864950
N            2.29877796055224        0.07527476373246        0.03981602671198
C            2.58028186251803       -1.21425391179017        0.03006175752192
N            1.43813944744728       -1.93419254010258        0.00098261751768
C            0.39035684826767       -1.05887462812143       -0.00790371763344
C            0.93510047688824        0.21347817468824        0.01709077332874
C            0.09450143016486        1.40504290868848       -0.00410946993748
O            0.49712746915594        2.54126690785742       -0.00342325656480
N           -1.25076628431515        1.06271869620815       -0.03085477937476
C           -2.21907191394203        2.15522079838987       -0.05001256521996
C           -1.81739470187490       -0.20012724136556       -0.04692818139228
O           -2.99983858926755       -0.37846413507442       -0.07008877579474
N           -0.92618577614240       -1.30210203518959       -0.03682761236648
C           -1.46982251276835       -2.64643077634382       -0.06029819901142
H            3.71247229913541        1.21471443890471        1.06488839270555
H            4.00791460421487        1.03430799217987       -0.67357688121503
H            2.69909982127087        2.09770098766290       -0.09130154035862
H            3.56654087521359       -1.63682977417947        0.04233139674524
H           -1.67107945562430        3.09322822573871       -0.02552706696334
H           -2.82428927394145        2.09428605349656       -0.95318074103337
H           -2.87644002486466        2.07745706351925        0.81450059976605
H           -1.17061985538665       -3.19584861009707        0.83242224714061
H           -1.14560246782873       -3.17511580834413       -0.95688266944647
H           -2.55549768731684       -2.55659960601237       -0.07459039105944
H            1.38130842369251       -2.94313824728853       -0.01389874052104
25
 energy: -5.260769430273 xtb: 6.6.1 (8d0f1dd)
C            3.24743871959680        1.18689597711637        0.08681641091485
N            2.31398543840159        0.10148610549064        0.03804553794498
C            2.60960750619064       -1.22537702578678        0.03046284426298
N            1.43972498691732       -1.93777394998262        0.00123476385225
C            0.40303665844467       -1.05979538913867       -0.00810581445246
C            0.93523381214683        0.22204159742871        0.01549342412283
C            0.10629278437131        1.39487353033712       -0.00508374796768
O            0.50094716921235        2.56157980065752       -0.00440287873448
N           -1.25436531560393        1.04657972999733       -0.03104252408287
C           -2.21673687169995        2.14067368703486       -0.04987570098533
C           -1.81594606694868       -0.20555216647685       -0.04724457351880
O           -3.01238266227284       -0.38789494136969       -0.07038144738830
N           -0.93007531492933       -1.30845142411096       -0.03709307058929
C           -1.49504095086709       -2.64578702891105       -0.06082426401258
H            3.72735567527947        1.23459307133014        1.06811053087387
H            4.01600828548873        1.05562640589208       -0.67650427308622
H            2.69929867971340        2.11096400514851       -0.08773977736158
H            3.58994250962009       -1.64708003154652        0.04328517216229
H           -1.65786068720290        3.07351501470189       -0.02545177641578
H           -2.82182486691118        2.08524902492535       -0.95430759215038
H           -2.87397880384246        2.06861162368427        0.81602059255918
H           -1.21089659772437       -3.20859145315082        0.83062270632077
H           -1.18570847628163       -3.18778966495932       -0.95690118878013
H           -2.57977238766517       -2.53817579568063       -0.07506827872257
H            1.37793108153882       -2.94139191388685       -0.01303116257097
25
 energy: -5.704245768383 xtb: 6.6.1 (8d0f1dd)
C            3.25858989190852        1.21225160712199        0.08934352978091
N            2.33111871472590        0.12558615054350        0.03482946294962
C            2.64094243710509       -1.22783590269314        0.03164144790032
N            1.45133667536515       -1.93432320578510        0.00244280376738
C            0.42013321592545       -1.06547487361234       -0.00838182147404
C            0.93876289187274        0.22704962992495        0.01317290216556
C            0.12229311022392        1.37683417083867       -0.00674186544776
O            0.49533446002152        2.56299143930026       -0.00652210113118
N           -1.25439115985611        1.02521715866930       -0.03147384418144
C           -2.21003347928141        2.11996628256758       -0.04973346064702
C           -1.80377107310253       -0.21697982416766       -0.04755233373316
O           -3.00623235129784       -0.40340576793439       -0.07054879076777
N           -0.92796185962106       -1.32134745398803       -0.03740287537030
C           -1.53820773283695       -2.64397599061932       -0.06177717126334
H            3.74890529139711        1.26641938935773        1.06790151412835
H            4.02719928338375        1.09609088833569       -0.67925292890168
H            2.70113875925971        2.13206973670620       -0.07890934141285
H            3.61832218345085       -1.64498181301884        0.04522934025697
H           -1.63805101941667        3.04566961354424       -0.02545128429404
H           -2.81551097228604        2.06878204229010       -0.95466493056073
H           -2.86716904686771        2.05235699123132        0.81709141485875
H           -1.28851482425016       -3.22885708484521        0.82844915987398
H           -1.26286771008990       -3.20776556547350       -0.95818358550851
H           -2.62080055965190       -2.49168649869436       -0.07582576782148
H            1.39164917889100       -2.93562233085557       -0.01064556097201
25
 energy: -3.254526982846 xtb: 6.6.1 (8d0f1dd)
C            3.26693717466949        1.24210946546863        0.09126916354009
N            2.35045409849706        0.14480065689715        0.03121885550455
C            2.67481100679362       -1.22252979721257        0.03352907400960
N            1.47898746101273       -1.93062257863160        0.00473233243195
C            0.44156793618426       -1.07992857016112       -0.00854430841746
C            0.94816061774599        0.22463599544808        0.01085064700462
C            0.14049556312448        1.36019557495564       -0.00881355799492
O            0.48913694081525        2.55737943056158       -0.00937174531446
N           -1.24795876306012        1.00351961098374       -0.03222549683038
C           -2.19984500863755        2.09562650575327       -0.04976939119472
C           -1.78400350497805       -0.23404890156009       -0.04790655982649
O           -2.98962501423299       -0.42159336791869       -0.07079217712965
N           -0.91822418132901       -1.34342291442828       -0.03767892870774
C           -1.59778560850267       -2.64270872244157       -0.06308651842039
H            3.76987276716985        1.30399604964079        1.06492942870513
H            4.03558890321790        1.15168229504817       -0.68339147255489
H            2.69893169798914        2.15890896294398       -0.06531214548442
H            3.65457416595249       -1.62990555779230        0.04783500734599
H           -1.61831578374278        3.01535465628208       -0.02580758644576
H           -2.80542732231852        2.04472986173717       -0.95465453624041
H           -2.85593474423468        2.02845778404184        0.81787570082900
H           -1.40107909315797       -3.25445033916185        0.82617625468259
H           -1.37464097346430       -3.23286600066809       -0.96074978670956
H           -2.67520449372957       -2.41796335001029       -0.07673750164041
H            1.43074046318839       -2.93232796103166       -0.00654083894729
25
 energy: 2.694363328261 xtb: 6.6.1 (8d0f1dd)
C            3.27137937992652        1.28284769013583        0.09322779828038
N            2.37267587403526        0.16634285615609        0.02608539527300
C            2.71591812601776       -1.20850051757104        0.03660899379350
N            1.52341593263679       -1.92496991576999        0.00861829250944
C            0.46658821517464       -1.10530172239699       -0.00869122547504
C            0.96029261757747        0.21545502287015        0.00772747185561
C            0.16284367938025        1.34218039893769       -0.01164766092011
O            0.47987751043897        2.54658725495754       -0.01302166570746
N           -1.23674993419841        0.97721374513185       -0.03339907071136
C           -2.17963766709946        2.07033149701197       -0.05000160718916
C           -1.75794111370523       -0.25867178477998       -0.04839454301851
O           -2.96769637742069       -0.43673696193424       -0.07110916450121
N           -0.90614713317582       -1.38323359080217       -0.03800153534194
C           -1.68065227350703       -2.65201939657544       -0.06496187109833
H            3.79206583998167        1.35123180003402        1.05898999899825
H            4.03771938769100        1.23063530067835       -0.69104837765910
H            2.68942394738012        2.19648833224664       -0.04336200437615
H            3.70288875854066       -1.59846466107040        0.05120890627445
H           -1.58079300805386        2.97916652126828       -0.02727777440770
H           -2.78583500450778        2.02413884126632       -0.95443005288426
H           -2.83387271487531        2.00921679777355        0.81921039887880
H           -1.55776946812905       -3.29456953863662        0.82128100198107
H           -1.52911868715412       -3.27267624012015       -0.96206453903803
H           -2.74596220558391       -2.33869573043164       -0.07873071998024
H            1.49930062360202       -2.92896720963560        0.00021746665863
25
 energy: 11.605657546322 xtb: 6.6.1 (8d0f1dd)
C            3.26952807739936        1.32562738185058        0.09473056509137
N            2.39250752615382        0.18472069259762        0.02083202498263
C            2.75436925290620       -1.18519369368269        0.04071631158848
N            1.57744939235020       -1.91737567954930        0.01357056822596
C            0.48768443912911       -1.13724476658775       -0.00895952852951
C            0.97316129606743        0.19965567858182        0.00443629370879
C            0.18664872883322        1.32798319882120       -0.01453075381291
O            0.47569021615607        2.53157897023489       -0.01618393341244
N           -1.21932297203003        0.95261471820308       -0.03483120462522
C           -2.15197647869741        2.04928706067182       -0.05050704513246
C           -1.73132584954476       -0.28451032964676       -0.04897570474414
O           -2.94593566945558       -0.43577437192398       -0.07140315198911
N           -0.89770295020618       -1.43542105215951       -0.03845873140897
C           -1.77253337317472       -2.67363377067429       -0.06716330057131
H            3.80947204437678        1.39645403985405        1.05070586604350
H            4.02940370056833        1.31583171803829       -0.70129417383497
H            2.67254716698346        2.23562966849271       -0.01678787680324
H            3.75303571420417       -1.55169961369729        0.05446917875185
H           -1.53567211738891        2.94665257439555       -0.02994593223340
H           -2.75908091516638        2.00986559290736       -0.95398738244929
H           -2.80351146398104        1.99744864100021        0.82072948693649
H           -1.72831431385058       -3.33829646624279        0.81391845676405
H           -1.69656902216185       -3.31675551834051       -0.96120816902520
H           -2.81711731375159       -2.28356456963416       -0.08144730332773
H            1.58977918925336       -2.92485131476617        0.00860935200133
25
 energy: 21.895783299663 xtb: 6.6.1 (8d0f1dd)
C            3.26354643552455        1.36036493201736        0.09512630375357
N            2.40864032796743        0.19439812172734        0.01797022929351
C            2.78295388752604       -1.15093494744911        0.04611163008269
N            1.63638595662325       -1.90773883143235        0.01884970945047
C            0.50274061950341       -1.16900614835166       -0.00949567683875
C            0.98945290227568        0.17944337033294        0.00189702508009
C            0.21123694852743        1.32304195840722       -0.01647335468749
O            0.48963240639991        2.51568821853791       -0.01719349864492
N           -1.19017456007265        0.93514302865196       -0.03625429912039
C           -2.12459758212585        2.02957767125547       -0.05131407280363
C           -1.70540443622607       -0.30665043470586       -0.04958488079785
O           -2.92347639898325       -0.41559915785960       -0.07151329747289
N           -0.89328541754987       -1.48977308153970       -0.03922673990250
C           -1.86430889847762       -2.70067819043012       -0.06963513971365
H            3.81851903493707        1.42809728599920        1.04132312065584
H            4.01104544627583        1.38518230176232       -0.71187125203920
H            2.65247433182385        2.26450652516961        0.00757518336245
H            3.79647316675335       -1.49064867751904        0.05703957957042
H           -1.51115882002261        2.92676492072646       -0.03322272265018
H           -2.73216160717128        1.98859322165195       -0.95329033639264
H           -2.77261612556908        1.97854624573119        0.82141691183549
H           -1.89195474339177       -3.37004897709446        0.80473966014328
H           -1.85809075638160       -3.34968781654093       -0.95907827100475
H           -2.87910816314278       -2.25178622797114       -0.08381811445797
H            1.69545034994908       -2.91776652233298        0.01695621549354
25
 energy: 33.281513413667 xtb: 6.6.1 (8d0f1dd)
C            3.26335072398998        1.38484218165325        0.09461954955077
N            2.42554272044024        0.20344123001423        0.01929750993262
C            2.80954226132282       -1.11747846873519        0.05182693565939
N            1.68772547630234       -1.90139458770006        0.02288918389321
C            0.52211536431210       -1.18880002811470       -0.00980836828549
C            1.00903034292527        0.16702629300365        0.00089022291321
C            0.23361705458373        1.31858944568172       -0.01690406245200
O            0.52075744921611        2.50928402920175       -0.01557567572203
N           -1.15422168873439        0.91919979044650       -0.03723555635824
C           -2.10884906821948        1.99976245665660       -0.05212596046750
C           -1.67890797857905       -0.32438018214382       -0.05014589964591
O           -2.89764179540080       -0.40650068142957       -0.07143372419998
N           -0.88478951420565       -1.52394134436841       -0.04005679432446
C           -1.94534047843581       -2.70996021946079       -0.07212727948677
H            3.82578725411445        1.44789769682430        1.03483315526328
H            3.99716445558416        1.42542700776114       -0.72070981478118
H            2.63754560418058        2.27864225708832        0.02161054869475
H            3.83327484113308       -1.43468761984824        0.05950981212939
H           -1.52506794630438        2.91483666936047       -0.03539523089794
H           -2.71613642245405        1.94152171713121       -0.95307816210445
H           -2.75413848683913        1.93180343177721        0.82100871427742
H           -2.03694737989207       -3.38504379353345        0.79888679626058
H           -2.00282889523697       -3.36494627984730       -0.96119847208839
H           -2.93415354470065       -2.18791402255620       -0.08518222062960
H            1.78578395587001       -2.90819819011868        0.02263870506389
25
 energy: 38.239861226002 xtb: 6.6.1 (8d0f1dd)
C            3.26877217066456        1.38627212868048        0.09230831874085
N            2.43149331231128        0.20502647664312        0.02479680988165
C            2.81481982725246       -1.09357821225045        0.05701683710635
N            1.71006975842284       -1.89692572748410        0.02417044715710
C            0.52967580708216       -1.18922972036564       -0.00993415630085
C            1.02139333267323        0.16636942065176        0.00182427249646
C            0.23882872667626        1.32316824493264       -0.01500726614912
O            0.55206398842915        2.51232595018795       -0.01057469932613
N           -1.12546200952763        0.91949073325908       -0.03724196532053
C           -2.10714005550412        1.98242569575391       -0.05260483078842
C           -1.66634221463702       -0.32445451294888       -0.05024498080424
O           -2.88428147612171       -0.38193982611013       -0.07092322838499
N           -0.88597426992571       -1.53027292035957       -0.04079154702003
C           -1.98656804825304       -2.71443684945653       -0.07410378608093
H            3.82961952740843        1.44504078348879        1.03133559947699
H            3.99403602772194        1.41708352346299       -0.72407555522523
H            2.64074546970734        2.27395111519304        0.01939066426722
H            3.84266366775504       -1.40160696848134        0.06164553094107
H           -1.56240024915611        2.92295596467995       -0.03565756143391
H           -2.71334778358426        1.89816860610796       -0.95329674820838
H           -2.75173381792192        1.88721766457385        0.81956531124015
H           -2.09439192665686       -3.37567031472483        0.79245072059523
H           -2.06181436547427       -3.35453307422295       -0.96074093050922
H           -2.95201568534452       -2.19057482470421       -0.08566321595011
H            1.82950459097498       -2.89724456776292        0.02338987179352
25
 energy: 45.108889384118 xtb: 6.6.1 (8d0f1dd)
C            3.27759900731708        1.40039881905406        0.09145346680880
N            2.44206533000603        0.21837880155261        0.02756291810076
C            2.83556202492737       -1.08636529090789        0.06034184631199
N            1.72845144799080       -1.89654917144404        0.02506927182525
C            0.54589056997506       -1.19208909036422       -0.00968013429652
C            1.02865929888493        0.16924818183653        0.00223689965948
C            0.24258962847127        1.31582256318768       -0.01403538874026
O            0.56238696754787        2.51268395843863       -0.00823077500260
N           -1.11454170107776        0.91099304715456       -0.03732483470370
C           -2.10540009283998        1.96518929414800       -0.05288239605249
C           -1.65305585278267       -0.33149939814663       -0.05030479133392
O           -2.87281055378553       -0.38575516651056       -0.07082311143774
N           -0.88102857726457       -1.53635179830932       -0.04116523634447
C           -2.02582754626508       -2.71435597012172       -0.07574456984679
H            3.84309201242184        1.46159255813985        1.02922806195709
H            4.00236597728191        1.43340398275328       -0.72866026337092
H            2.64371344063397        2.28501454421064        0.02121803092913
H            3.86432310716961       -1.38801254932506        0.06448733380762
H           -1.57234074394057        2.91326002387086       -0.03523305946432
H           -2.71022943520400        1.86846163742901       -0.95387408634027
H           -2.74971752365753        1.85659286996655        0.81873484817612
H           -2.16376151577433       -3.38757453317391        0.79101229620634
H           -2.13083400717024       -3.36439715202519       -0.96450228609977
H           -2.98261337266012       -2.14553339129772       -0.08651009247478
H            1.85767641476717       -2.89352798137201        0.02465996392050
25
 energy: 43.495618909094 xtb: 6.6.1 (8d0f1dd)
C            3.28317677626025        1.39686544807801        0.09060609251289
N            2.44029858074927        0.22055638671448        0.03037420248565
C            2.83329650341409       -1.09022367460403        0.06057013307498
N            1.72082517433094       -1.89568035414472        0.02387681576713
C            0.54593865390032       -1.18504350040405       -0.00943374642248
C            1.02649656867410        0.17493566493382        0.00362294826780
C            0.23363641580040        1.31768698699984       -0.01231551848609
O            0.55870993902861        2.51458961351502       -0.00628626707750
N           -1.12050005180602        0.91564823496955       -0.03677806343802
C           -2.11026298614257        1.97050159233994       -0.05283418349793
C           -1.65645794351268       -0.32953981535091       -0.04993895580937
O           -2.87624358092245       -0.38748365292171       -0.07064677649871
N           -0.88367933872459       -1.52892724023007       -0.04125905023223
C           -2.02083206879514       -2.71861945628671       -0.07605603482367
H            3.84672130143798        1.46031410957626        1.02994731977383
H            4.01229951069667        1.42019322543570       -0.72690797899721
H            2.65523418798813        2.28512053892500        0.01409234248332
H            3.85978532046264       -1.39600331774174        0.06456877211746
H           -1.57579506995935        2.91654501769806       -0.03405156362715
H           -2.71389752412281        1.87397910211182       -0.95414747835763
H           -2.75546931023568        1.86141086983279        0.81764732079713
H           -2.14510419657047       -3.38854782653130        0.79030209418209
H           -2.11283731459990       -3.36444380783162       -0.96448689221212
H           -2.97812867815248       -2.16224722105054       -0.08624606568574
H            1.84500343577315       -2.89255813528888        0.02281444589809
25
 energy: 46.014899446769 xtb: 6.6.1 (8d0f1dd)
C            3.29297387171068        1.40031225102234        0.08924905175754
N            2.44238786716732        0.22843451927893        0.03613673922789
C            2.83783102918040       -1.08621834336110        0.06225501390373
N            1.72301210033667       -1.89037665388777        0.02288617298383
C            0.55176394842195       -1.17955069634905       -0.00884346814366
C            1.02828724399200        0.18036827329196        0.00624184250047
C            0.22590828616862        1.31955829958282       -0.00919931540229
O            0.55821817612896        2.51485682146957       -0.00237412441705
N           -1.12131577548934        0.91828099799241       -0.03596562633429
C           -2.11262150830473        1.97184555450446       -0.05296754530522
C           -1.65429504407784       -0.33245381679804       -0.04938046771427
O           -2.87552260217327       -0.38590730592820       -0.07029142087218
N           -0.88607002629148       -1.52877755670323       -0.04159099000765
C           -2.03825514544986       -2.73386413345253       -0.07736359740987
H            3.85536017516870        1.46791948513424        1.02953295824082
H            4.02706510660305        1.41166428440322       -0.72531749075197
H            2.67300046193870        2.29354045937941        0.00450212615825
H            3.86416302590823       -1.39151560661409        0.06437828763439
H           -1.57871431513555        2.91708280983626       -0.03269473160134
H           -2.71457176709414        1.87458480571818       -0.95487121116391
H           -2.75917222883106        1.86110890427624        0.81590415489493
H           -2.16001434114767       -3.40191279352818        0.78784597640078
H           -2.12867126310670       -3.37603037463392       -0.96582329338960
H           -2.98904054754912       -2.17626447305642       -0.08626188838484
H            1.85050757689798       -2.88765692283355        0.02104675939008
25
 energy: 50.514554561556 xtb: 6.6.1 (8d0f1dd)
C            3.30298991214539        1.40680521276060        0.08832064958661
N            2.44671703390202        0.23781023770533        0.04236130670508
C            2.84520270202918       -1.07836577003884        0.06353620951133
N            1.73074839818091       -1.88305544936245        0.02190786818645
C            0.56014313901048       -1.17542859092139       -0.00811041022788
C            1.03265681704551        0.18482709037163        0.00920660862938
C            0.22243885503160        1.32183882913540       -0.00619787138420
O            0.55780263608180        2.51543056810476        0.00138705680159
N           -1.12017653997476        0.91780723300995       -0.03518302569034
C           -2.11290649096505        1.97042596223708       -0.05304425522759
C           -1.64970432706680       -0.33942127434009       -0.04889084159921
O           -2.87151378230284       -0.39041883667242       -0.06993388536396
N           -0.88566327729167       -1.53190133448252       -0.04188583559487
C           -2.06576574191319       -2.75178565806179       -0.07867866908262
H            3.86250789960098        1.47915388982810        1.03007698666651
H            4.04185346497419        1.40609877902484       -0.72264145510912
H            2.69072749795937        2.30454720262824       -0.00633977509106
H            3.87238468648258       -1.38076083635990        0.06297587386898
H           -1.57890754793913        2.91539065450113       -0.03148327470190
H           -2.71350348631423        1.87471800395069       -0.95578330943106
H           -2.76083135671235        1.86037998168094        0.81462947470567
H           -2.19001767226174       -3.41974539931329        0.78533594665477
H           -2.15956224509257       -3.39207556695811       -0.96736601980968
H           -3.00854694239560       -2.18291846851450       -0.08618984495396
H            1.86314067275845       -2.88032767116944        0.01902440414563
25
 energy: 61.040757615545 xtb: 6.6.1 (8d0f1dd)
C            3.32051614076554        1.42213381743552        0.08743874876541
N            2.45728277254210        0.25622563183635        0.05312427929659
C            2.86195367329437       -1.06018596313810        0.06482075984958
N            1.75113357277091       -1.86832158385215        0.01988209743198
C            0.57775613622845       -1.16928542060402       -0.00692351840000
C            1.04334231655146        0.19268340349581        0.01447589768672
C            0.22382261809015        1.32676116639227       -0.00156997440620
O            0.55880449226902        2.51841351764030        0.00691416326143
N           -1.11381121906412        0.91419227009556       -0.03396403460681
C           -2.11016782974676        1.96391419323932       -0.05301536537502
C           -1.63801993507859       -0.35300809859766       -0.04818309898857
O           -2.86074515179356       -0.39816641742119       -0.06925799211564
N           -0.88137582820049       -1.53973193790249       -0.04244235053958
C           -2.12826677287016       -2.78785005811742       -0.08076520936103
H            3.87266317892206        1.50394887827932        1.03296289196965
H            4.06825664085583        1.40205034367450       -0.71651697898379
H            2.71948334501665        2.32616210934261       -0.02594775015280
H            3.89161806418329       -1.35504725375507        0.05917461508627
H           -1.57739576344290        2.91007186774533       -0.02954982543127
H           -2.70885885876213        1.87136812959344       -0.95735294204257
H           -2.76008152561203        1.85549909471040        0.81328522983945
H           -2.26165142834081       -3.45720163958417        0.78154605712363
H           -2.23243883390338       -3.42656995351536       -0.97013775953167
H           -3.05426755304709       -2.19411254598586       -0.08597227964519
H            1.89266205334470       -2.86491476226327        0.01500825146398
25
 energy: 75.888235142520 xtb: 6.6.1 (8d0f1dd)
C            3.35545022823313        1.45066897076997        0.08581813875969
N            2.47918143819842        0.29148991169855        0.07352019046421
C            2.89567347649973       -1.02528093403225        0.06722876835799
N            1.79070890675166       -1.84024454655438        0.01572905380139
C            0.61563445042282       -1.15311315309881       -0.00559449450703
C            1.06676853709909        0.21089279961861        0.02385677077697
C            0.22433187340508        1.33798703827999        0.00680185438753
O            0.56455081025968        2.52627674103680        0.01656979939914
N           -1.09792970639878        0.91100112317756       -0.03179030655018
C           -2.10639146893557        1.95132322668079       -0.05296644853553
C           -1.61132208927204       -0.37712771641310       -0.04709025718086
O           -2.83530993507289       -0.41119386258506       -0.06776855104279
N           -0.86880686659165       -1.55015491903719       -0.04439543879802
C           -2.25580880380057       -2.85959578135541       -0.08467911861232
H            3.89418649026091        1.54834997340626        1.03825618997646
H            4.11855675496365        1.39456538364605       -0.70651846597170
H            2.77236949061350        2.36467418968612       -0.06003846872246
H            3.92878605239121       -1.30782010999996        0.05323872298239
H           -1.58369057924981        2.90360055235090       -0.02602090467914
H           -2.70159936254377        1.85812668463119       -0.95953411972052
H           -2.75964822601614        1.83925098751288        0.81032195118877
H           -2.40109214865845       -3.52806088131048        0.77374322490605
H           -2.37394561897304       -3.49244415438624       -0.97395108903367
H           -3.14601830620184       -2.21941784758590       -0.08563969958012
H            1.94757890758823       -2.83472488739300        0.00793661012827
25