25
 energy: 0.000000000000 xtb: 6.6.1 (8d0f1dd)
C            3.23720163006194        1.16630919979326        0.08434469647475
N            2.29877817382611        0.07527477071623        0.03981603040599
C            2.58028210190900       -1.21425402444508        0.03006176031096
N            1.43813958087363       -1.93419271955128        0.00098261760884
C            0.39035688448383       -1.05887472636071       -0.00790371836672
C            0.93510056364412        0.21347819449412        0.01709077491437
C            0.09450143893243        1.40504303904423       -0.00410947031874
O            0.49712751527797        2.54126714362870       -0.00342325688240
N           -1.25076640035757        1.06271879480407       -0.03085478223738
C           -2.21907211982101        2.15522099834493       -0.05001256985998
C           -1.81739487048744       -0.20012725993278       -0.04692818574614
O           -2.99983886758376       -0.37846417018721       -0.07008878229737
N           -0.92618586207120       -1.30210215599479       -0.03682761578324
C           -1.46982264913417       -2.64643102187190       -0.06029820460571
H            3.71247264356769        1.21471455160235        1.06488849150277
H            4.00791497605742        1.03430808813993       -0.67357694370751
H            2.69910007168542        2.09770118228144       -0.09130154882931
H            3.56654120610678       -1.63682992603973        0.04233140067262
H           -1.67107961066214        3.09322851271934       -0.02552706933167
H           -2.82428953597071        2.09428624779827       -0.95318082946668
H           -2.87644029173232        2.07745725625962        0.81450067533302
H           -1.17061996399332       -3.19584890659852        0.83242232437030
H           -1.14560257411436       -3.17511610292205       -0.95688275822323
H           -2.55549792440841       -2.55659984320617       -0.07459039797972
H            1.38130855184625       -2.94313852034425       -0.01389874181052
25
 energy: 0.000000000000 xtb: 6.6.1 (8d0f1dd)
C            3.25600135790621        1.18710321891535        0.09351953696798
N            2.31686331566826        0.10581801670267        0.04106414250352
C            2.61235807002284       -1.22056684591581        0.03243580287004
N            1.44287245386227       -1.93298168475902       -0.00057465949521
C            0.40433174716256       -1.05612713035625       -0.01250129314450
C            0.93629500249791        0.22533285410710        0.01483132725289
C            0.09898856741471        1.39276657603501       -0.00744524714069
O            0.49425796385612        2.56000470241915       -0.00427686111341
N           -1.26713705075149        1.03987532461145       -0.03514159308068
C           -2.21168258367313        2.14907347219751       -0.05902598352639
C           -1.82961216206255       -0.22263698157289       -0.04501239952353
O           -3.02477292169638       -0.46302528469325       -0.05693066763303
N           -0.93046115876632       -1.30526991066444       -0.03765093078567
C           -1.51426915406954       -2.63150536829237       -0.05690992542472
H            3.74293097812640        1.22470141822714        1.07196821286410
H            4.02114312928282        1.05891893182136       -0.67412955236646
H            2.71286338490617        2.11548069345509       -0.07065207652570
H            3.59293103546913       -1.64202480082331        0.04918460594091
H           -1.64104625666146        3.07712455764745       -0.04374934182776
H           -2.81783905671292        2.09635233450647       -0.96194819007580
H           -2.86366838166743        2.09304846228843        0.81094941999186
H           -1.14795931312250       -3.20865479996524        0.79204529429983
H           -1.22914124901766       -3.14771027632539       -0.95993202067333
H           -2.62528496806215       -2.56948929621964       -0.03902402411720
H            1.38325191802435       -2.93657958117450       -0.01405968008978
25
 energy: 0.000000000000 xtb: 6.6.1 (8d0f1dd)
C            3.29482491947884        1.22618137729316        0.11569436184870
N            2.34851715921288        0.15996028361456        0.04511462320466
C            2.66825502841054       -1.21967046332975        0.03982023367387
N            1.45979958819688       -1.92045725356151       -0.00327416687059
C            0.42979225711339       -1.05445576718124       -0.02223669404406
C            0.93883124088150        0.24489605237583        0.01007323424692
C            0.10461322515229        1.36140905174314       -0.01492370036932
O            0.47159972573083        2.57030041930993       -0.00633026159774
N           -1.30352162642905        0.99264660988852       -0.04723842846828
C           -2.19427515169281        2.13979953178175       -0.08365372683179
C           -1.85135542153924       -0.27060064526404       -0.03901341360570
O           -3.05355135190786       -0.64703855608684       -0.02343179933258
N           -0.93639210520832       -1.31372547711384       -0.03837396125525
C           -1.60784017791741       -2.60595788245296       -0.04909272883372
H            3.81449864384562        1.24197363441653        1.08447381597875
H            4.04886096729056        1.11984541211123       -0.67324274246313
H            2.74994199471337        2.15761995672493       -0.01487066267250
H            3.64274477341676       -1.63525114982642        0.06750211103027
H           -1.57107491999175        3.04267417374285       -0.09300591624713
H           -2.80426123458181        2.10417491798654       -0.98427388810632
H           -2.83270489466781        2.13826215302618        0.79956013778349
H           -1.09236990302592       -3.25046987852642        0.69432516434668
H           -1.45087158293605       -3.08633523216596       -0.99168463397876
H           -2.76730502485607       -2.58846766152745        0.06952043553669
H            1.40545853924677       -2.91828500480665       -0.01440349682590
25
 energy: 0.000000000000 xtb: 6.6.1 (8d0f1dd)
C            3.33550106341868        1.26730462350385        0.13996484967013
N            2.37930670455692        0.21402447028447        0.05016973715346
C            2.72318098246159       -1.21235344906948        0.04847828485793
N            1.48414514206361       -1.90457996022928       -0.00386211261274
C            0.45372787167862       -1.05758199266239       -0.02872122133225
C            0.94238280240373        0.26092687885658        0.00696269471746
C            0.10920150705438        1.33033176199496       -0.02079801460597
O            0.44622672874084        2.57307099099917       -0.00903972303416
N           -1.34371378008878        0.94539795256404       -0.06091046395794
C           -2.17371212306737        2.13454331417477       -0.11396901484248
C           -1.87879870241038       -0.31935253958351       -0.03015016417225
O           -3.08342632622992       -0.82964905365012        0.00873580027262
N           -0.94442290773378       -1.32843936969804       -0.03480173149235
C           -1.70261138828116       -2.59262307974367       -0.03536220011316
H            3.89415620241992        1.25674463740769        1.09493666404211
H            4.07636153275743        1.19149553347896       -0.67299781095078
H            2.79391886603084        2.20697801327587        0.05275586781023
H            3.69582916559510       -1.61785292104958        0.08855771421962
H           -1.49450404052586        3.00783285026340       -0.15334689253035
H           -2.78937190215765        2.11530197336503       -1.01030619265843
H           -2.79450294010226        2.19640854672294        0.78400436672075
H           -1.02519634068206       -3.31109430423572        0.57199345278622
H           -1.72002459622421       -3.01379424423585       -1.03521833794762
H           -2.91528167079006       -2.62476084151803        0.20393363763502
H            1.44384281704793       -2.89925118904395       -0.01397529348780
25
 energy: 0.000000000000 xtb: 6.6.1 (8d0f1dd)
C            3.37096044229309        1.29856694191220        0.15738361903651
N            2.40240297376364        0.25267493762231        0.05300649438222
C            2.76097699734588       -1.19963774116321        0.05525021062153
N            1.51097008552183       -1.88419920730539        0.00063587820687
C            0.46700742865231       -1.06466785111600       -0.02431844305061
C            0.94907224574759        0.26899525998071        0.00751164995727
C            0.11775002231141        1.31319496234031       -0.02020347554809
O            0.42985727742145        2.56227800124226       -0.00874083544779
N           -1.38159398487111        0.91555675264869       -0.07369959725854
C           -2.15418049739720        2.13935278866192       -0.13982359145434
C           -1.91350601725617       -0.34905867302423       -0.02652784168305
O           -3.11208473793503       -0.95619557398155        0.01725440595605
N           -0.95956849169823       -1.34579696809472       -0.02571956212944
C           -1.76812553626172       -2.60855764701157       -0.01066113401098
H            3.96450909110814        1.26597797614375        1.09583859072109
H            4.09922025516248        1.25815525229433       -0.67584309699225
H            2.83868131379637        2.25092525166025        0.11345537307563
H            3.73913112579555       -1.59267917792079        0.10443569107039
H           -1.43563713747057        2.98503625632382       -0.20440216396881
H           -2.77635752825539        2.13108989466928       -1.02958935077730
H           -2.75310678944420        2.25329300191248        0.76944503887797
H           -0.97400587110098       -3.36896239154468        0.44375299125126
H           -1.96264009903223       -2.93947955448566       -1.04739370841228
H           -3.04188691384059       -2.71456322515344        0.30969690811647
H            1.49436901357973       -2.88227066443891       -0.01371015439253
25
 energy: 0.000000000000 xtb: 6.6.1 (8d0f1dd)
C            3.39782930073899        1.31111654767464        0.16731101537393
N            2.41631433497432        0.25637414621866        0.05287149963886
C            2.76620013801849       -1.17723791585580        0.05923653941256
N            1.54806948939889       -1.85323094448477        0.00800888640917
C            0.46929829666611       -1.07679059229545       -0.01081110057432
C            0.97090468226845        0.26351285291814        0.00807355931793
C            0.13438638365309        1.32664407063178       -0.01507942212312
O            0.41642349527029        2.52459837858253       -0.00728037342810
N           -1.41721184528480        0.90977858680692       -0.08502040884113
C           -2.14061883592798        2.14997474854778       -0.15653873506098
C           -1.95416052760319       -0.35641638835156       -0.02857086029026
O           -3.11932748066296       -1.02394043129492        0.00769645365920
N           -0.97150248225802       -1.36561545781646       -0.01668387342035
C           -1.77987817049879       -2.66739087521762        0.02860388942362
H            4.01157746371248        1.27021252942607        1.08678102912902
H            4.11565239695720        1.31155424002852       -0.67592735642696
H            2.88018485965061        2.28051576574648        0.15809339125805
H            3.76453399636728       -1.56003521690078        0.11539960919672
H           -1.40854508530256        2.96804006355301       -0.23827114990642
H           -2.76752054684718        2.14422819586138       -1.03823563423298
H           -2.71328240650655        2.29614277150666        0.75489470946926
H           -0.96160926599887       -3.39154574785634        0.29839657634080
H           -2.16767218981321       -2.85397143743407       -1.00192944581631
H           -3.13811748157545       -2.82887089375631        0.37243757118933
H            1.56028614853940       -2.86861839406632       -0.01642247355028
25
 energy: 0.000000000000 xtb: 6.6.1 (8d0f1dd)
C            3.40997971661937        1.31806652968528        0.17308417837465
N            2.42644576628100        0.24573815040128        0.05843195611781
C            2.75868228457965       -1.14012284114107        0.06244275150460
N            1.58964846273400       -1.83235392634557        0.01775902108650
C            0.46941129709825       -1.08478017158090        0.00878765553743
C            0.99588662741356        0.25342736718951        0.01530443726655
C            0.15909920055357        1.34662136516430       -0.01011202525881
O            0.41107921542826        2.50990082433888       -0.00262141503213
N           -1.42570168722035        0.89594611606456       -0.08905436370302
C           -2.12673212870725        2.15046074199510       -0.17463414667534
C           -1.97496808744958       -0.37741710960979       -0.02629898831599
O           -3.10364118688059       -1.07743691596386       -0.00192613806373
N           -0.96850914894822       -1.38128608665722        0.00369143585393
C           -1.80113509509019       -2.70553047708537        0.04050927369244
H            4.03782955269385        1.25812782354467        1.07661684048167
H            4.11175226100714        1.34207043254862       -0.67877208437172
H            2.90503062051221        2.29428170528536        0.19298078795617
H            3.77091695710156       -1.51220713168235        0.12160251229468
H           -1.39112106682113        2.95481415167350       -0.28183495359851
H           -2.76586719210398        2.15409347518346       -1.04858177970660
H           -2.68149561399645        2.34048977359706        0.74125144311608
H           -0.93480946197107       -3.42368779941919        0.10795826809059
H           -2.32145770378769       -2.74716082776113       -0.92389806251367
H           -3.26276429495359       -2.94058659925115        0.45777991762519
H            1.62465537384371       -2.85243996800179       -0.01343262561153
25
 energy: 0.000000000000 xtb: 6.6.1 (8d0f1dd)
C            3.41691654603183        1.32518393123770        0.17517780553432
N            2.43760748356506        0.23704292062273        0.06782485518122
C            2.75485452516776       -1.09365132532678        0.06659307148281
N            1.62681611489600       -1.82171448828281        0.02707695729836
C            0.47615791123714       -1.08513307255072        0.02575541612046
C            1.01620418821087        0.24988329872268        0.02611429420969
C            0.18385433588277        1.35936429358717       -0.00726331266215
O            0.41509516013648        2.52948180463444        0.00393112652003
N           -1.41372199041206        0.87942480141633       -0.09073174198231
C           -2.11310346109177        2.14494691165540       -0.19135269323270
C           -1.97256252987467       -0.40866983420749       -0.02364716850566
O           -3.07391689398556       -1.13711427056902        0.01453937681923
N           -0.94525728831918       -1.39204151614859        0.02638814602226
C           -1.82116050186950       -2.71956507914854        0.02927742826349
H            4.05693711326011        1.24074380172791        1.06597143030809
H            4.10073757825458        1.35884674800645       -0.68633857708512
H            2.91846480431756        2.29919349474863        0.22073782808412
H            3.77253634479103       -1.46027439223101        0.12579222683259
H           -1.38247045928969        2.95108016621388       -0.32479784262232
H           -2.76575586866715        2.15385144720590       -1.05698429531023
H           -2.65239053764340        2.36909700978874        0.72804782188510
H           -0.94486191369204       -3.43846008034479       -0.06512486829292
H           -2.45141984991369       -2.65255849154463       -0.84309586937185
H           -3.40377929976396       -3.06315873585982        0.51818269133696
H            1.67643315670750       -2.83677074118154       -0.00504021068623
25
 energy: 0.000000000000 xtb: 6.6.1 (8d0f1dd)
C            3.41199333212294        1.32342321242886        0.17382794414625
N            2.44236183309886        0.21295745911958        0.08122480764590
C            2.73608950147182       -1.04002268142190        0.07295160849288
N            1.65593605632444       -1.81970090795181        0.03064813517505
C            0.47971511444317       -1.07238790194633        0.02424769776822
C            1.03374550337798        0.25174869407220        0.03412708629958
C            0.20584192705795        1.37971033460034       -0.01064206147672
O            0.44097584949450        2.55449696960116        0.00671857617055
N           -1.37657842547164        0.88047226158836       -0.08927725076555
C           -2.10644775802509        2.13998608996914       -0.20051842747069
C           -1.94910772521586       -0.43131315523697       -0.01557966486977
O           -3.02515136380936       -1.15433477742873        0.07830485476288
N           -0.89773596884871       -1.39114634615242        0.02790805782295
C           -1.79199670177068       -2.72706972804926       -0.01225303563203
H            4.04900579687235        1.22435035319359        1.05704283730192
H            4.08299543192908        1.35046729239733       -0.68766684311523
H            2.91519939408502        2.28623487381883        0.22728256872138
H            3.75495204469021       -1.41833831858574        0.13176646541196
H           -1.39734774470030        2.96351934194274       -0.35000087107385
H           -2.76755226117796        2.14319046488579       -1.06099796416482
H           -2.63682011687430        2.36978238947423        0.71536452767827
H           -0.97567429772792       -3.40413476860527       -0.21383629498961
H           -2.50849456688822       -2.58971586794956       -0.72752854242636
H           -3.56799901112460       -3.21857551667896        0.52846916270771
H            1.70430882460234       -2.82457116491295        0.00545052202636
25
 energy: 0.000000000000 xtb: 6.6.1 (8d0f1dd)
C            3.41393270539760        1.33291685284827        0.17577023888396
N            2.45109874999423        0.21679465300810        0.09698703235671
C            2.74283605081787       -1.00377939866685        0.08529922210630
N            1.67414083359515       -1.82852977122267        0.03736039788112
C            0.48990851497018       -1.04859443001863        0.01982776095512
C            1.03582887286859        0.27001447618343        0.04376811427670
C            0.21211734665354        1.38172865096833       -0.01237896656223
O            0.47648218694015        2.58870582357645        0.00771098755347
N           -1.34310834034983        0.88301812398689       -0.09217882998108
C           -2.09978913459985        2.14272888457194       -0.21599370800829
C           -1.92788309788609       -0.45649211576691       -0.00828807435305
O           -3.00558978641221       -1.19773610942589        0.12291251505067
N           -0.84403613132022       -1.38059281228549        0.03337550599867
C           -1.74088595370697       -2.71355222630851       -0.04362789085513
H            4.05104904776628        1.21570456296141        1.05518007768956
H            4.07500613831622        1.34639531451237       -0.68910575171908
H            2.91484009812755        2.28218030263097        0.23714756755939
H            3.75262551369693       -1.39904901637098        0.14279756276667
H           -1.39952087721177        2.98520755650125       -0.37648073273442
H           -2.76357834418034        2.13692723589800       -1.07398632849059
H           -2.62373821868153        2.37596157030555        0.69936793771098
H           -0.91535501733590       -3.42314224234432       -0.36368230024970
H           -2.64109913475258       -2.50583862038450       -0.64505298473198
H           -3.79040331813473       -3.39607721269440        0.56986985576800
H            1.71733596336378       -2.81587145029156        0.02043468727546
25
 energy: 0.000000000000 xtb: 6.6.1 (8d0f1dd)
C            3.40388314822800        1.33963699013713        0.17166234126854
N            2.44236549150474        0.24149997022857        0.10623521950316
C            2.76593874813352       -1.00872284168129        0.09018469621561
N            1.66263136406837       -1.86894832554985        0.03416986039106
C            0.49206231673844       -1.01211189751590        0.00276952979933
C            1.00161396771675        0.29802985638607        0.04905527439090
C            0.15653977699787        1.35028251460437       -0.01291351903864
O            0.51326447331058        2.61574743569563        0.00221687234782
N           -1.29195271351026        0.90255713753141       -0.08854402579729
C           -2.10418086574515        2.14974189000730       -0.21574790818983
C           -1.90217597418558       -0.47369917518060        0.00451613476240
O           -3.03557392166000       -1.16821420490755        0.15032278156155
N           -0.77481283179907       -1.35894559615493        0.01573757103010
C           -1.57340142002539       -2.66537150146816       -0.10317853296404
H            4.03684623451803        1.21095025649872        1.06054396876228
H            4.07100285109457        1.32556564402163       -0.69291260435936
H            2.89780318751398        2.27715430397439        0.22843311347884
H            3.75188673399686       -1.42526319206650        0.14043103363165
H           -1.39830808284826        3.01620465165027       -0.36800665778981
H           -2.76155589784492        2.12648079684123       -1.07603111975346
H           -2.63632764034779        2.36246236629525        0.70562415614993
H           -0.85918021118824       -3.43336485907220       -0.35646764952022
H           -2.61396152096636       -2.53594626363267       -0.54948453914601
H           -4.02403707706515       -3.44742207628701        0.50543262834231
H            1.69184453130044       -2.82927527818311        0.02298527107043
25
 energy: 0.000000000000 xtb: 6.6.1 (8d0f1dd)
C            3.40863302260417        1.33125552742070        0.16805697530896
N            2.44008639790861        0.26130380042602        0.10388177161734
C            2.78712308348308       -1.03323726815159        0.09103272162391
N            1.65230299562786       -1.87102334866239        0.03102501125911
C            0.49613061596340       -0.98990816032333       -0.00830449264343
C            0.98986403986489        0.31674175711334        0.04679692807241
C            0.10105612359323        1.33593521442452       -0.01030648770116
O            0.53432346601425        2.60926872058669       -0.00134708050524
N           -1.26587889448416        0.93549352616327       -0.08673949923147
C           -2.09912584457320        2.16535346690604       -0.20843224644720
C           -1.90206057715808       -0.47653594909589        0.01291038262870
O           -3.07817223588854       -1.20358596091813        0.14537445879370
N           -0.75952839364365       -1.35382360959200       -0.01509806555950
C           -1.42620212780783       -2.61010909727253       -0.13769689651794
H            4.03196489323557        1.21770257208180        1.06518700885480
H            4.08446896911530        1.30937031702089       -0.69588365260429
H            2.89111180625122        2.27261390178896        0.21160840303445
H            3.76177375145978       -1.44842563525966        0.13884458077693
H           -1.40706302627745        3.04198182852945       -0.34096285600105
H           -2.74738214474185        2.11825861173270       -1.06881104369601
H           -2.63854417744258        2.33998060064465        0.71282780731142
H           -0.78988846352376       -3.42926607398001       -0.34187463481660
H           -2.53385574065163       -2.54918730098463       -0.41759972059076
H           -4.30149739113608       -3.45766092216050        0.41233820132403
H            1.68257452014348       -2.84346791626612        0.02020632185612
25
 energy: 0.000000000000 xtb: 6.6.1 (8d0f1dd)
C            3.41684958882006        1.31330502446221        0.16838974639238
N            2.44189848794795        0.27718041681645        0.09382964798749
C            2.79637517727248       -1.08820720226810        0.08833519109166
N            1.63866529627001       -1.82933896529305        0.02809598417086
C            0.51795278488721       -0.98838657705673       -0.01039969400177
C            1.01460216116532        0.32580755825898        0.03859243399486
C            0.08221851831561        1.36109635071788       -0.00655498966571
O            0.54501520507115        2.58204247987426       -0.00048770868495
N           -1.25920805719816        0.98363073401696       -0.08633123524555
C           -2.08242121800090        2.18368135110837       -0.19592806846710
C           -1.91621109896935       -0.45084078780507        0.01626025359654
O           -3.13307114062053       -1.31004892847079        0.14410524885136
N           -0.80444298362645       -1.37056581254059       -0.05983195817089
C           -1.30193706209685       -2.57001819331196       -0.15770956960425
H            4.02568033539200        1.23094180506878        1.07388694453561
H            4.09812476573104        1.29663198553593       -0.69593028085705
H            2.88320690473786        2.27266846076835        0.18556678657245
H            3.77739406581134       -1.46860191676010        0.13499401990294
H           -1.42264624400105        3.05599630082209       -0.31316477548069
H           -2.73071137806413        2.11207502881488       -1.05441075248287
H           -2.64016624890760        2.32007424769355        0.72244455893849
H           -0.73048663783152       -3.41359686764744       -0.29239960890924
H           -2.41503461893846       -2.58517242602621       -0.30885447060184
H           -4.56200677651522       -3.40381916154954        0.30165151843045
H            1.67257484128424       -2.84750630305690        0.01288467385407
25
 energy: 0.000000000000 xtb: 6.6.1 (8d0f1dd)
C            3.42104007002563        1.30355967710708        0.16656303654181
N            2.44535037680069        0.26857264463184        0.08971517247175
C            2.78270222614397       -1.11166737785455        0.08574252539029
N            1.63539486026880       -1.79996956431138        0.02368366736429
C            0.54627591065144       -0.97620138132145       -0.01302957534043
C            1.05066219024097        0.33054535379646        0.03007132775170
C            0.09866048034058        1.39995928295687       -0.00473153568152
O            0.56161665098952        2.56847830496759        0.00100539350959
N           -1.24330684474403        1.01648064849224       -0.08705499112864
C           -2.06825402481584        2.20044430649049       -0.18183572375469
C           -1.92270572109337       -0.43947429027403        0.00040574291397
O           -3.17850123489936       -1.48057148818630        0.13840965120744
N           -0.80081616099266       -1.35023777800190       -0.08055260146564
C           -1.21314905493031       -2.54926964546294       -0.16862651961071
H            4.01280985959130        1.24190736074831        1.07979047683517
H            4.10952492611152        1.28056682996711       -0.68703701244651
H            2.88397825762893        2.26637618911550        0.15569293798866
H            3.77921330256951       -1.47673405506708        0.13297547235705
H           -1.43914853948093        3.08402626929057       -0.28473744318572
H           -2.71619006295882        2.11725173174395       -1.04406801544591
H           -2.64673212019804        2.30151895883030        0.72785195670017
H           -0.64561149716376       -3.40915697349918       -0.28587647587625
H           -2.35151466811437       -2.58997404250207       -0.17338387041201
H           -4.84154743072276       -3.37226660254104        0.19777786290550
H            1.65246291668744       -2.83513575694419        0.00828243655789
25
 energy: 0.000000000000 xtb: 6.6.1 (8d0f1dd)
C            3.42908727000697        1.29726415686449        0.16531981515987
N            2.45317915769727        0.25267268406029        0.08322247425672
C            2.76741568619291       -1.13928023357842        0.08030288378732
N            1.62902770304070       -1.76795477533378        0.01618695999991
C            0.58063625590611       -0.97204822056129       -0.01599928474789
C            1.09702748682873        0.32331169312099        0.01956932812526
C            0.14923453237627        1.45373967272773       -0.00333704528233
O            0.56682413730222        2.55481543113073        0.00480789935011
N           -1.23952380526753        1.04244336176136       -0.08566235000006
C           -2.05109006078266        2.21754089010891       -0.16565614711407
C           -1.93938033199804       -0.40906223660914       -0.03073327085866
O           -3.27919134273006       -1.75081664967078        0.11896164490851
N           -0.82520798871322       -1.30677612638805       -0.09380452579584
C           -1.17913888099003       -2.55231616509647       -0.16597680191178
H            4.01142582396206        1.25048032313299        1.08726098294334
H            4.12337134499123        1.27070647909260       -0.68211511787704
H            2.88779176793617        2.26288624238247        0.13619120264573
H            3.78685063023627       -1.48332057933310        0.12758674603522
H           -1.44608235701252        3.11024906716661       -0.25785043500074
H           -2.70099678063247        2.12736911758192       -1.03365121922743
H           -2.65099182373962        2.28924156020123        0.73948663285412
H           -0.57036028590795       -3.39004102024777       -0.20025411561844
H           -2.26849069152638       -2.59690593981595       -0.11377374088818
H           -5.04579682981331       -3.27157530786071        0.09738486524066
H            1.62659405057291       -2.82359482266469       -0.00043348483708
25