25
 energy: -42.247909719591 gnorm: 0.003308843982 xtb: 6.6.1 (8d0f1dd)
C            3.22105489282705        1.13639229475288        0.01648115764213
N            2.27135039811284        0.05530710078377        0.00023493491119
C            2.54220163605214       -1.24182800245429       -0.00594116769141
N            1.39014001621201       -1.95133835256835       -0.00324022011698
C            0.35227733092152       -1.06603470770485        0.00476209810669
C            0.90652775055748        0.20311538287873        0.00825549544626
C            0.07647194838734        1.39665956064805       -0.00301432156131
O            0.48282627494818        2.53337672923891       -0.01990052953510
N           -1.27551801918341        1.06604261542703        0.00302757708346
C           -2.23259135189542        2.16635668600105       -0.00279937173466
C           -1.85024519560431       -0.19278994808212        0.00804279294591
O           -3.03571996540468       -0.36179444711101        0.01217111823563
N           -0.96848035660975       -1.29893149642891        0.00770966795973
C           -1.51837233938116       -2.64032971909360       -0.00945436641663
H            3.72114730874129        1.18528269433401        0.98479702745069
H            3.97166922050194        0.99274922415168       -0.75949952140511
H            2.68872413526329        2.07224882262413       -0.15170833490400
H            3.52409344865477       -1.67267439128465       -0.01328447710255
H           -1.67560632980018        3.09981101800974        0.00346096532908
H           -2.85875048066290        2.10565232318727       -0.89217121087864
H           -2.87377767481739        2.10099229204056        0.87536094315280
H           -1.20239513495545       -3.19337832994199        0.87658521482512
H           -1.21434789827223       -3.17020613571429       -0.91035894588259
H           -2.60413546331111       -2.54716037899057        0.01049342591342
H            1.32188736281786       -2.95928229310320       -0.00883833387307
