72
 energy: -103.308369937656 gnorm: 0.109105285369 xtb: 6.6.1 (8d0f1dd)
N           -1.49183066915284        2.78345745177248        2.24011374273558
C           -1.56400238877611        2.15323013301151        1.16241981539709
C           -2.74807759394477        2.05823611870035        0.25404452328642
C           -3.31848977529439        0.64744856313768        0.33446558657537
C           -4.30245373531657        0.24093759555493       -0.56644713462747
C           -4.84324262680892       -1.03214470584459       -0.52051098124395
O           -5.81370257321968       -1.50822289292181       -1.36089685929378
C           -6.37971766121930       -0.62760907237967       -2.29575265682711
C           -4.39682596993279       -1.94808804311101        0.45970137868217
O           -4.98961286198580       -3.17840174716129        0.41996012155868
C           -4.65823330939985       -4.10596195402723        1.42755210465271
C           -3.42650966193442       -1.54320343817869        1.34672377925739
C           -2.89206070271807       -0.25915180363622        1.28382519931745
C           -2.19494947186938        2.29729618658950       -1.17841589252476
C           -1.26320640785109        1.17842060852476       -1.66823219501639
C            0.01284768475981        1.13608388943303       -0.90671165277961
N            0.64549718552773       -0.03998213175327       -0.56747318705348
C            2.02743269833411       -0.03052947128132       -0.17369717369189
C            2.96128682706925       -0.50561421531369       -1.31561388064798
C            4.38120504434078       -0.41607444488740       -0.87992715254196
C            5.10552163002959        0.74827373403837       -1.05763180949384
C            6.41727229971150        0.84434344257381       -0.60390706898384
C            7.02506088285037       -0.23214188067358        0.04263626119816
O            8.29608684379700       -0.24404939404382        0.52568813573624
C            9.09746674101655        0.88814913728350        0.32599026346877
C            6.23672879005782       -1.38657817560251        0.22698371770400
O            6.76640539445532       -2.41405238153522        0.98110436575691
C            6.18536103568257       -3.59053093440666        1.18108073741569
C            4.96587586209357       -1.47063361425912       -0.22258514435079
C           -0.02027328605363       -1.30633748971611       -0.62849168004036
C           -3.87972072939088        3.07216084045133        0.58260581464471
C           -4.50666645396066        2.77249232663792        1.94429183586783
C           -3.40306587158521        4.52194365764933        0.54833443041647
H           -4.64663145199457        0.93200201728165       -1.31579744430315
H           -6.83139112380086        0.24422567114598       -1.80864479074290
H           -7.15286780185190       -1.20457528836732       -2.80182274862519
H           -5.64566003084517       -0.28718379531460       -3.03440500020691
H           -4.87872628511696       -3.71512746345355        2.42435896797031
H           -5.28493220484995       -4.97536632663730        1.22775854208413
H           -3.60311228819566       -4.39751768157748        1.37781909552449
H           -3.06966516448314       -2.21917096798905        2.11259492122352
H           -2.14658401176521        0.02543751688223        2.01047721757389
H           -3.03081533755623        2.38803568276374       -1.87203734645305
H           -1.64974384878908        3.24176943630921       -1.19324373214005
H           -1.78916879896259        0.23583092638946       -1.62759750300430
H           -1.01566525576998        1.38075719269062       -2.72595306086867
H           -0.69227441013203        1.63995561682627        0.68029326871615
H            0.66008547017055        1.99548724683410       -0.99087791333537
H            2.16079117104693       -0.66626657686033        0.71474368053386
H            2.30673050760804        0.99117035424072        0.09785195871923
H            2.77876165417160        0.14202556466550       -2.18456317977381
H            2.70480360893833       -1.52526024984741       -1.57631599629686
H            4.66632955664453        1.59838836644537       -1.56199171968192
H            6.96715721503795        1.75804051742535       -0.77281002293523
H            8.68197389028234        1.76831722330256        0.82756944727159
H            9.23256385795409        1.10521763518805       -0.73841643585787
H           10.06894003629324        0.63882010719202        0.76540864387517
H            6.90113293006780       -4.22273641387691        1.69996467489408
H            5.29690906309769       -3.44726309627605        1.81572123805165
H            5.90312198423150       -4.08090972843639        0.24300964042486
H            4.38565071913503       -2.36160463258593       -0.07610467978020
H           -0.18437267459932       -1.62878418889126       -1.67305576363782
H           -0.98607654602443       -1.25213909015221       -0.12675713724802
H            0.59591825790397       -2.05870966050886       -0.13252705339347
H           -4.65518322068244        2.95445698690648       -0.18364191562067
H           -3.75663727653159        2.90035914254535        2.72462029610425
H           -4.87804247195680        1.74483346698052        1.98562439509424
H           -5.33108921145528        3.45455526816805        2.13224029072002
H           -2.60182042315145        4.68129055973636        1.27199517156790
H           -3.04470384382950        4.80596774715729       -0.43844476983522
H           -4.23592290205281        5.17978520673693        0.80677119544840
H           -0.61958584477172        2.78610565659968        2.74489745106635
72
 energy: -103.314924767595 gnorm: 0.039031384216 xtb: 6.6.1 (8d0f1dd)
N           -1.50833007134371        2.80377733448107        2.24549438914129
C           -1.56860552612939        2.15348861956383        1.17392964578119
C           -2.74994490520174        2.05764537421602        0.25574965848082
C           -3.32002768408170        0.64696969774926        0.33558116083779
C           -4.30371295167685        0.23937884686196       -0.56752101197769
C           -4.84497721502992       -1.03148858433704       -0.52065013935050
O           -5.81278194511204       -1.50600524508025       -1.36000173357217
C           -6.37863117234328       -0.62653065730542       -2.29613939502908
C           -4.39760843911052       -1.94807300289184        0.45752200347193
O           -4.98938872735505       -3.17740007334566        0.42162116532258
C           -4.65782148037359       -4.10498348363564        1.42614209116003
C           -3.42634438639180       -1.54299101687716        1.34928916715818
C           -2.89449740906716       -0.25876886081902        1.28819587876882
C           -2.19456071335162        2.29657211867898       -1.17585997687283
C           -1.25842221604689        1.18339224699473       -1.67650974867954
C            0.01866134001984        1.13769508422088       -0.91012358702001
N            0.64929901416721       -0.04322445681836       -0.56329643429907
C            2.02760290997369       -0.02807490594286       -0.17822043249184
C            2.95410676121054       -0.49934151952987       -1.32388252066967
C            4.37766130908750       -0.40878876481218       -0.89170267993589
C            5.11129623989472        0.75086023252363       -1.06414429828114
C            6.42061959408412        0.83900038449856       -0.60931117361962
C            7.02258105637712       -0.22829578642579        0.04711987331262
O            8.29547302193546       -0.24503542419468        0.52757697235111
C            9.09771698174687        0.88798462701536        0.32560063825082
C            6.24916709869665       -1.38757461675538        0.25032047770746
O            6.82629614514598       -2.39642281179420        0.98499465094657
C            6.18824640917250       -3.58975934199175        1.18261395304821
C            4.96191430045854       -1.47268274798436       -0.21890010261769
C           -0.02094188533657       -1.30873677828738       -0.63096629490067
C           -3.88080689276885        3.07204123060168        0.58278545053863
C           -4.50571869975732        2.77212855111858        1.94440799889129
C           -3.40492431773087        4.52234110967910        0.54808806666053
H           -4.64928991634772        0.93204165085742       -1.31636889231376
H           -6.83204039048652        0.24413818432733       -1.80982780675173
H           -7.15292122739645       -1.20120152574161       -2.80257141064738
H           -5.64323025701709       -0.28693157575221       -3.03402045295451
H           -4.87901063358616       -3.71453298216663        2.42409985689116
H           -5.28198018183136       -4.97595538011974        1.23072250584602
H           -3.60305460753624       -4.39650533158960        1.37603846366187
H           -3.06859703402588       -2.21773017034069        2.11254433295335
H           -2.14753050249701        0.02618451876775        2.01265504217853
H           -3.03123074455905        2.38985779386574       -1.86989370846339
H           -1.64820692151358        3.24075108984517       -1.18877550021358
H           -1.78378573432966        0.23394297485683       -1.62801206081723
H           -1.03790353103815        1.38815394016290       -2.73799217395232
H           -0.69686896467641        1.63337045296860        0.70292093566938
H            0.67295194924953        1.99030314108881       -1.00763612101047
H            2.17009940006654       -0.66929718492359        0.70133771179264
H            2.30797859656098        0.99071108927251        0.09905308223066
H            2.77205789380263        0.14183000132294       -2.18986952243060
H            2.69869008131564       -1.52471873818329       -1.58485839137111
H            4.67151322505677        1.60179474007655       -1.56287331275507
H            6.96791813166858        1.75415432871853       -0.77227939005724
H            8.68534116450389        1.76961252552357        0.82763351872432
H            9.23192549646888        1.10617538490507       -0.73933067079580
H           10.06558189452863        0.64248484509648        0.76490298180099
H            6.89604854098655       -4.23508500634966        1.70200503343812
H            5.29146753215733       -3.47194062458364        1.81477074504064
H            5.89366437902005       -4.08552459785200        0.24606609994648
H            4.38287726080162       -2.36893917451487       -0.07146018973491
H           -0.18483230555093       -1.63257432559560       -1.66953423482843
H           -0.98940593929745       -1.25697900752753       -0.12877175818862
H            0.59030983859739       -2.06033803679313       -0.13301648523664
H           -4.65555408906318        2.95275588246370       -0.18428594401121
H           -3.75779626792171        2.89976282785060        2.72221528223335
H           -4.87993135605883        1.75011213103645        1.98474902723520
H           -5.33197556950386        3.45308339090914        2.13242651324379
H           -2.60709223540263        4.67504178421541        1.27098646289583
H           -3.04676627476881        4.80564420650530       -0.43855135914861
H           -4.23323954309234        5.18070764375930        0.80658550401616
H           -0.62717203831936        2.78992759852693        2.74835180104951
72
 energy: -103.314939634163 gnorm: 0.023528794143 xtb: 6.6.1 (8d0f1dd)
N           -1.49255218113109        2.78865264180937        2.23923180954771
C           -1.55471461143097        2.14696904832970        1.16054557945283
C           -2.74717001219176        2.05785201987183        0.25133781422678
C           -3.31580712618163        0.64622838085793        0.33130659170101
C           -4.30211200762393        0.23837441286265       -0.56938899082034
C           -4.84387435425041       -1.03194993715540       -0.52226171030095
O           -5.81095703550335       -1.50666593686056       -1.35941341780361
C           -6.38024039009702       -0.62904336661927       -2.29531667171568
C           -4.39694767821955       -1.94862870826901        0.45508261689288
O           -4.98862632191079       -3.17717081961494        0.42223280123018
C           -4.65951851639563       -4.10535168547257        1.42477477187668
C           -3.42356745048740       -1.54382698495767        1.34756133810121
C           -2.88964051185398       -0.26093570350417        1.28361856794801
C           -2.19635606229498        2.29810862509328       -1.18095421368149
C           -1.25774863958984        1.18138423697495       -1.67288482251164
C            0.01459924697422        1.13812960562940       -0.90133763373783
N            0.64854810390671       -0.04295022818286       -0.55329911840032
C            2.02259470169821       -0.02629543382791       -0.16782360710147
C            2.94918560785718       -0.49755263804645       -1.31257261146804
C            4.37207640517025       -0.40028484830117       -0.88841216750424
C            5.10641672137117        0.75790771555047       -1.05621429594895
C            6.41567441588786        0.84261440725126       -0.60648840449175
C            7.01459228912721       -0.22847650453662        0.03887953339056
O            8.28963541228530       -0.25193786510473        0.51949195148728
C            9.09539137227934        0.88202800021435        0.32615634057232
C            6.24873290458864       -1.39432651833578        0.24412179549937
O            6.84195575095046       -2.38618156418480        0.97292848289560
C            6.17216150402010       -3.58515494368021        1.18124979285025
C            4.95546523788470       -1.47406615849128       -0.22687308057766
C           -0.01914475531198       -1.30842996479160       -0.63113416367869
C           -3.87616336242890        3.07227511196708        0.58512964608202
C           -4.50225989421934        2.77007390353795        1.94584225422742
C           -3.40152662371113        4.52414624723598        0.55017053577119
H           -4.64697135993954        0.93228191498036       -1.31782012830574
H           -6.83329875036857        0.24139486001972       -1.80845215819050
H           -7.15447237272505       -1.20535303731633       -2.80010114983921
H           -5.64692285759864       -0.28882661525018       -3.03481738962241
H           -4.88093356415261       -3.71592907118539        2.42401137855705
H           -5.28482564371246       -4.97513582806570        1.22862587832330
H           -3.60509562706321       -4.39893217148790        1.37746433506439
H           -3.06839114416127       -2.21775419206804        2.11107203078877
H           -2.14331041768353        0.02478096944939        2.00788565888416
H           -3.03245763555683        2.38814698071913       -1.87664537269702
H           -1.64977328391405        3.24240958430470       -1.19646140638623
H           -1.78675595885274        0.22995141810588       -1.62561349250789
H           -1.01971779344251        1.37990267691274       -2.72821513245623
H           -0.68808837439586        1.64042054764553        0.67707555741265
H            0.66082612406116        1.99761487288603       -0.98164928184718
H            2.16091167597424       -0.66247877747012        0.71578275005192
H            2.30370402288607        0.99262994324276        0.10509063429669
H            2.77351285987742        0.13854140471717       -2.17915374331677
H            2.70276641679854       -1.52851922296036       -1.57096131197332
H            4.66250578057116        1.60358689776115       -1.55783385633042
H            6.96283920893774        1.75822935952269       -0.76930448406716
H            8.68106687593137        1.76301108673605        0.82906906485680
H            9.23202245604212        1.10481211813408       -0.73774190950293
H           10.06138581623643        0.63539271488571        0.76580988261804
H            6.88612393153612       -4.21922940234155        1.70864960570845
H            5.27950058072803       -3.44619419594338        1.81024963150185
H            5.89047137424475       -4.08326511401121        0.24231814046874
H            4.37665949165305       -2.37013677628279       -0.07947222541998
H           -0.18306108629664       -1.62503598125870       -1.66921738797170
H           -0.98720941826968       -1.25637622248663       -0.12532031726570
H            0.59459564660187       -2.05788415921392       -0.13388389934327
H           -4.65220478806660        2.95414340145119       -0.18138884103280
H           -3.75760716109628        2.90028015511139        2.72410303509092
H           -4.87561941331866        1.74901788506623        1.98524962961376
H           -5.33001119326442        3.45140861832902        2.13182510904170
H           -2.60433286926324        4.68130167376271        1.27083241686468
H           -3.04513669001275        4.80607331327491       -0.43751178091529
H           -4.23247560299868        5.17813898629873        0.80646861132324
H           -0.59671673236733        2.76545068104006        2.72463383219186
72
 energy: -103.315981844196 gnorm: 0.010480042225 xtb: 6.6.1 (8d0f1dd)
N           -1.51398374825969        2.79840458415496        2.24733803441673
C           -1.56285433605933        2.15249511288773        1.16946765231809
C           -2.75047355447060        2.05851108394749        0.25432342281772
C           -3.31943443313904        0.64741126285676        0.33512628350361
C           -4.30413542309072        0.23909140919259       -0.56651896408627
C           -4.84552304175510       -1.03171405904816       -0.52082438930428
O           -5.81160089556989       -1.50589925055004       -1.35957022399959
C           -6.37867822252458       -0.62697570742740       -2.29589759530397
C           -4.39918989630671       -1.94828509885199        0.45681175855120
O           -4.98878846099903       -3.17771710045798        0.42297826885366
C           -4.65784954475530       -4.10506323676607        1.42527901952558
C           -3.42663376627693       -1.54327703067776        1.34995595416442
C           -2.89393422823548       -0.25990817891309        1.28736091089967
C           -2.19600201081936        2.29866679612835       -1.17615969766526
C           -1.25988727578110        1.18206118786625       -1.67231979243939
C            0.01552023784971        1.13729525574687       -0.90731555129296
N            0.65031812596917       -0.04404562842667       -0.56199637209396
C            2.02562726426005       -0.03009833866668       -0.17844583904517
C            2.95690634192199       -0.50082572996715       -1.31995892989504
C            4.37837558779324       -0.40457101131375       -0.88954614877575
C            5.11248810892070        0.75269250235231       -1.05915560580666
C            6.41996560642305        0.84034479415749       -0.60497174871049
C            7.01509301696939       -0.22983576946569        0.04483656459281
O            8.29134914609085       -0.24936144820986        0.52677706281219
C            9.09687624293389        0.88496678013416        0.32759943081372
C            6.24670054625212       -1.39767310815484        0.24947400545787
O            6.83396121743178       -2.39018890488942        0.97687224945182
C            6.17590678305572       -3.59631250674734        1.18219242918863
C            4.95803756143183       -1.47544068836240       -0.22500749285320
C           -0.01963009600878       -1.30865165637324       -0.63414978852821
C           -3.88086932215929        3.07241003348239        0.58368075434422
C           -4.50629053482125        2.77096078625843        1.94507076612329
C           -3.40380320557065        4.52372508823046        0.54934228251187
H           -4.64767709865798        0.93301501534780       -1.31530420773426
H           -6.83105022885339        0.24419117555961       -1.80935689342844
H           -7.15233176059522       -1.20251214034979       -2.80253426306425
H           -5.64393262473740       -0.28684753734275       -3.03400441582809
H           -4.87846206780727       -3.71564140525930        2.42485794032590
H           -5.28265146158121       -4.97552726771829        1.22930602323999
H           -3.60280014227108       -4.39706228720897        1.37765669730198
H           -3.07110183544702       -2.21815062014360        2.11275599100516
H           -2.14872798676796        0.02630004319754        2.01264091085625
H           -3.03163641673011        2.38970378812762       -1.87167052030647
H           -1.64905517445942        3.24265585299571       -1.19052827966360
H           -1.79019300820478        0.23215124240809       -1.62627849657680
H           -1.02263791829617        1.38223428865409       -2.72734040959261
H           -0.69390542844847        1.64407126824766        0.69104442738238
H            0.66349396575545        1.99448792788060       -0.99611449012232
H            2.16397974561436       -0.66653175949112        0.70596505708418
H            2.30825079725472        0.98866366681486        0.09454912766818
H            2.78231796771344        0.13789373206888       -2.18601492797774
H            2.70855729860132       -1.53003298827258       -1.58055917686809
H            4.66877672528028        1.59580161831800       -1.56582479762353
H            6.96883341336060        1.75447013404742       -0.77290586488678
H            8.68256953309767        1.76843389217692        0.82673557475203
H            9.23144905622571        1.10355472418127       -0.73755597530996
H           10.06506152875891        0.64107466869045        0.76559914650801
H            6.90194218317376       -4.22312803505267        1.70159531343130
H            5.29075889800570       -3.45642182633454        1.81570896385662
H            5.90171731055963       -4.08414349953773        0.23876819516550
H            4.37912736895512       -2.36912387364438       -0.07541179639845
H           -0.18555807257819       -1.62881709365324       -1.67107810639987
H           -0.98672478257290       -1.25197890697701       -0.12697386921056
H            0.59358858548651       -2.05749640321125       -0.13409561569362
H           -4.65620861115476        2.95420516415026       -0.18379064919794
H           -3.75943476554792        2.90064054356481        2.72208355758837
H           -4.87999804673670        1.74927285879169        1.98496023573510
H           -5.33257755291570        3.45418828022082        2.13208183128491
H           -2.60569662641156        4.67917732222161        1.27031541547376
H           -3.04628402015608        4.80509659720441       -0.43829619388325
H           -4.23456433058399        5.17883151025365        0.80559864657356
H           -0.62317354430211        2.78349394921084        2.74070641166441
72
 energy: -103.315859890145 gnorm: 0.011454418859 xtb: 6.6.1 (8d0f1dd)
N           -1.50365872439079        2.80182405989870        2.24363955053984
C           -1.55810165355517        2.15006994163853        1.17009713994427
C           -2.74666654812116        2.05710872139710        0.25501804376035
C           -3.31817856217468        0.64721155864657        0.33445194579383
C           -4.30256401287079        0.23894975030353       -0.56767687696191
C           -4.84435592077982       -1.03200506807634       -0.52171061135781
O           -5.81202818226880       -1.50613848820515       -1.35958383013514
C           -6.37990649801677       -0.62732748072274       -2.29568198886978
C           -4.39736849007141       -1.94840567190878        0.45588290692479
O           -4.98839087733177       -3.17747216631362        0.42200052381198
C           -4.65861261335077       -4.10440652443718        1.42510603046572
C           -3.42398436053457       -1.54368190663486        1.34782237629846
C           -2.89190167080905       -0.26018939182118        1.28578567805218
C           -2.19421441788298        2.29614433410330       -1.17664479636968
C           -1.25823000691305        1.18280126377274       -1.67852454235940
C            0.01817469053227        1.13711544291644       -0.91348762714400
N            0.64928162667974       -0.04330902100942       -0.56041336837598
C            2.02511624325872       -0.02747766644970       -0.17436812519256
C            2.95283204315708       -0.49611626112399       -1.31967964949524
C            4.37709049579579       -0.40388430711531       -0.88993141273425
C            5.11107591459716        0.75362030626661       -1.06142214049147
C            6.42014056107128        0.84114743170445       -0.60804303545847
C            7.01625769453879       -0.22834889281281        0.04349950482785
O            8.29361266376874       -0.24616436990446        0.52505280798517
C            9.09850025289565        0.88821967671254        0.32516743347700
C            6.24406130273323       -1.39488855595897        0.25182696941605
O            6.82253203790380       -2.39108148670585        0.98092298238429
C            6.17141104439048       -3.59970661508266        1.18573907089614
C            4.95797159116587       -1.47098414544829       -0.22217679084961
C           -0.02058990792660       -1.30934429890218       -0.63062524248093
C           -3.87750141903151        3.07106198333448        0.58345704988105
C           -4.50312128693100        2.77046625660197        1.94508795338507
C           -3.40258276990592        4.52279554066824        0.54934386828304
H           -4.64717586365380        0.93233588158784       -1.31646154115982
H           -6.83266473327267        0.24365075360807       -1.80912968854891
H           -7.15402589403225       -1.20293629804127       -2.80141632708862
H           -5.64550251964299       -0.28750037191925       -3.03439676725560
H           -4.87926046239590       -3.71396771904169        2.42416456633634
H           -5.28384123998738       -4.97490050883540        1.22997709793661
H           -3.60375967895007       -4.39723659382588        1.37687103320595
H           -3.06661358839059       -2.21899014126802        2.10995123297177
H           -2.14440462171536        0.02529920977311        2.00936207542293
H           -3.03106305223714        2.38818734117155       -1.87035626078676
H           -1.64782456840972        3.24017101301065       -1.19119586577807
H           -1.78526206478898        0.23302348951937       -1.63067883541582
H           -1.03446680085979        1.38726016778327       -2.73723472366116
H           -0.69502576066255        1.62480061532469        0.69850522613009
H            0.67145099862926        1.99024366709965       -1.00844011688154
H            2.16812621339048       -0.66820219967751        0.70683513558127
H            2.30592254253351        0.99138244550896        0.10337963554416
H            2.76815939233859        0.14548145591915       -2.18378724187849
H            2.69602239952275       -1.52186311878896       -1.58133495916582
H            4.66509298640061        1.60257601264446       -1.55801239944807
H            6.96653750122348        1.75729280443179       -0.77191320526978
H            8.68558255817138        1.76987030840949        0.82807499673766
H            9.23192219665443        1.10843358342523       -0.73996493339892
H           10.06674673454392        0.64166815783804        0.76255955762937
H            6.89444792947473       -4.23013097480849        1.70316336165164
H            5.28812166808732       -3.46097971980077        1.81736415989186
H            5.89165263738154       -4.08152963464326        0.24398573371817
H            4.38094885019790       -2.36525805692418       -0.07155756745931
H           -0.18224917595481       -1.63247866127671       -1.66785845617449
H           -0.99018945903038       -1.25641069613881       -0.12855230677703
H            0.59036632203225       -2.05948957977303       -0.12909191916794
H           -4.65260327283544        2.95221306095037       -0.18395390748162
H           -3.75602604670864        2.89942755364693        2.72287072137655
H           -4.87674633663660        1.74832697550350        1.98474795028132
H           -5.32975100911218        3.45275248616180        2.13238357734073
H           -2.60438385499131        4.67559275041409        1.27136001385611
H           -3.04507268949159        4.80578722856853       -0.43793906182144
H           -4.23227803853178        5.17934016335290        0.80757258427971
H           -0.61540577518569        2.78253904404229        2.74015485455399
72
 energy: -103.316152467842 gnorm: 0.003909504214 xtb: 6.6.1 (8d0f1dd)
N           -1.50717740558712        2.79920657474098        2.24484282002147
C           -1.56070634608898        2.15128977516227        1.16916235633734
C           -2.74960824539309        2.05838173031324        0.25429557389234
C           -3.31916105989777        0.64757481703170        0.33405204739842
C           -4.30347174629185        0.23881795267180       -0.56786053360300
C           -4.84504691868689       -1.03210828183470       -0.52139223221053
O           -5.81195504532677       -1.50648325368626       -1.35967942208638
C           -6.37916035847842       -0.62759692713088       -2.29607820476731
C           -4.39842302033852       -1.94818363028024        0.45661341027872
O           -4.98873454268053       -3.17758990934333        0.42262491930572
C           -4.65849588262142       -4.10495783776253        1.42507638731701
C           -3.42589342703298       -1.54271252383619        1.34935480438607
C           -2.89358683020951       -0.25934043544671        1.28654914990309
C           -2.19588980280926        2.29766687026428       -1.17688157616801
C           -1.25821018923301        1.18302656002507       -1.67373561344036
C            0.01706921032517        1.13800177255530       -0.90725062590749
N            0.64975620355334       -0.04297879850980       -0.55872426206247
C            2.02591328156271       -0.02806329158526       -0.17534665152544
C            2.95418158400350       -0.49993182834422       -1.31951623864449