25
 energy: -43.830101713279 gnorm: 0.124011434853 xtb: 6.6.1 (8d0f1dd)
C            3.24118040473198        1.17429832455562        0.08658686620149
N            2.30572061854352        0.08487474139239        0.04131220333059
C            2.59546081534777       -1.21573716392009        0.03287589377247
N            1.45227209037426       -1.93637993693428        0.00587040375243
C            0.40434637354517       -1.06319747735410       -0.00860798364976
C            0.94214787886311        0.21915514941154        0.01875362037535
C            0.10225550097078        1.39986298290838       -0.00477044174400
O            0.50059711683544        2.54857386047005       -0.00383068891931
N           -1.24854789396289        1.05366365981810       -0.03312601366667
C           -2.21592470133755        2.14754996363594       -0.05513547518583
C           -1.80692514875339       -0.20577814418269       -0.04537318633219
O           -3.00359731047732       -0.38923892873933       -0.07218399906255
N           -0.93248717339216       -1.32057611985619       -0.02613924565396
C           -1.51048840875410       -2.63626350914035       -0.05467655147028
H            3.73546185904176        1.22048861170934        1.06324053322145
H            4.00443008721909        1.06131724663031       -0.68371151042957
H            2.69818199169144        2.10966544852992       -0.06999370218927
H            3.58259484960016       -1.63469726858859        0.04867997359158
H           -1.66551909121315        3.08492216688003       -0.03133525907939
H           -2.82010803815513        2.08634284371872       -0.95908240060840
H           -2.87356038781013        2.07084523802955        0.80785715578301
H           -1.12889090213875       -3.23447080846816        0.76658798370005
H           -1.26640377915053       -3.15052250132579       -0.94810022117989
H           -2.65942563980469       -2.58804686958957       -0.02994618074234
H            1.40067468039138       -2.94136531860180       -0.00474243579126
25
 energy: -43.836559684020 gnorm: 0.043429303224 xtb: 6.6.1 (8d0f1dd)
C            3.24416268891074        1.18220656432020        0.08889115921157
N            2.31021941855989        0.09920726157900        0.03965777535698
C            2.60653359801935       -1.23181730164958        0.03317504269379
N            1.43589130887061       -1.94054438628070        0.00531165087206
C            0.40083894208905       -1.06213927971699       -0.00711444631448
C            0.93106380010429        0.22237390793341        0.01698890042353
C            0.10523246194108        1.39007036724335       -0.00559068467816
O            0.49792547271514        2.55966208790417       -0.00491715496369
N           -1.25986163637475        1.04427784193989       -0.03295626795338
C           -2.21852682754786        2.14108444317627       -0.05497202849870
C           -1.81655623603505       -0.20495617813233       -0.04601411990830
O           -3.01657678042038       -0.38757962696768       -0.07335882516483
N           -0.93943915390987       -1.31414884861609       -0.02744737639724
C           -1.49777193352264       -2.64116520083906       -0.06025461306937
H            3.73927744783633        1.22321452655799        1.06482802627498
H            4.00440412326321        1.06481324158839       -0.68566426512596
H            2.69364075929199        2.10951640571163       -0.06775277585841
H            3.58658961201195       -1.65399663948774        0.04909180627637
H           -1.65434056374665        3.07100259055493       -0.03109522199325
H           -2.82222072008044        2.08634407617155       -0.96036818841157
H           -2.87678328891326        2.07167974353615        0.80983431096957
H           -1.14364919915701       -3.23123222942759        0.78595368384886
H           -1.25079255494657       -3.15700258438403       -0.98105925158458
H           -2.60191922234562       -2.55175514765507       -0.00786440539367
H            1.37610427559253       -2.94382944407115       -0.00629339258835
25
 energy: -43.837593681166 gnorm: 0.019450513339 xtb: 6.6.1 (8d0f1dd)
C            3.24515737321549        1.18539213166652        0.08799854243653
N            2.31032455056974        0.11006403546001        0.03715366228490
C            2.61582428951544       -1.23189098022236        0.03381373936993
N            1.43665447662800       -1.94013882390778        0.00693528767529
C            0.40156841462833       -1.06765778398833       -0.00492161497251
C            0.92404485662827        0.22155859717189        0.01626862851591
C            0.11489952841830        1.38270074797835       -0.00445561506852
O            0.50387746555999        2.55963219356578       -0.00358905688115
N           -1.26061065256404        1.04463022716304       -0.03226543435382
C           -2.21502921997473        2.14487758918940       -0.05522193556496
C           -1.81315111846686       -0.20030248320174       -0.04435664755619
O           -3.01344515120787       -0.38210531296394       -0.06941155850613
N           -0.94536626213909       -1.31301485035177       -0.02394073386800
C           -1.52114067985942       -2.64136759624603       -0.05357061418376
H            3.73749143460244        1.22204892572941        1.06456640755627
H            4.00683791721081        1.06049218859864       -0.68476002680728
H            2.69833242275302        2.11196784981911       -0.07230238520931
H            3.59453126457647       -1.64082972606353        0.04876661785264
H           -1.66133129141816        3.08212374596687       -0.03141902591947
H           -2.81964955202188        2.08826398082784       -0.95974702738847
H           -2.87417785178711        2.07353627952962        0.80882359816646
H           -1.14465192898372       -3.23462315975505        0.78091029473488
H           -1.26115840898278       -3.15623242189922       -0.97652982332574
H           -2.61742119825153       -2.59066508259948       -0.02442499624214
H            1.39103511355696       -2.94317408047831       -0.00331094472161
25
 energy: -43.837857627405 gnorm: 0.010909136594 xtb: 6.6.1 (8d0f1dd)
C            3.24459182791918        1.18070518015056        0.09079269034115
N            2.30902906533529        0.10765067689632        0.03775600839724
C            2.61304959388311       -1.23451966312015        0.03321559335590
N            1.43521549911001       -1.93990504314514        0.00331079249140
C            0.40430572923397       -1.06808144262221       -0.00874405574050
C            0.92327489130761        0.22220813920659        0.01574511455564
C            0.11554434806726        1.38209785693683       -0.00542678524894
O            0.49670594340353        2.55882712083515       -0.00381485090301
N           -1.26270086444498        1.04460060060249       -0.03491999449682
C           -2.21802419342140        2.14229602409216       -0.05594478970122
C           -1.80938498723527       -0.20184530176832       -0.04850833966776
O           -3.00829131694619       -0.39083314213145       -0.07557001367969
N           -0.94058812475555       -1.31068860955568       -0.02770272104537
C           -1.51994258871486       -2.63605591406992       -0.04988366432434
H            3.73932792097445        1.21766894303034        1.06597475462385
H            4.00453958499863        1.06213002577787       -0.68440965370085
H            2.69698984662057        2.10792854169595       -0.06458417538183
H            3.58972653739397       -1.64340688145751        0.04842449648514
H           -1.66179088079036        3.07768420411091       -0.03106389058150
H           -2.82314947880815        2.08600398774295       -0.96031064276841
H           -2.87660795801104        2.06927785975679        0.80857898255744
H           -1.13096016131070       -3.22832650964132        0.77894614718533
H           -1.26069610573088       -3.15367507833865       -0.96883730052896
H           -2.62018951299923       -2.56307795708572       -0.01346970169635
H            1.39347117712710       -2.94337742690990       -0.00854466250378
25
 energy: -43.837884667638 gnorm: 0.007246843948 xtb: 6.6.1 (8d0f1dd)
C            3.24277372267603        1.18017336074067        0.08626002153517
N            2.30753097886594        0.10529356694167        0.03868170471850
C            2.60857962580188       -1.23568634786248        0.03706722245822
N            1.43159898831140       -1.93901956452941        0.00931854650061
C            0.40258249955604       -1.06767876571107       -0.00419434745109
C            0.92260826565457        0.22270607769991        0.01911109833358
C            0.11597209965643        1.38343212878399       -0.00340182037653
O            0.49441042500143        2.55844662630274       -0.00471533601475
N           -1.26381867522061        1.04585014926058       -0.03076871094128
C           -2.21620482434769        2.14469975030078       -0.05407306818258
C           -1.81085934221846       -0.20170326858797       -0.04314623822144
O           -3.01033132144553       -0.38997889414268       -0.07053970003009
N           -0.94107582927545       -1.31096662305309       -0.02634349094128
C           -1.51352693606438       -2.63997240772378       -0.05741168430955
H            3.73763458928252        1.22589403351733        1.06122833472819
H            4.00404244147152        1.06174811754960       -0.68765299825159
H            2.69545411575049        2.10793424464433       -0.07432495148712
H            3.58546075295141       -1.64639457118254        0.05037022853535
H           -1.65395825194629        3.07630381813043       -0.03119116259770
H           -2.82040366149767        2.08876004791054       -0.95909788223931
H           -2.87498980675983        2.07633318376413        0.81069810977769
H           -1.13676511782996       -3.23440887480714        0.77506555600999
H           -1.24743178485569       -3.15500177663232       -0.97485599488121
H           -2.61560489159708       -2.56853318535796       -0.02427222528403
H            1.38976773028503       -2.94294463496732       -0.00080187336400
25
 energy: -43.837963434542 gnorm: 0.004964224320 xtb: 6.6.1 (8d0f1dd)
C            3.24454876088357        1.18114753250377        0.09032570866421
N            2.30949972005414        0.10582207385731        0.03697378756042
C            2.61043796458084       -1.23476818214785        0.03252519826329
N            1.43299559574628       -1.93807800968304        0.00364513339063
C            0.40284868787816       -1.06771702512253       -0.00752293066391
C            0.92404265397430        0.22311048578449        0.01604670530424
C            0.11845348125961        1.38437037799588       -0.00552135406541
O            0.49725406704216        2.55909393906814       -0.00505743712401
N           -1.26286954015527        1.04666024005071       -0.03324350167782
C           -2.21696066525985        2.14385841459487       -0.05582250976804
C           -1.81122241402974       -0.20055641097518       -0.04519257074105
O           -3.01152802898951       -0.38623446681519       -0.07068250171862
N           -0.94197866443484       -1.31106331447672       -0.02736298659051
C           -1.51521240175411       -2.64100442979431       -0.05403317519111
H            3.73774458672094        1.22167796807926        1.06668716327362
H            4.00759337757015        1.06439078010747       -0.68221970219496
H            2.69870154253719        2.11079126964598       -0.06745488785024
H            3.58893421998961       -1.64455984322167        0.04568091072661
H           -1.65924845216929        3.07799478877505       -0.03162112565634
H           -2.82099439161067        2.08715107239772       -0.96089791462550
H           -2.87596201061626        2.07208300657590        0.80839095708945
H           -1.14267837624390       -3.23303797731513        0.78227972607108
H           -1.25648596476577       -3.15846941951136       -0.97226332954120
H           -2.61605624258872       -2.57514440346833       -0.01500213725773
H            1.39158828658703       -2.94223227591631       -0.00764788765337
25
 energy: -43.837976487606 gnorm: 0.003712428434 xtb: 6.6.1 (8d0f1dd)
C            3.24439828661591        1.18098663709008        0.08788094216245
N            2.31016541551330        0.10613758868671        0.03795016369785
C            2.61244325540252       -1.23495745390635        0.03616180465128
N            1.43460742141696       -1.93874289233586        0.00689190620369
C            0.40387328376834       -1.06872807435186       -0.00630974240626
C            0.92399815952935        0.22260112458885        0.01716474220341
C            0.11913640631919        1.38327654040176       -0.00442775323495
O            0.49722099854332        2.55897314059286       -0.00253505430058
N           -1.26320660335413        1.04554103826304       -0.03376183032259
C           -2.21759495099288        2.14261607368023       -0.05492448837530
C           -1.81069492868002       -0.20120926127994       -0.04729472437811
O           -3.01062376921924       -0.38800999377098       -0.07478341283616
N           -0.94155160364977       -1.31074967914093       -0.02729682792033
C           -1.51767110662088       -2.63848473180162       -0.05428979588614
H            3.74021155858406        1.22069972271411        1.06288606689382
H            4.00402955056413        1.06117764303164       -0.68766483917315
H            2.69669444359268        2.10923325341438       -0.06957234934805
H            3.59142178048039       -1.64290388742651        0.05157311918415
H           -1.66191012126374        3.07810043548797       -0.03015809405929
H           -2.82271832225151        2.08658810903008       -0.95931489144541
H           -2.87613254215006        2.06972474422203        0.80956162410169
H           -1.13771486741082       -3.23110663890450        0.77846005676954
H           -1.26114293851253       -3.15285482107371       -0.97488379687957
H           -2.61797458250609       -2.56961193720576       -0.01716940532780
H            1.39418156848757       -2.94301048901678       -0.00313408195043
25
 energy: -43.837994797229 gnorm: 0.002742274132 xtb: 6.6.1 (8d0f1dd)
C            3.24328755996084        1.18063451779695        0.08953402423195
N            2.30902567545261        0.10579201709956        0.03755941273842
C            2.61064658495023       -1.23544677356773        0.03391162759435
N            1.43298768142393       -1.93877478175953        0.00481622689966
C            0.40292737511699       -1.06863107760873       -0.00626054085572
C            0.92283460137623        0.22274863621762        0.01699689534380
C            0.11839574995578        1.38319338845933       -0.00480704683223
O            0.49535569839559        2.55904933259328       -0.00491007150539
N           -1.26422254485460        1.04520314238484       -0.03288222087676
C           -2.21640377158031        2.14389569111240       -0.05559363715368
C           -1.81128711754555       -0.20173310444678       -0.04493356339895
O           -3.01095392738953       -0.38934879835509       -0.07124219413662
N           -0.94194522752685       -1.31088074490309       -0.02609003567170
C           -1.51603633679972       -2.63934263814881       -0.05309060209847
H            3.73706153552285        1.22095385696690        1.06546817404060
H            4.00474952954799        1.06208370468871       -0.68431908494258
H            2.69577096230730        2.10867274405073       -0.06854646246286
H            3.58902824508647       -1.64389512122086        0.04726437199670
H           -1.65728224571953        3.07752495417099       -0.03245160925390
H           -2.82125756747244        2.08809171873553       -0.96019433882148
H           -2.87517248246148        2.07469348057742        0.80909161889702
H           -1.13464555395571       -3.23102877642139        0.77956648893365
H           -1.25464933317310       -3.15427977134279       -0.97179025521051
H           -2.61706129856901       -2.57084609964635       -0.01955873044096
H            1.39229200015708       -2.94304330644416       -0.00652910899060
25
 energy: -43.838004140385 gnorm: 0.001788092480 xtb: 6.6.1 (8d0f1dd)
C            3.24460258970766        1.18091564899302        0.08874460478440
N            2.30963702644648        0.10572893750283        0.03735379789185
C            2.61017725020866       -1.23521404650155        0.03447283449111
N            1.43282778451289       -1.93820809427730        0.00564865249740
C            0.40295615612268       -1.06813828438054       -0.00673499150880
C            0.92351942797905        0.22327665599192        0.01677241490685
C            0.11913862610855        1.38412223423118       -0.00481820265394
O            0.49605251840560        2.55947299784649       -0.00436909056610
N           -1.26362215295619        1.04588063533243       -0.03302153535860
C           -2.21705230206835        2.14330220599031       -0.05491483243895
C           -1.81080629163807       -0.20120784979428       -0.04588362548138
O           -3.01061615975243       -0.38813043856090       -0.07228653954960
N           -0.94176250699367       -1.31093258033482       -0.02734024296561
C           -1.51604807847607       -2.63998902283376       -0.05454487700618
H            3.73862907941630        1.22284036009586        1.06451117978242
H            4.00685349618999        1.06300465937594       -0.68442658620647
H            2.69839796449297        2.10975837103686       -0.06997335888924
H            3.58839675759011       -1.64453920600806        0.04818680732673
H           -1.65921407085997        3.07754289122369       -0.03006412846779
H           -2.82117818927215        2.08740522556635       -0.96004199874133
H           -2.87630756261404        2.07147080051866        0.80920322430175
H           -1.13995650812521       -3.23261915919777        0.77955738653422
H           -1.25559793807831       -3.15678186661457       -0.97244375910455
H           -2.61726908663398       -2.57119049033793       -0.01787182822140
H            1.39168796249354       -2.94248439387515       -0.00470596733305
25
 energy: -43.838000558884 gnorm: 0.001788037357 xtb: 6.6.1 (8d0f1dd)
C            3.24339786339296        1.18098409784800        0.08911127396404
N            2.30970676824085        0.10547937409310        0.03801313053892
C            2.61124820984343       -1.23522482338875        0.03485234595870
N            1.43397118302909       -1.93866311935437        0.00547327632597
C            0.40333066982556       -1.06879608999498       -0.00627296402112
C            0.92351035820715        0.22265487998866        0.01748255897688
C            0.11954960461534        1.38353765376884       -0.00441955943811
O            0.49689521458359        2.55889475278187       -0.00379543134729
N           -1.26359714119954        1.04573014079934       -0.03293224254185
C           -2.21674272278886        2.14355621368080       -0.05593111151269
C           -1.81095872762172       -0.20111795639423       -0.04502098673877
O           -3.01088822882894       -0.38774557567592       -0.07185225938430
N           -0.94176404308279       -1.31089749388471       -0.02656801044151
C           -1.51623132061311       -2.63947972787712       -0.05439988693774
H            3.73887188561552        1.22053603158920        1.06428588879899
H            4.00338843979383        1.06302361187618       -0.68629561166569
H            2.69529138277376        2.10916807309509       -0.06737980407050
H            3.59016667630443       -1.64354031035360        0.04901236348572
H           -1.65918094428882        3.07803159233148       -0.03343058087423
H           -2.82215064219979        2.08665371577855       -0.96014459501513
H           -2.87505379436369        2.07352838396110        0.80903013127454
H           -1.13735544953373       -3.23236981051630        0.77845849926298
H           -1.25833668374132       -3.15383615450898       -0.97449885923937
H           -2.61693783061774       -2.57183940692941       -0.01625550310637
H            1.39331506486057       -2.94298186172491       -0.00551272422831
25
 energy: -43.822373622987 gnorm: 0.123063502523 xtb: 6.6.1 (8d0f1dd)
C            3.24512672900297        1.18228789610099        0.08887143083522
N            2.31261908008453        0.09447317052136        0.04291702836722
C            2.61053522069602       -1.21683208110117        0.03596060995336
N            1.46619842102666       -1.93601693703112        0.01131478615056
C            0.41750022554904       -1.06902558158112       -0.00833153070301
C            0.95016225017484        0.22158008442247        0.02191115643132
C            0.10989778433883        1.39454696184393       -0.00543736109458
O            0.50449523683650        2.55487000099186       -0.00431374916384
N           -1.24609786651813        1.04489417153734       -0.03580088896970
C           -2.21268147731505        2.14010153458207       -0.06043708657136
C           -1.79565960896919       -0.20988497831967       -0.04640778247769
O           -2.99592610834965       -0.39699095041565       -0.07608827461291
N           -0.92989448686334       -1.33967740166271       -0.01466646449072
C           -1.55116772686118       -2.62705420059222       -0.04819574958597
H            3.75852484829583        1.22496073780851        1.06111387489662
H            4.00030023600541        1.08816312164457       -0.69389897130464
H            2.69734518850706        2.12111610031126       -0.04844213064636
H            3.59822190506063       -1.63206739644358        0.05529217101802
H           -1.66002037041101        3.07680063079410       -0.03736987250915
H           -2.81589336650735        2.07845254159936       -0.96502562535668
H           -2.87071214910333        2.06451212591144        0.80098992172855
H           -1.08633289698329       -3.27357948891678        0.70116122173668
H           -1.38749260134683       -3.12759573964581       -0.94933805691141
H           -2.75679163386772       -2.60979602397985        0.03050189959113
H            1.42050992588924       -2.93931067410105        0.00310272231693
25
 energy: -43.831446848651 gnorm: 0.047301035592 xtb: 6.6.1 (8d0f1dd)
C            3.24526104093638        1.18778957801756        0.09105519253077
N            2.31364257752854        0.10370706082523        0.04183947613850
C            2.61595161824329       -1.22980367069853        0.03656079974678
N            1.44700010384581       -1.93977585992635        0.01071621058967
C            0.40640816781436       -1.06942234464809       -0.00444542804557
C            0.93422987833345        0.22062762550688        0.02033207421737
C            0.11051837588053        1.38429745988810       -0.00560661260522
O            0.50009571084114        2.55736434313852       -0.00520669681835
N           -1.25727945547588        1.03825584670280       -0.03494153707908
C           -2.21513435344011        2.13554631658628       -0.06044624373473
C           -1.80914140750287       -0.20814624405101       -0.04612199743525
O           -3.01015170856738       -0.39096460982482       -0.07900851568765
N           -0.94003733223249       -1.32886319800220       -0.01684882584795
C           -1.52777601600714       -2.64017104390174       -0.06136615939484
H            3.75729464552466        1.22315558821961        1.06045558814171
H            3.99714850783306        1.08742085972531       -0.69495500076300
H            2.69135266282689        2.11748582116559       -0.04666285774689
H            3.59792947635392       -1.64671327524314        0.05567544268595
H           -1.65002186229796        3.06506177882327       -0.03721567032127
H           -2.81747364348575        2.07902691748742       -0.96658207686813
H           -2.87414998587570        2.06639625740201        0.80325420214340
H           -1.11716696911851       -3.27186255566441        0.73282789438819
H           -1.36459209212619       -3.13704163832055       -1.00543961963223
H           -2.64731258957622       -2.55122858006217        0.07082692193618
H            1.39617140811568       -2.94321480886702        0.00068671808924
25
 energy: -43.833086095090 gnorm: 0.023834730902 xtb: 6.6.1 (8d0f1dd)
C            3.24933650486186        1.19291618359292        0.09065257357733
N            2.31706062786771        0.11191723158601        0.03915379830676
C            2.62467219842422       -1.22967286926746        0.03615313257995
N            1.44718159005812       -1.93917280865195        0.01199642915651
C            0.40470446245515       -1.07392210663660       -0.00151001775616
C            0.92937481977024        0.21918179678166        0.01794392912843
C            0.12011597014038        1.38005291687366       -0.00617161573030
O            0.50545297448154        2.55786892338876       -0.00567480063996
N           -1.25577808059377        1.03950140985250       -0.03511760276676
C           -2.21140653396811        2.13745642166797       -0.06067289088783
C           -1.80797781556940       -0.20342987941164       -0.04367902395191
O           -3.00856300737965       -0.38411691077290       -0.07106822151171
N           -0.94804883317287       -1.32373355753454       -0.00947660982349
C           -1.55785195325310       -2.63823286715175       -0.04365482104422
H            3.75966055089521        1.22529923359260        1.05927676340375
H            4.00178508186333        1.08826406289039       -0.69481140170791
H            2.69732386765252        2.12077826013288       -0.04937961956662
H            3.60530400153092       -1.63892919338857        0.05515762000326
H           -1.65378256745429        3.07190093631085       -0.03750110073887
H           -2.81535498985913        2.07948172083913       -0.96563269829614
H           -2.87095989229772        2.06662735733542        0.80307593491935
H           -1.11489165138887       -3.26791134107864        0.72847944473681
H           -1.37942602489615       -3.13067497452607       -0.99485262386873
H           -2.66216400432659       -2.60964929749851        0.03226624916285
H            1.40699946252996       -2.94287302464760        0.00443045194318
25
 energy: -43.833406647640 gnorm: 0.014810518887 xtb: 6.6.1 (8d0f1dd)
C            3.24848935843422        1.19108625778937        0.09415051007204
N            2.31751634941345        0.11150138715971        0.04016351205400
C            2.62679469314620       -1.23030288037189        0.03630146042254
N            1.45147198736037       -1.93982971039354        0.00762036418634
C            0.41066458929127       -1.07741534807908       -0.00878233384860
C            0.92939997966434        0.21844101659764        0.01707889098427
C            0.12241845498204        1.37882024350901       -0.00499583896837
O            0.49982731716876        2.55749955667353       -0.00115727960193
N           -1.25610006529225        1.03781948268272       -0.03812802669285
C           -2.21357062016594        2.13395403854663       -0.06211462118610
C           -1.80117892353573       -0.20818756197798       -0.05069379788794
O           -3.00013230577472       -0.39706714380500       -0.08208055993712
N           -0.94127436002827       -1.32431866862943       -0.01757458770319
C           -1.56741163924912       -2.63386573856412       -0.03884374271123
H            3.75823042046090        1.22262249926345        1.06300185156593
H            3.99982190470782        1.08831399620428       -0.69258510425703
H            2.69530391192052        2.11863019646441       -0.04460950980040
H            3.60611640494808       -1.63715164273437        0.05663984887212
H           -1.65851975491710        3.06994493236998       -0.03673526180234
H           -2.81765785723564        2.07727567436919       -0.96712012931391
H           -2.87429784539150        2.06130318673720        0.80065381169053
H           -1.09684033779492       -3.26650865748081        0.71321020102766
H           -1.39127482273007       -3.13003725219751       -0.98565693080564
H           -2.68282893539656       -2.56990937715580        0.06253531667523
H            1.41779885438535       -2.94369086269905       -0.00089476440643
25
 energy: -43.833651116685 gnorm: 0.009760852232 xtb: 6.6.1 (8d0f1dd)
C            3.24654061175282        1.18793245998393        0.08952434679319
N            2.31400592898675        0.10932891575682        0.04156128216445
C            2.61946251681511       -1.23205897153421        0.03932863330001
N            1.44468764872024       -1.93848619676081        0.01434675396631
C            0.40775479303720       -1.07470058150092       -0.00170305311776
C            0.92706746975720        0.22070649871429        0.02205482279725
C            0.12095702725217        1.38173213889327       -0.00381201391115
O            0.49673410934870        2.55913759670062       -0.00634363233485
N           -1.25876580842752        1.04045259949267       -0.03351461082466
C           -2.21288967793614        2.13853904223180       -0.05940445438685
C           -1.80371352253106       -0.20705427410734       -0.04445525625439
O           -3.00348993263497       -0.39485629095095       -0.07645716010338
N           -0.94167537869726       -1.32313712028035       -0.01629193388768
C           -1.55491913921348       -2.63914202008622       -0.04901301249595
H            3.75879586528656        1.22369217388693        1.05721622198845
H            3.99666274139918        1.08439321405118       -0.69830810532250
H            2.69447114485943        2.11686119832772       -0.05052967841385
H            3.59773035122360       -1.64217029004311        0.05546797778593
H           -1.65141350544970        3.07080321002994       -0.03750554980550
H           -2.81740034850219        2.08171553326867       -0.96417021990811