      -----------------------------------------------------------      
     |                   =====================                   |     
     |                           x T B                           |     
     |                   =====================                   |     
     |                         S. Grimme                         |     
     |          Mulliken Center for Theoretical Chemistry        |     
     |                    University of Bonn                     |     
      -----------------------------------------------------------      

   * xtb version 6.6.1 (8d0f1dd) compiled by 'conda@1efc2f54142f' on 2023-08-01

   xtb is free software: you can redistribute it and/or modify it under
   the terms of the GNU Lesser General Public License as published by
   the Free Software Foundation, either version 3 of the License, or
   (at your option) any later version.
   
   xtb is distributed in the hope that it will be useful,
   but WITHOUT ANY WARRANTY; without even the implied warranty of
   MERCHANTABILITY or FITNESS FOR A PARTICULAR PURPOSE.  See the
   GNU Lesser General Public License for more details.
   
   Cite this work as:
   * C. Bannwarth, E. Caldeweyher, S. Ehlert, A. Hansen, P. Pracht,
     J. Seibert, S. Spicher, S. Grimme, WIREs Comput. Mol. Sci., 2020, 11,
     e01493. DOI: 10.1002/wcms.1493
   
   for GFN2-xTB:
   * C. Bannwarth, S. Ehlert and S. Grimme., J. Chem. Theory Comput., 2019,
     15, 1652-1671. DOI: 10.1021/acs.jctc.8b01176
   for GFN1-xTB:
   * S. Grimme, C. Bannwarth, P. Shushkov, J. Chem. Theory Comput., 2017,
     13, 1989-2009. DOI: 10.1021/acs.jctc.7b00118
   for GFN0-xTB:
   * P. Pracht, E. Caldeweyher, S. Ehlert, S. Grimme, ChemRxiv, 2019, preprint.
     DOI: 10.26434/chemrxiv.8326202.v1
   for GFN-FF:
   * S. Spicher and S. Grimme, Angew. Chem. Int. Ed., 2020, 59, 15665-15673.
     DOI: 10.1002/anie.202004239
   
   for ALPB and GBSA implicit solvation:
   * S. Ehlert, M. Stahn, S. Spicher, S. Grimme, J. Chem. Theory Comput.,
     2021, 17, 4250-4261. DOI: 10.1021/acs.jctc.1c00471
   
   for DFT-D4:
   * E. Caldeweyher, C. Bannwarth and S. Grimme, J. Chem. Phys., 2017,
     147, 034112. DOI: 10.1063/1.4993215
   * E. Caldeweyher, S. Ehlert, A. Hansen, H. Neugebauer, S. Spicher,
     C. Bannwarth and S. Grimme, J. Chem. Phys., 2019, 150, 154122.
     DOI: 10.1063/1.5090222
   * E. Caldeweyher, J.-M. Mewes, S. Ehlert and S. Grimme, Phys. Chem. Chem. Phys.
     2020, 22, 8499-8512. DOI: 10.1039/D0CP00502A
   
   for sTDA-xTB:
   * S. Grimme and C. Bannwarth, J. Chem. Phys., 2016, 145, 054103.
     DOI: 10.1063/1.4959605
   
   in the mass-spec context:
   * V. Asgeirsson, C. Bauer and S. Grimme, Chem. Sci., 2017, 8, 4879.
     DOI: 10.1039/c7sc00601b
   * J. Koopman and S. Grimme, ACS Omega 2019, 4, 12, 15120-15133.
     DOI: 10.1021/acsomega.9b02011
   
   for metadynamics refer to:
   * S. Grimme, J. Chem. Theory Comput., 2019, 155, 2847-2862
     DOI: 10.1021/acs.jctc.9b00143
   
   for SPH calculations refer to:
   * S. Spicher and S. Grimme, J. Chem. Theory Comput., 2021, 17, 1701-1714
     DOI: 10.1021/acs.jctc.0c01306
   
   with help from (in alphabetical order)
   P. Atkinson, C. Bannwarth, F. Bohle, G. Brandenburg, E. Caldeweyher
   M. Checinski, S. Dohm, S. Ehlert, S. Ehrlich, I. Gerasimov, C. Hölzer
   A. Katbashev, J. Koopman, C. Lavigne, S. Lehtola, F. März, M. Müller,
   F. Musil, H. Neugebauer, J. Pisarek, C. Plett, P. Pracht, F. Pultar,
   J. Seibert, P. Shushkov, S. Spicher, M. Stahn, M. Steiner, T. Strunk,
   J. Stückrath, T. Rose, and J. Unsleber
   
 * started run on 2024/04/06 at 11:13:13.033     

           -------------------------------------------------
          |                Calculation Setup                |
           -------------------------------------------------

          program call               : xtb struc.xyz --opt loose --input .xc1 --gfn2
          hostname                   : n-62-30-23
          coordinate file            : struc.xyz
          omp threads                :                     1

   ID    Z sym.   atoms
    1    7 N      1, 17
    2    6 C      2-6, 8, 9, 11-16, 18-23, 25, 26, 28-33
    3    8 O      7, 10, 24, 27
    4    1 H      34-72
constraining bond 16 18 to    5.0000000 Å, actual value:    2.4007352 Å

           -------------------------------------------------
          |                 G F N 2 - x T B                 |
           -------------------------------------------------

        Reference                      10.1021/acs.jctc.8b01176
      * Hamiltonian:
        H0-scaling (s, p, d)           1.850000    2.230000    2.230000
        zeta-weighting                 0.500000
      * Dispersion:
        s8                             2.700000
        a1                             0.520000
        a2                             5.000000
        s9                             5.000000
      * Repulsion:
        kExp                           1.500000    1.000000
        rExp                           1.000000
      * Coulomb:
        alpha                          2.000000
        third order                    shell-resolved
        anisotropic                    true
        a3                             3.000000
        a5                             4.000000
        cn-shift                       1.200000
        cn-exp                         4.000000
        max-rad                        5.000000


          ...................................................
          :                      SETUP                      :
          :.................................................:
          :  # basis functions                 171          :
          :  # atomic orbitals                 171          :
          :  # shells                          105          :
          :  # electrons                       180          :
          :  max. iterations                   250          :
          :  Hamiltonian                  GFN2-xTB          :
          :  restarted?                      false          :
          :  GBSA solvation                  false          :
          :  PC potential                    false          :
          :  electronic temp.         5000.0000000     K    :
          :  accuracy                    1.0000000          :
          :  -> integral cutoff          0.2500000E+02      :
          :  -> integral neglect         0.1000000E-07      :
          :  -> SCF convergence          0.1000000E-05 Eh   :
          :  -> wf. convergence          0.1000000E-03 e    :
          :  Broyden damping             0.4000000          :
          ...................................................

 iter      E             dE          RMSdq      gap      omega  full diag
   1   -100.5973919 -0.100597E+03  0.374E+00    3.20       0.0  T
   2   -100.7362642 -0.138872E+00  0.221E+00    1.08       1.0  T
   3   -100.7049001  0.313641E-01  0.141E+00    3.29       1.0  T
   4   -100.7721690 -0.672689E-01  0.526E-01    1.50       1.0  T
   5   -100.7894292 -0.172602E-01  0.190E-01    1.98       1.0  T
   6   -100.7911978 -0.176856E-02  0.792E-02    1.77       1.0  T
   7   -100.7914750 -0.277198E-03  0.375E-02    1.83       1.0  T
   8   -100.7914914 -0.164582E-04  0.140E-02    1.83       1.0  T
   9   -100.7914976 -0.616739E-05  0.474E-03    1.82       2.5  T
  10   -100.7914988 -0.118227E-05  0.172E-03    1.82       6.8  T
  11   -100.7914989 -0.139928E-06  0.766E-04    1.82      15.4  T
  12   -100.7914989 -0.773143E-08  0.318E-04    1.82      37.0  T

   *** convergence criteria satisfied after 12 iterations ***

         #    Occupation            Energy/Eh            Energy/eV
      -------------------------------------------------------------
         1        2.0000           -0.8078051             -21.9815
       ...           ...                  ...                  ...
        84        1.9966           -0.5157491             -14.0342
        85        1.9959           -0.5128261             -13.9547
        86        1.9840           -0.4911498             -13.3649
        87        1.9795           -0.4872543             -13.2589
        88        1.9640           -0.4782114             -13.0128
        89        1.8920           -0.4602041             -12.5228
        90        1.8557           -0.4553147             -12.3897 (HOMO)
        91        0.3166           -0.3884132             -10.5693 (LUMO)
        92        0.0218           -0.3434697              -9.3463
        93        0.0041           -0.3169887              -8.6257
        94        0.0034           -0.3139726              -8.5436
        95        0.0029           -0.3112618              -8.4699
       ...           ...                  ...                  ...
       171                          0.5822580              15.8440
      -------------------------------------------------------------
                  HL-Gap            0.0669015 Eh            1.8205 eV
             Fermi-level           -0.4148687 Eh          -11.2892 eV

 SCC (total)                   0 d,  0 h,  0 min,  0.195 sec
 SCC setup                      ...        0 min,  0.001 sec (  0.647%)
 Dispersion                     ...        0 min,  0.002 sec (  1.118%)
 classical contributions        ...        0 min,  0.001 sec (  0.290%)
 integral evaluation            ...        0 min,  0.020 sec ( 10.497%)
 iterations                     ...        0 min,  0.100 sec ( 51.068%)
 molecular gradient             ...        0 min,  0.070 sec ( 36.034%)
 printout                       ...        0 min,  0.001 sec (  0.337%)

         :::::::::::::::::::::::::::::::::::::::::::::::::::::
         ::                     SUMMARY                     ::
         :::::::::::::::::::::::::::::::::::::::::::::::::::::
         :: total energy             -98.197793773728 Eh    ::
         :: gradient norm              0.706811725181 Eh/a0 ::
         :: HOMO-LUMO gap              1.820481192090 eV    ::
         ::.................................................::
         :: SCC energy              -100.791498925389 Eh    ::
         :: -> isotropic ES            0.109302908418 Eh    ::
         :: -> anisotropic ES          0.005415138735 Eh    ::
         :: -> anisotropic XC          0.042392697176 Eh    ::
         :: -> dispersion             -0.075527661009 Eh    ::
         :: repulsion energy           1.386151658689 Eh    ::
         :: add. restraining           1.206337140466 Eh    ::
         :: total charge               1.000000000108 e     ::
         :::::::::::::::::::::::::::::::::::::::::::::::::::::

      ----------------------------------------------------------- 
     |                   =====================                   |
     |                        A N C O P T                        |
     |                   =====================                   |
     |               Approximate Normal Coordinate               |
     |                Rational Function Optimizer                |
      ----------------------------------------------------------- 

          ...................................................
          :                      SETUP                      :
          :.................................................:
          :   optimization level             loose          :
          :   max. optcycles                   200          :
          :   ANC micro-cycles                  20          :
          :   degrees of freedom               210          :
          :.................................................:
          :   RF solver                   davidson          :
          :   write xtbopt.log                true          :
          :   linear?                        false          :
          :   energy convergence         0.5000000E-04 Eh   :
          :   grad. convergence          0.4000000E-02 Eh/α :
          :   maxmium RF displ.          1.0000000          :
          :   Hlow (freq-cutoff)         0.1000000E-01      :
          :   Hmax (freq-cutoff)         5.0000000          :
          :   S6 in model hess.         20.0000000          :
          ...................................................

generating ANC from model Hessian ...
Using Lindh-Hessian (1995)
 Shifting diagonal of input Hessian by    5.6942657303427215E-002
 Lowest  eigenvalues of input Hessian
    0.010000    0.036374    0.000000    0.000000    0.000000    0.000000
    0.000000    0.000000    0.056996    0.057008    0.057104    0.057266
    0.057311    0.057770    0.057968    0.058401    0.058776    0.059092
 Highest eigenvalues
    2.092899    2.094984    2.098522    2.226386    2.231442    2.233998


........................................................................
.............................. CYCLE    1 ..............................
........................................................................

 iter      E             dE          RMSdq      gap      omega  full diag
   1   -100.7914989 -0.100791E+03  0.114E-04    1.82       0.0  T
   2   -100.7914989 -0.678995E-10  0.713E-05    1.82     165.2  T
   3   -100.7914989  0.665210E-10  0.496E-05    1.82     237.5  T
     SCC iter.                  ...        0 min,  0.026 sec
     gradient                   ...        0 min,  0.069 sec
 * total energy  :   -98.1977938 Eh     change       -0.4035485E-08 Eh
   gradient norm :     0.7068139 Eh/α   predicted     0.0000000E+00 (-100.00%)
   displ. norm   :     0.5575368 α      lambda       -0.3512690E+00
   maximum displ.:     0.1797727 α      in ANC's #193, #192, #149, ...

........................................................................
.............................. CYCLE    2 ..............................
........................................................................

 iter      E             dE          RMSdq      gap      omega  full diag
   1   -100.7245969 -0.100725E+03  0.588E-01    1.32       0.0  T
   2   -100.7282540 -0.365714E-02  0.520E-01    2.21       1.0  T
   3   -100.7443925 -0.161384E-01  0.222E-01    1.58       1.0  T
   4   -100.7437401  0.652352E-03  0.169E-01    1.83       1.0  T
   5   -100.7454157 -0.167557E-02  0.331E-02    1.65       1.0  T
   6   -100.7455302 -0.114507E-03  0.878E-03    1.68       1.3  T
   7   -100.7455314 -0.123992E-05  0.459E-03    1.68       2.6  T
   8   -100.7455322 -0.725365E-06  0.166E-03    1.68       7.1  T
   9   -100.7455323 -0.153550E-06  0.440E-04    1.68      26.8  T
  10   -100.7455323 -0.551694E-08  0.220E-04    1.68      53.6  T
     SCC iter.                  ...        0 min,  0.081 sec
     gradient                   ...        0 min,  0.069 sec
 * total energy  :   -98.4776278 Eh     change       -0.2798341E+00 Eh
   gradient norm :     0.4154139 Eh/α   predicted    -0.2302384E+00 ( -17.72%)
   displ. norm   :     0.6314976 α      lambda       -0.2356012E+00
   maximum displ.:     0.1815235 α      in ANC's #193, #149, #192, ...

........................................................................
.............................. CYCLE    3 ..............................
........................................................................

 iter      E             dE          RMSdq      gap      omega  full diag
   1   -100.6222312 -0.100622E+03  0.636E-01    1.35       0.0  T
   2   -100.6185745  0.365671E-02  0.675E-01    2.14       1.0  T
   3   -100.6512890 -0.327145E-01  0.191E-01    1.64       1.0  T
   4   -100.6500842  0.120489E-02  0.120E-01    1.77       1.0  T
   5   -100.6511836 -0.109943E-02  0.594E-02    1.64       1.0  T
   6   -100.6514781 -0.294539E-03  0.130E-02    1.68       1.0  T
   7   -100.6514914 -0.132887E-04  0.393E-03    1.67       3.0  T
   8   -100.6514917 -0.305643E-06  0.188E-03    1.67       6.3  T
   9   -100.6514919 -0.146673E-06  0.712E-04    1.67      16.6  T
  10   -100.6514919 -0.260148E-07  0.265E-04    1.67      44.5  T
     SCC iter.                  ...        0 min,  0.081 sec
     gradient                   ...        0 min,  0.069 sec
 * total energy  :   -98.6652074 Eh     change       -0.1875796E+00 Eh
   gradient norm :     0.2561731 Eh/α   predicted    -0.1647800E+00 ( -12.15%)
   displ. norm   :     0.7143663 α      lambda       -0.1648770E+00
   maximum displ.:     0.2064172 α      in ANC's #57, #52, #193, ...

........................................................................
.............................. CYCLE    4 ..............................
........................................................................

 iter      E             dE          RMSdq      gap      omega  full diag
   1   -100.5100562 -0.100510E+03  0.600E-01    1.42       0.0  T
   2   -100.4095442  0.100512E+00  0.129E+00    1.43       1.0  T
   3   -100.5485293 -0.138985E+00  0.324E-01    1.64       1.0  T
   4   -100.5499774 -0.144805E-02  0.272E-01    1.52       1.0  T
   5   -100.5523289 -0.235153E-02  0.142E-01    1.61       1.0  T
   6   -100.5535416 -0.121270E-02  0.706E-02    1.60       1.0  T
   7   -100.5539951 -0.453442E-03  0.194E-02    1.62       1.0  T
   8   -100.5540270 -0.319602E-04  0.576E-03    1.63       2.0  T
   9   -100.5540275 -0.502411E-06  0.227E-03    1.63       5.2  T
  10   -100.5540278 -0.287240E-06  0.804E-04    1.63      14.7  T
  11   -100.5540279 -0.374986E-07  0.367E-04    1.63      32.1  T
     SCC iter.                  ...        0 min,  0.089 sec
     gradient                   ...        0 min,  0.069 sec
 * total energy  :   -98.8084149 Eh     change       -0.1432075E+00 Eh
   gradient norm :     0.2123893 Eh/α   predicted    -0.1245085E+00 ( -13.06%)
   displ. norm   :     0.8062621 α      lambda       -0.1506571E+00
   maximum displ.:     0.2416572 α      in ANC's #52, #193, #57, ...

........................................................................
.............................. CYCLE    5 ..............................
........................................................................

 iter      E             dE          RMSdq      gap      omega  full diag
   1   -100.4469043 -0.100447E+03  0.545E-01    1.17       0.0  T
   2   -100.3439627  0.102942E+00  0.121E+00    0.90       1.0  T
   3   -100.4708131 -0.126850E+00  0.295E-01    1.12       1.0  T
   4   -100.4691513  0.166179E-02  0.351E-01    1.00       1.0  T
   5   -100.4755204 -0.636916E-02  0.728E-02    1.12       1.0  T
   6   -100.4759494 -0.428937E-03  0.300E-02    1.10       1.0  T
   7   -100.4759488  0.593586E-06  0.231E-02    1.13       1.0  T
   8   -100.4760174 -0.686242E-04  0.871E-03    1.11       1.4  T
   9   -100.4760227 -0.526066E-05  0.419E-03    1.12       2.8  T
  10   -100.4760239 -0.119380E-05  0.874E-04    1.12      13.5  T
  11   -100.4760239 -0.362525E-07  0.323E-04    1.12      36.4  T
  12   -100.4760239 -0.130969E-08  0.163E-04    1.12      72.5  T
     SCC iter.                  ...        0 min,  0.097 sec
     gradient                   ...        0 min,  0.069 sec
 * total energy  :   -98.9349212 Eh     change       -0.1265063E+00 Eh
   gradient norm :     0.1805535 Eh/α   predicted    -0.1242970E+00 (  -1.75%)
   displ. norm   :     0.7704957 α      lambda       -0.1050994E+00
   maximum displ.:     0.2940835 α      in ANC's #52, #193, #57, ...

........................................................................
.............................. CYCLE    6 ..............................
........................................................................

 iter      E             dE          RMSdq      gap      omega  full diag
   1   -100.4386208 -0.100439E+03  0.516E-01    1.07       0.0  T
   2   -100.4192345  0.193863E-01  0.551E-01    0.63       1.0  T
   3   -100.4323999 -0.131654E-01  0.390E-01    1.25       1.0  T
   4   -100.4431142 -0.107143E-01  0.189E-01    0.95       1.0  T
   5   -100.4441275 -0.101334E-02  0.865E-02    0.93       1.0  T
   6   -100.4450347 -0.907157E-03  0.242E-02    0.99       1.0  T
   7   -100.4451172 -0.825595E-04  0.110E-02    0.96       1.1  T
   8   -100.4451268 -0.961846E-05  0.362E-03    0.96       3.3  T
   9   -100.4451272 -0.355541E-06  0.134E-03    0.96       8.8  T
  10   -100.4451273 -0.562721E-07  0.803E-04    0.96      14.7  T
  11   -100.4451273 -0.379596E-07  0.261E-04    0.96      45.2  T
     SCC iter.                  ...        0 min,  0.088 sec
     gradient                   ...        0 min,  0.069 sec
 * total energy  :   -99.0156685 Eh     change       -0.8074728E-01 Eh
   gradient norm :     0.1603055 Eh/α   predicted    -0.8374656E-01 (   3.71%)
   displ. norm   :     0.6797609 α      lambda       -0.6640919E-01
   maximum displ.:     0.3107013 α      in ANC's #52, #55, #57, ...

........................................................................
.............................. CYCLE    7 ..............................
........................................................................

 iter      E             dE          RMSdq      gap      omega  full diag
   1   -100.4810100 -0.100481E+03  0.316E-01    0.94       0.0  T
   2   -100.4810915 -0.814085E-04  0.182E-01    0.95       1.0  T
   3   -100.4771733  0.391819E-02  0.228E-01    0.95       1.0  T
   4   -100.4806458 -0.347251E-02  0.117E-01    0.98       1.0  T
   5   -100.4816996 -0.105378E-02  0.338E-02    0.92       1.0  T
   6   -100.4817828 -0.832637E-04  0.214E-02    0.97       1.0  T
   7   -100.4818510 -0.681645E-04  0.432E-03    0.95       2.7  T
   8   -100.4818519 -0.885200E-06  0.205E-03    0.95       5.8  T
   9   -100.4818520 -0.144767E-06  0.810E-04    0.95      14.6  T
  10   -100.4818520 -0.245778E-07  0.428E-04    0.95      27.5  T
     SCC iter.                  ...        0 min,  0.080 sec
     gradient                   ...        0 min,  0.069 sec
 * total energy  :   -99.0687638 Eh     change       -0.5309528E-01 Eh
   gradient norm :     0.1509487 Eh/α   predicted    -0.4854819E-01 (  -8.56%)
   displ. norm   :     0.6728105 α      lambda       -0.5735172E-01
   maximum displ.:     0.2769845 α      in ANC's #52, #50, #11, ...

........................................................................
.............................. CYCLE    8 ..............................
........................................................................

 iter      E             dE          RMSdq      gap      omega  full diag
   1   -100.5416344 -0.100542E+03  0.280E-01    0.85       0.0  T
   2   -100.5287627  0.128717E-01  0.433E-01    1.38       1.0  T
   3   -100.5453193 -0.165566E-01  0.127E-01    0.98       1.0  T
   4   -100.5446095  0.709738E-03  0.105E-01    1.05       1.0  T
   5   -100.5454500 -0.840480E-03  0.189E-02    1.00       1.0  T
   6   -100.5454566 -0.661743E-05  0.128E-02    0.99       1.0  T
   7   -100.5454742 -0.175392E-04  0.578E-03    1.00       2.0  T
   8   -100.5454780 -0.380443E-05  0.156E-03    1.00       7.6  T
   9   -100.5454781 -0.114378E-06  0.586E-04    1.00      20.1  T
  10   -100.5454781 -0.113406E-07  0.400E-04    1.00      29.5  T
     SCC iter.                  ...        0 min,  0.081 sec
     gradient                   ...        0 min,  0.069 sec
 * total energy  :   -99.1166944 Eh     change       -0.4793066E-01 Eh
   gradient norm :     0.1563407 Eh/α   predicted    -0.4165701E-01 ( -13.09%)
   displ. norm   :     0.7207927 α      lambda       -0.6261130E-01
   maximum displ.:     0.2664512 α      in ANC's #52, #206, #50, ...

........................................................................
.............................. CYCLE    9 ..............................
........................................................................

 iter      E             dE          RMSdq      gap      omega  full diag
   1   -100.5926633 -0.100593E+03  0.339E-01    0.97       0.0  T
   2   -100.5818442  0.108191E-01  0.433E-01    1.51       1.0  T
   3   -100.5972056 -0.153614E-01  0.158E-01    1.09       1.0  T
   4   -100.5963457  0.859903E-03  0.113E-01    1.22       1.0  T
   5   -100.5974650 -0.111933E-02  0.214E-02    1.12       1.0  T
   6   -100.5974959 -0.308899E-04  0.108E-02    1.15       1.1  T
   7   -100.5975054 -0.948396E-05  0.725E-03    1.14       1.6  T
   8   -100.5975091 -0.370147E-05  0.200E-03    1.14       5.9  T
   9   -100.5975093 -0.242166E-06  0.654E-04    1.14      18.0  T
  10   -100.5975093 -0.819017E-08  0.395E-04    1.14      29.9  T
     SCC iter.                  ...        0 min,  0.081 sec
     gradient                   ...        0 min,  0.069 sec
 * total energy  :   -99.1693301 Eh     change       -0.5263565E-01 Eh
   gradient norm :     0.1523510 Eh/α   predicted    -0.4757031E-01 (  -9.62%)
   displ. norm   :     0.7446402 α      lambda       -0.6474055E-01
   maximum displ.:     0.2946018 α      in ANC's #206, #50, #1, ...

........................................................................
.............................. CYCLE   10 ..............................
........................................................................

 iter      E             dE          RMSdq      gap      omega  full diag
   1   -100.6384248 -0.100638E+03  0.508E-01    1.24       0.0  T
   2   -100.6383639  0.608877E-04  0.471E-01    1.56       1.0  T
   3   -100.6531764 -0.148125E-01  0.189E-01    1.31       1.0  T
   4   -100.6511627  0.201371E-02  0.144E-01    1.54       1.0  T
   5   -100.6533257 -0.216300E-02  0.434E-02    1.31       1.0  T
   6   -100.6536221 -0.296362E-03  0.981E-03    1.38       1.2  T
   7   -100.6536272 -0.515590E-05  0.546E-03    1.37       2.2  T
   8   -100.6536279 -0.688384E-06  0.237E-03    1.37       5.0  T
   9   -100.6536282 -0.256153E-06  0.697E-04    1.37      16.9  T
  10   -100.6536282 -0.189517E-07  0.317E-04    1.37      37.1  T
     SCC iter.                  ...        0 min,  0.081 sec
     gradient                   ...        0 min,  0.069 sec
 * total energy  :   -99.2111667 Eh     change       -0.4183661E-01 Eh
   gradient norm :     0.1370890 Eh/α   predicted    -0.5031927E-01 (  20.28%)
   displ. norm   :     0.5116607 α      lambda       -0.3385897E-01
   maximum displ.:     0.1561827 α      in ANC's #11, #52, #72, ...

........................................................................
.............................. CYCLE   11 ..............................
........................................................................

 iter      E             dE          RMSdq      gap      omega  full diag
   1   -100.6698537 -0.100670E+03  0.217E-01    1.46       0.0  T
   2   -100.6706414 -0.787688E-03  0.140E-01    1.37       1.0  T
   3   -100.6715608 -0.919474E-03  0.757E-02    1.43       1.0  T
   4   -100.6716071 -0.462444E-04  0.337E-02    1.38       1.0  T
   5   -100.6716882 -0.810621E-04  0.143E-02    1.43       1.0  T
   6   -100.6717130 -0.248619E-04  0.384E-03    1.41       3.1  T
   7   -100.6717140 -0.100384E-05  0.190E-03    1.41       6.2  T
   8   -100.6717142 -0.139145E-06  0.694E-04    1.41      17.0  T
   9   -100.6717142 -0.343858E-07  0.234E-04    1.41      50.4  T
     SCC iter.                  ...        0 min,  0.073 sec
     gradient                   ...        0 min,  0.069 sec
 * total energy  :   -99.2374526 Eh     change       -0.2628593E-01 Eh
   gradient norm :     0.1167936 Eh/α   predicted    -0.2136157E-01 ( -18.73%)
   displ. norm   :     0.6313392 α      lambda       -0.4458167E-01
   maximum displ.:     0.2683285 α      in ANC's #1, #11, #35, ...

........................................................................
.............................. CYCLE   12 ..............................
........................................................................

 iter      E             dE          RMSdq      gap      omega  full diag
   1   -100.6704501 -0.100670E+03  0.274E-01    1.50       0.0  T
   2   -100.6700825  0.367581E-03  0.187E-01    1.31       1.0  T
   3   -100.6696551  0.427455E-03  0.155E-01    1.61       1.0  T
   4   -100.6716942 -0.203915E-02  0.545E-02    1.40       1.0  T
   5   -100.6719498 -0.255589E-03  0.149E-02    1.46       1.0  T
   6   -100.6719720 -0.221819E-04  0.454E-03    1.45       2.6  T
   7   -100.6719727 -0.726960E-06  0.209E-03    1.45       5.6  T
   8   -100.6719729 -0.183191E-06  0.789E-04    1.45      14.9  T
   9   -100.6719729 -0.252244E-07  0.336E-04    1.45      35.1  T
     SCC iter.                  ...        0 min,  0.073 sec
     gradient                   ...        0 min,  0.070 sec
 * total energy  :   -99.2650184 Eh     change       -0.2756575E-01 Eh
   gradient norm :     0.0821890 Eh/α   predicted    -0.3117576E-01 (  13.10%)
   displ. norm   :     0.6575343 α      lambda       -0.2915218E-01
   maximum displ.:     0.2048973 α      in ANC's #11, #1, #52, ...

........................................................................
.............................. CYCLE   13 ..............................
........................................................................

 iter      E             dE          RMSdq      gap      omega  full diag
   1   -100.7127415 -0.100713E+03  0.235E-01    1.48       0.0  T
   2   -100.7142196 -0.147808E-02  0.158E-01    1.43       1.0  T
   3   -100.7148884 -0.668840E-03  0.842E-02    1.46       1.0  T
   4   -100.7148787  0.973913E-05  0.371E-02    1.44       1.0  T
   5   -100.7149657 -0.870856E-04  0.114E-02    1.46       1.0  T
   6   -100.7149772 -0.114819E-04  0.406E-03    1.45       2.9  T
   7   -100.7149783 -0.111070E-05  0.244E-03    1.45       4.8  T
   8   -100.7149790 -0.611633E-06  0.761E-04    1.45      15.5  T
   9   -100.7149790 -0.186167E-07  0.234E-04    1.45      50.4  T
     SCC iter.                  ...        0 min,  0.073 sec
     gradient                   ...        0 min,  0.069 sec
 * total energy  :   -99.2824100 Eh     change       -0.1739167E-01 Eh
   gradient norm :     0.0990548 Eh/α   predicted    -0.2087811E-01 (  20.05%)
   displ. norm   :     0.5824599 α      lambda       -0.1845991E-01
   maximum displ.:     0.3390601 α      in ANC's #1, #11, #52, ...

........................................................................
.............................. CYCLE   14 ..............................
........................................................................

 iter      E             dE          RMSdq      gap      omega  full diag
   1   -100.7062273 -0.100706E+03  0.142E-01    1.40       0.0  T
   2   -100.7062873 -0.600179E-04  0.101E-01    1.46       1.0  T
   3   -100.7062906 -0.332208E-05  0.607E-02    1.39       1.0  T
   4   -100.7063209 -0.302707E-04  0.331E-02    1.47       1.0  T
   5   -100.7064693 -0.148404E-03  0.573E-03    1.42       2.1  T
   6   -100.7064712 -0.190121E-05  0.304E-03    1.43       3.9  T
   7   -100.7064717 -0.471086E-06  0.106E-03    1.43      11.2  T
   8   -100.7064718 -0.697403E-07  0.334E-04    1.43      35.3  T
   9   -100.7064718 -0.298733E-08  0.139E-04    1.43      84.6  T
     SCC iter.                  ...        0 min,  0.073 sec
     gradient                   ...        0 min,  0.069 sec
 * total energy  :   -99.2971634 Eh     change       -0.1475333E-01 Eh
   gradient norm :     0.0567468 Eh/α   predicted    -0.1236132E-01 ( -16.21%)
   displ. norm   :     0.6757589 α      lambda       -0.2185283E-01
   maximum displ.:     0.2550948 α      in ANC's #11, #52, #25, ...

........................................................................
.............................. CYCLE   15 ..............................
........................................................................

 iter      E             dE          RMSdq      gap      omega  full diag
   1   -100.7144574 -0.100714E+03  0.230E-01    1.46       0.0  T
   2   -100.7146710 -0.213551E-03  0.134E-01    1.40       1.0  T
   3   -100.7140781  0.592919E-03  0.927E-02    1.52       1.0  T
   4   -100.7145876 -0.509502E-03  0.416E-02    1.37       1.0  T
   5   -100.7148269 -0.239330E-03  0.103E-02    1.44       1.1  T
   6   -100.7148359 -0.898351E-05  0.283E-03    1.43       4.2  T
   7   -100.7148359 -0.232700E-07  0.118E-03    1.43      10.0  T
   8   -100.7148360 -0.540115E-07  0.351E-04    1.43      33.6  T
   9   -100.7148360 -0.489098E-08  0.198E-04    1.43      59.4  T
     SCC iter.                  ...        0 min,  0.073 sec
     gradient                   ...        0 min,  0.068 sec
 * total energy  :   -99.3095275 Eh     change       -0.1236409E-01 Eh
   gradient norm :     0.0553715 Eh/α   predicted    -0.1591597E-01 (  28.73%)
   displ. norm   :     0.6379388 α      lambda       -0.1287337E-01
   maximum displ.:     0.3522735 α      in ANC's #1, #11, #52, ...

........................................................................
.............................. CYCLE   16 ..............................
........................................................................

 iter      E             dE          RMSdq      gap      omega  full diag
   1   -100.7035330 -0.100704E+03  0.152E-01    1.38       0.0  T
   2   -100.7035153  0.176902E-04  0.113E-01    1.46       1.0  T
   3   -100.7034575  0.578447E-04  0.726E-02    1.35       1.0  T
   4   -100.7036256 -0.168114E-03  0.402E-02    1.47       1.0  T
   5   -100.7038410 -0.215374E-03  0.574E-03    1.41       2.1  T
   6   -100.7038428 -0.178423E-05  0.244E-03    1.41       4.8  T
   7   -100.7038429 -0.124733E-06  0.117E-03    1.41      10.0  T
   8   -100.7038430 -0.733419E-07  0.377E-04    1.41      31.3  T
   9   -100.7038430 -0.468074E-08  0.154E-04    1.41      76.7  T
     SCC iter.                  ...        0 min,  0.073 sec
     gradient                   ...        0 min,  0.068 sec
 * total energy  :   -99.3180967 Eh     change       -0.8569231E-02 Eh
   gradient norm :     0.0313693 Eh/α   predicted    -0.9056195E-02 (   5.68%)
   displ. norm   :     0.4849385 α      lambda       -0.5825865E-02
   maximum displ.:     0.2271090 α      in ANC's #11, #1, #52, ...

........................................................................
.............................. CYCLE   17 ..............................
........................................................................

 iter      E             dE          RMSdq      gap      omega  full diag
   1   -100.7076694 -0.100708E+03  0.974E-02    1.41       0.0  T
   2   -100.7076894 -0.200101E-04  0.582E-02    1.42       1.0  T
   3   -100.7075351  0.154343E-03  0.377E-02    1.37       1.0  T
   4   -100.7076788 -0.143662E-03  0.161E-02    1.43       1.0  T
   5   -100.7077115 -0.327579E-04  0.309E-03    1.41       3.8  T
   6   -100.7077120 -0.483470E-06  0.132E-03    1.41       9.0  T
   7   -100.7077120 -0.386871E-07  0.410E-04    1.41      28.7  T
   8   -100.7077120 -0.788353E-08  0.164E-04    1.41      71.7  T
     SCC iter.                  ...        0 min,  0.066 sec
     gradient                   ...        0 min,  0.068 sec
 * total energy  :   -99.3226400 Eh     change       -0.4543349E-02 Eh
   gradient norm :     0.0243941 Eh/α   predicted    -0.3597953E-02 ( -20.81%)
   displ. norm   :     0.5062848 α      lambda       -0.5386443E-02
   maximum displ.:     0.2678089 α      in ANC's #11, #1, #10, ...

........................................................................
.............................. CYCLE   18 ..............................
........................................................................

 iter      E             dE          RMSdq      gap      omega  full diag
   1   -100.7147829 -0.100715E+03  0.125E-01    1.41       0.0  T
   2   -100.7148072 -0.243280E-04  0.744E-02    1.42       1.0  T
   3   -100.7145148  0.292380E-03  0.447E-02    1.35       1.0  T
   4   -100.7148033 -0.288453E-03  0.165E-02    1.43       1.0  T
   5   -100.7148341 -0.308468E-04  0.341E-03    1.41       3.5  T
   6   -100.7148342 -0.134821E-06  0.185E-03    1.41       6.4  T
   7   -100.7148344 -0.125310E-06  0.572E-04    1.41      20.6  T
   8   -100.7148344 -0.146376E-07  0.249E-04    1.41      47.4  T
     SCC iter.                  ...        0 min,  0.065 sec
     gradient                   ...        0 min,  0.069 sec
 * total energy  :   -99.3267486 Eh     change       -0.4108591E-02 Eh
   gradient norm :     0.0173742 Eh/α   predicted    -0.3383563E-02 ( -17.65%)
   displ. norm   :     0.5187885 α      lambda       -0.4079290E-02
   maximum displ.:     0.2843903 α      in ANC's #11, #1, #10, ...

........................................................................
.............................. CYCLE   19 ..............................
........................................................................

 iter      E             dE          RMSdq      gap      omega  full diag
   1   -100.7186695 -0.100719E+03  0.129E-01    1.42       0.0  T
   2   -100.7187018 -0.323273E-04  0.747E-02    1.41       1.0  T
   3   -100.7186690  0.327687E-04  0.250E-02    1.41       1.0  T
   4   -100.7187088 -0.398021E-04  0.719E-03    1.42       1.6  T
   5   -100.7187120 -0.316658E-05  0.326E-03    1.41       3.6  T
   6   -100.7187121 -0.101404E-06  0.182E-03    1.42       6.5  T
   7   -100.7187124 -0.259482E-06  0.835E-04    1.41      14.1  T
   8   -100.7187124 -0.809480E-07  0.339E-04    1.41      34.7  T
     SCC iter.                  ...        0 min,  0.066 sec
     gradient                   ...        0 min,  0.069 sec
 * total energy  :   -99.3299133 Eh     change       -0.3164680E-02 Eh
   gradient norm :     0.0169285 Eh/α   predicted    -0.2588597E-02 ( -18.20%)
   displ. norm   :     0.5084569 α      lambda       -0.3302179E-02
   maximum displ.:     0.2775361 α      in ANC's #11, #1, #10, ...

........................................................................
.............................. CYCLE   20 ..............................
........................................................................

 iter      E             dE          RMSdq      gap      omega  full diag
   1   -100.7209685 -0.100721E+03  0.132E-01    1.41       0.0  T
   2   -100.7209971 -0.285684E-04  0.762E-02    1.42       1.0  T
   3   -100.7209852  0.118966E-04  0.174E-02    1.41       1.0  T
   4   -100.7210045 -0.192862E-04  0.472E-03    1.42       2.5  T
   5   -100.7210045 -0.379721E-07  0.300E-03    1.41       3.9  T
   6   -100.7210049 -0.417721E-06  0.134E-03    1.42       8.8  T
   7   -100.7210051 -0.173841E-06  0.642E-04    1.41      18.3  T
   8   -100.7210051 -0.395062E-07  0.263E-04    1.41      44.8  T
     SCC iter.                  ...        0 min,  0.065 sec
     gradient                   ...        0 min,  0.069 sec
 * total energy  :   -99.3324584 Eh     change       -0.2545069E-02 Eh
   gradient norm :     0.0187918 Eh/α   predicted    -0.2077948E-02 ( -18.35%)
   displ. norm   :     0.4908409 α      lambda       -0.2748138E-02
   maximum displ.:     0.2646599 α      in ANC's #11, #1, #10, ...
 * RMSD in coord.:     1.0590385 α      energy gain  -0.1134665E+01 Eh

generating ANC from model Hessian ...
Using Lindh-Hessian (1995)
 Shifting diagonal of input Hessian by    1.0099200550942966E-002
 Lowest  eigenvalues of input Hessian
    0.010000    0.010088    0.000000    0.000000    0.000000    0.000000
    0.000000    0.000000    0.010141    0.010192    0.010215    0.010405
    0.010499    0.010617    0.010973    0.011201    0.011403    0.011612
 Highest eigenvalues
    1.982706    2.042831    2.130240    2.158841    2.161621    2.182434


........................................................................
.............................. CYCLE   21 ..............................
........................................................................

 iter      E             dE          RMSdq      gap      omega  full diag
   1   -100.7229371 -0.100723E+03  0.119E-01    1.41       0.0  T
   2   -100.7229501 -0.130149E-04  0.692E-02    1.41       1.0  T
   3   -100.7229055  0.446550E-04  0.234E-02    1.43       1.0  T
   4   -100.7229514 -0.459742E-04  0.743E-03    1.41       1.6  T
   5   -100.7229566 -0.511635E-05  0.377E-03    1.42       3.1  T
   6   -100.7229573 -0.781674E-06  0.177E-03    1.41       6.6  T
   7   -100.7229576 -0.222797E-06  0.434E-04    1.41      27.1  T
   8   -100.7229576 -0.419796E-08  0.239E-04    1.41      49.3  T
     SCC iter.                  ...        0 min,  0.065 sec
     gradient                   ...        0 min,  0.068 sec
 * total energy  :   -99.3346171 Eh     change       -0.2158726E-02 Eh
   gradient norm :     0.0185679 Eh/α   predicted     0.0000000E+00 (-100.00%)
   displ. norm   :     0.3098918 α      lambda       -0.2470156E-02
   maximum displ.:     0.1138789 α      in ANC's #14, #11, #38, ...

........................................................................
.............................. CYCLE   22 ..............................
........................................................................

 iter      E             dE          RMSdq      gap      omega  full diag
   1   -100.7254790 -0.100725E+03  0.784E-02    1.41       0.0  T
   2   -100.7254885 -0.944761E-05  0.472E-02    1.41       1.0  T
   3   -100.7254384  0.500789E-04  0.298E-02    1.41       1.0  T
   4   -100.7255002 -0.617570E-04  0.442E-03    1.41       2.7  T
   5   -100.7255015 -0.134134E-05  0.155E-03    1.41       7.6  T
   6   -100.7255015  0.261692E-07  0.115E-03    1.41      10.3  T
   7   -100.7255016 -0.110396E-06  0.507E-04    1.41      23.2  T
   8   -100.7255016 -0.262832E-07  0.186E-04    1.41      63.5  T
     SCC iter.                  ...        0 min,  0.065 sec
     gradient                   ...        0 min,  0.068 sec
 * total energy  :   -99.3366680 Eh     change       -0.2050874E-02 Eh
   gradient norm :     0.0105768 Eh/α   predicted    -0.1353693E-02 ( -33.99%)
   displ. norm   :     0.6148830 α      lambda       -0.3179608E-02
   maximum displ.:     0.2483614 α      in ANC's #14, #11, #12, ...

........................................................................
.............................. CYCLE   23 ..............................
........................................................................

 iter      E             dE          RMSdq      gap      omega  full diag
   1   -100.7255543 -0.100726E+03  0.128E-01    1.41       0.0  T
   2   -100.7255791 -0.248061E-04  0.761E-02    1.41       1.0  T
   3   -100.7254583  0.120793E-03  0.446E-02    1.42       1.0  T
   4   -100.7256010 -0.142700E-03  0.761E-03    1.40       1.5  T
   5   -100.7256052 -0.418274E-05  0.320E-03    1.41       3.7  T
   6   -100.7256053 -0.141072E-06  0.225E-03    1.41       5.2  T
   7   -100.7256058 -0.502745E-06  0.814E-04    1.41      14.5  T
   8   -100.7256059 -0.453314E-07  0.324E-04    1.41      36.3  T
     SCC iter.                  ...        0 min,  0.065 sec
     gradient                   ...        0 min,  0.074 sec
 * total energy  :   -99.3390703 Eh     change       -0.2402363E-02 Eh
   gradient norm :     0.0096702 Eh/α   predicted    -0.2191107E-02 (  -8.79%)
   displ. norm   :     0.6033303 α      lambda       -0.1977447E-02
   maximum displ.:     0.2575716 α      in ANC's #11, #14, #12, ...

........................................................................
.............................. CYCLE   24 ..............................
........................................................................

 iter      E             dE          RMSdq      gap      omega  full diag
   1   -100.7249503 -0.100725E+03  0.104E-01    1.41       0.0  T
   2   -100.7249624 -0.121393E-04  0.608E-02    1.41       1.0  T
   3   -100.7249150  0.474885E-04  0.280E-02    1.41       1.0  T
   4   -100.7249702 -0.552063E-04  0.472E-03    1.41       2.5  T
   5   -100.7249713 -0.115386E-05  0.232E-03    1.41       5.1  T
   6   -100.7249713  0.393096E-07  0.161E-03    1.41       7.3  T
   7   -100.7249715 -0.232649E-06  0.643E-04    1.41      18.3  T
   8   -100.7249715 -0.384542E-07  0.281E-04    1.41      41.9  T
     SCC iter.                  ...        0 min,  0.065 sec
     gradient                   ...        0 min,  0.068 sec
 * total energy  :   -99.3406851 Eh     change       -0.1614753E-02 Eh
   gradient norm :     0.0131035 Eh/α   predicted    -0.1348626E-02 ( -16.48%)
   displ. norm   :     0.6464101 α      lambda       -0.1859206E-02
   maximum displ.:     0.2973484 α      in ANC's #11, #14, #12, ...

........................................................................
.............................. CYCLE   25 ..............................
........................................................................

 iter      E             dE          RMSdq      gap      omega  full diag
   1   -100.7262586 -0.100726E+03  0.100E-01    1.41       0.0  T
   2   -100.7262666 -0.792821E-05  0.587E-02    1.41       1.0  T
   3   -100.7262447  0.218073E-04  0.199E-02    1.40       1.0  T
   4   -100.7262709 -0.261105E-04  0.342E-03    1.41       3.4  T
   5   -100.7262709 -0.781696E-07  0.229E-03    1.41       5.1  T
   6   -100.7262710 -0.108168E-06  0.151E-03    1.41       7.8  T
   7   -100.7262713 -0.229343E-06  0.433E-04    1.41      27.2  T
   8   -100.7262713 -0.868756E-08  0.232E-04    1.41      50.8  T
     SCC iter.                  ...        0 min,  0.065 sec
     gradient                   ...        0 min,  0.071 sec
 * total energy  :   -99.3422233 Eh     change       -0.1538209E-02 Eh
   gradient norm :     0.0130437 Eh/α   predicted    -0.1318058E-02 ( -14.31%)
   displ. norm   :     0.6262429 α      lambda       -0.1603999E-02
   maximum displ.:     0.3027482 α      in ANC's #11, #14, #12, ...

........................................................................
.............................. CYCLE   26 ..............................
........................................................................

 iter      E             dE          RMSdq      gap      omega  full diag
   1   -100.7294497 -0.100729E+03  0.965E-02    1.41       0.0  T
   2   -100.7294564 -0.667472E-05  0.564E-02    1.41       1.0  T
   3   -100.7294441  0.122789E-04  0.157E-02    1.41       1.0  T
   4   -100.7294593 -0.152343E-04  0.316E-03    1.41       3.7  T
   5   -100.7294595 -0.175538E-06  0.173E-03    1.41       6.8  T
   6   -100.7294594  0.939837E-07  0.122E-03    1.41       9.7  T
   7   -100.7294596 -0.170754E-06  0.340E-04    1.41      34.7  T
   8   -100.7294596 -0.508415E-08  0.193E-04    1.41      61.0  T
     SCC iter.                  ...        0 min,  0.065 sec
     gradient                   ...        0 min,  0.068 sec
 * total energy  :   -99.3435038 Eh     change       -0.1280535E-02 Eh
   gradient norm :     0.0104990 Eh/α   predicted    -0.1116528E-02 ( -12.81%)
   displ. norm   :     0.5972000 α      lambda       -0.1141775E-02
   maximum displ.:     0.3045479 α      in ANC's #11, #12, #14, ...

........................................................................
.............................. CYCLE   27 ..............................
........................................................................

 iter      E             dE          RMSdq      gap      omega  full diag
   1   -100.7307399 -0.100731E+03  0.935E-02    1.42       0.0  T
   2   -100.7307465 -0.659660E-05  0.543E-02    1.41       1.0  T
   3   -100.7307367  0.981018E-05  0.135E-02    1.42       1.0  T
   4   -100.7307487 -0.120271E-04  0.335E-03    1.41       3.5  T
   5   -100.7307491 -0.425845E-06  0.164E-03    1.41       7.2  T
   6   -100.7307492 -0.233216E-07  0.769E-04    1.41      15.3  T
   7   -100.7307492 -0.344519E-07  0.222E-04    1.41      53.1  T
     SCC iter.                  ...        0 min,  0.057 sec
     gradient                   ...        0 min,  0.069 sec
 * total energy  :   -99.3444009 Eh     change       -0.8970710E-03 Eh
   gradient norm :     0.0084141 Eh/α   predicted    -0.7745087E-03 ( -13.66%)
   displ. norm   :     0.5364922 α      lambda       -0.8088460E-03
   maximum displ.:     0.2845510 α      in ANC's #11, #12, #7, ...

........................................................................
.............................. CYCLE   28 ..............................
........................................................................

 iter      E             dE          RMSdq      gap      omega  full diag
   1   -100.7325585 -0.100733E+03  0.875E-02    1.42       0.0  T
   2   -100.7325645 -0.596921E-05  0.507E-02    1.42       1.0  T
   3   -100.7325521  0.123788E-04  0.131E-02    1.43       1.0  T
   4   -100.7325664 -0.142540E-04  0.349E-03    1.42       3.4  T
   5   -100.7325670 -0.649679E-06  0.181E-03    1.42       6.5  T
   6   -100.7325670  0.131773E-07  0.132E-03    1.42       8.9  T
   7   -100.7325672 -0.194021E-06  0.260E-04    1.42      45.2  T
   8   -100.7325672 -0.350420E-08  0.139E-04    1.42      84.8  T
     SCC iter.                  ...        0 min,  0.065 sec
     gradient                   ...        0 min,  0.070 sec
 * total energy  :   -99.3450309 Eh     change       -0.6300036E-03 Eh
   gradient norm :     0.0064154 Eh/α   predicted    -0.5208258E-03 ( -17.33%)
   displ. norm   :     0.5038432 α      lambda       -0.6163277E-03
   maximum displ.:     0.2669370 α      in ANC's #11, #9, #12, ...

........................................................................
.............................. CYCLE   29 ..............................
........................................................................

 iter      E             dE          RMSdq      gap      omega  full diag
   1   -100.7331075 -0.100733E+03  0.877E-02    1.42       0.0  T
   2   -100.7331127 -0.519161E-05  0.507E-02    1.42       1.0  T
   3   -100.7331044  0.829566E-05  0.116E-02    1.42       1.0  T
   4   -100.7331146 -0.101776E-04  0.309E-03    1.42       3.8  T
   5   -100.7331149 -0.254011E-06  0.167E-03    1.42       7.1  T
   6   -100.7331149 -0.369376E-07  0.917E-04    1.42      12.9  T
   7   -100.7331150 -0.968801E-07  0.272E-04    1.42      43.3  T
     SCC iter.                  ...        0 min,  0.058 sec
     gradient                   ...        0 min,  0.068 sec
 * total energy  :   -99.3455151 Eh     change       -0.4841595E-03 Eh
   gradient norm :     0.0059014 Eh/α   predicted    -0.3863941E-03 ( -20.19%)
   displ. norm   :     0.4905146 α      lambda       -0.5440275E-03
   maximum displ.:     0.2463038 α      in ANC's #11, #9, #7, ...

........................................................................
.............................. CYCLE   30 ..............................
........................................................................

 iter      E             dE          RMSdq      gap      omega  full diag
   1   -100.7350573 -0.100735E+03  0.943E-02    1.43       0.0  T
   2   -100.7350633 -0.597855E-05  0.546E-02    1.42       1.0  T
   3   -100.7350500  0.132915E-04  0.148E-02    1.42       1.0  T
   4   -100.7350659 -0.159264E-04  0.329E-03    1.42       3.6  T
   5   -100.7350661 -0.142117E-06  0.200E-03    1.42       5.9  T
   6   -100.7350662 -0.114728E-06  0.105E-03    1.42      11.2  T
   7   -100.7350663 -0.120713E-06  0.303E-04    1.42      38.8  T
   8   -100.7350663 -0.963136E-08  0.116E-04    1.42     101.3  T
     SCC iter.                  ...        0 min,  0.065 sec
     gradient                   ...        0 min,  0.068 sec
 * total energy  :   -99.3459332 Eh     change       -0.4181545E-03 Eh
   gradient norm :     0.0063988 Eh/α   predicted    -0.3375178E-03 ( -19.28%)
   displ. norm   :     0.5181741 α      lambda       -0.4665603E-03
   maximum displ.:     0.2492292 α      in ANC's #11, #9, #7, ...

........................................................................
.............................. CYCLE   31 ..............................
........................................................................

 iter      E             dE          RMSdq      gap      omega  full diag
   1   -100.7318625 -0.100732E+03  0.101E-01    1.42       0.0  T
   2   -100.7318681 -0.562334E-05  0.583E-02    1.43       1.0  T
   3   -100.7318506  0.175538E-04  0.131E-02    1.41       1.0  T
   4   -100.7318679 -0.173483E-04  0.523E-03    1.43       2.3  T
   5   -100.7318705 -0.261362E-05  0.217E-03    1.42       5.4  T
   6   -100.7318707 -0.174725E-06  0.978E-04    1.42      12.1  T
   7   -100.7318708 -0.578469E-07  0.219E-04    1.42      53.9  T
     SCC iter.                  ...        0 min,  0.057 sec
     gradient                   ...        0 min,  0.068 sec
 * total energy  :   -99.3462619 Eh     change       -0.3287208E-03 Eh
   gradient norm :     0.0069221 Eh/α   predicted    -0.2959182E-03 (  -9.98%)
   displ. norm   :     0.4596606 α      lambda       -0.5131357E-03
   maximum displ.:     0.1804388 α      in ANC's #9, #11, #8, ...

........................................................................
.............................. CYCLE   32 ..............................
........................................................................

 iter      E             dE          RMSdq      gap      omega  full diag
   1   -100.7376662 -0.100738E+03  0.961E-02    1.43       0.0  T
   2   -100.7376733 -0.702549E-05  0.557E-02    1.42       1.0  T
   3   -100.7376556  0.176581E-04  0.158E-02    1.43       1.0  T
   4   -100.7376753 -0.196520E-04  0.406E-03    1.42       2.9  T
   5   -100.7376760 -0.707102E-06  0.245E-03    1.43       4.8  T
   6   -100.7376763 -0.310758E-06  0.151E-03    1.42       7.8  T
   7   -100.7376765 -0.198833E-06  0.337E-04    1.42      34.9  T
   8   -100.7376765 -0.485058E-08  0.143E-04    1.42      82.6  T
     SCC iter.                  ...        0 min,  0.065 sec
     gradient                   ...        0 min,  0.068 sec
 * total energy  :   -99.3465066 Eh     change       -0.2446649E-03 Eh
   gradient norm :     0.0079760 Eh/α   predicted    -0.3107803E-03 (  27.02%)
   displ. norm   :     0.3335452 α      lambda       -0.2937820E-03
   maximum displ.:     0.1449034 α      in ANC's #11, #9, #8, ...

........................................................................
.............................. CYCLE   33 ..............................
........................................................................

 iter      E             dE          RMSdq      gap      omega  full diag
   1   -100.7351878 -0.100735E+03  0.637E-02    1.42       0.0  T
   2   -100.7351905 -0.269595E-05  0.373E-02    1.43       1.0  T
   3   -100.7351675  0.230007E-04  0.152E-02    1.41       1.0  T
   4   -100.7351917 -0.241667E-04  0.345E-03    1.43       3.4  T
   5   -100.7351926 -0.872720E-06  0.210E-03    1.42       5.6  T
   6   -100.7351929 -0.368627E-06  0.759E-04    1.42      15.5  T
   7   -100.7351929 -0.171700E-07  0.222E-04    1.42      53.1  T
     SCC iter.                  ...        0 min,  0.057 sec
     gradient                   ...        0 min,  0.068 sec
 * total energy  :   -99.3466809 Eh     change       -0.1742457E-03 Eh
   gradient norm :     0.0060010 Eh/α   predicted    -0.1632476E-03 (  -6.31%)
   displ. norm   :     0.1882197 α      lambda       -0.1796394E-03
   maximum displ.:     0.0780894 α      in ANC's #8, #12, #9, ...

........................................................................
.............................. CYCLE   34 ..............................
........................................................................

 iter      E             dE          RMSdq      gap      omega  full diag
   1   -100.7350259 -0.100735E+03  0.356E-02    1.42       0.0  T
   2   -100.7350289 -0.294174E-05  0.212E-02    1.42       1.0  T
   3   -100.7350210  0.787228E-05  0.123E-02    1.42       1.0  T
   4   -100.7350312 -0.101902E-04  0.195E-03    1.42       6.1  T
   5   -100.7350314 -0.234664E-06  0.986E-04    1.42      12.0  T
   6   -100.7350314 -0.371947E-07  0.658E-04    1.42      17.9  T
     SCC iter.                  ...        0 min,  0.049 sec
     gradient                   ...        0 min,  0.068 sec
 * total energy  :   -99.3467881 Eh     change       -0.1072873E-03 Eh
   gradient norm :     0.0051520 Eh/α   predicted    -0.9300740E-04 ( -13.31%)
   displ. norm   :     0.2251283 α      lambda       -0.1389355E-03
   maximum displ.:     0.0952181 α      in ANC's #8, #14, #9, ...

........................................................................
.............................. CYCLE   35 ..............................
........................................................................

 iter      E             dE          RMSdq      gap      omega  full diag
   1   -100.7371858 -0.100737E+03  0.398E-02    1.42       0.0  T
   2   -100.7371862 -0.408301E-06  0.236E-02    1.42       1.0  T
   3   -100.7371686  0.175249E-04  0.119E-02    1.44       1.0  T
   4   -100.7371870 -0.183566E-04  0.203E-03    1.42       5.8  T
   5   -100.7371873 -0.339747E-06  0.863E-04    1.42      13.7  T
   6   -100.7371873 -0.144054E-07  0.392E-04    1.42      30.1  T
     SCC iter.                  ...        0 min,  0.050 sec
     gradient                   ...        0 min,  0.068 sec
 * total energy  :   -99.3468816 Eh     change       -0.9341474E-04 Eh
   gradient norm :     0.0038387 Eh/α   predicted    -0.7299021E-04 ( -21.86%)
   displ. norm   :     0.2463947 α      lambda       -0.1061503E-03
   maximum displ.:     0.1160327 α      in ANC's #8, #9, #12, ...

........................................................................
.............................. CYCLE   36 ..............................
........................................................................

 iter      E             dE          RMSdq      gap      omega  full diag
   1   -100.7364215 -0.100736E+03  0.464E-02    1.43       0.0  T
   2   -100.7364224 -0.815890E-06  0.271E-02    1.42       1.0  T
   3   -100.7364071  0.152906E-04  0.113E-02    1.44       1.0  T
   4   -100.7364232 -0.161086E-04  0.210E-03    1.42       5.6  T
   5   -100.7364235 -0.296454E-06  0.103E-03    1.42      11.4  T
   6   -100.7364235 -0.287608E-07  0.434E-04    1.42      27.1  T
   7   -100.7364235 -0.101995E-07  0.107E-04    1.42     110.0  T
     SCC iter.                  ...        0 min,  0.058 sec
     gradient                   ...        0 min,  0.068 sec
 * total energy  :   -99.3469500 Eh     change       -0.6848143E-04 Eh
   gradient norm :     0.0038726 Eh/α   predicted    -0.5629750E-04 ( -17.79%)
   displ. norm   :     0.1769269 α      lambda       -0.8968337E-04
   maximum displ.:     0.0875559 α      in ANC's #8, #9, #14, ...

........................................................................
.............................. CYCLE   37 ..............................
........................................................................

 iter      E             dE          RMSdq      gap      omega  full diag
   1   -100.7382753 -0.100738E+03  0.287E-02    1.43       0.0  T
   2   -100.7382757 -0.459694E-06  0.170E-02    1.42       1.0  T
   3   -100.7382638  0.119695E-04  0.981E-03    1.44       1.2  T
   4   -100.7382762 -0.124331E-04  0.191E-03    1.42       6.2  T
   5   -100.7382766 -0.410082E-06  0.607E-04    1.42      19.4  T
   6   -100.7382766 -0.641201E-08  0.341E-04    1.42      34.5  T
     SCC iter.                  ...        0 min,  0.050 sec
     gradient                   ...        0 min,  0.068 sec
 * total energy  :   -99.3470069 Eh     change       -0.5689025E-04 Eh
   gradient norm :     0.0038159 Eh/α   predicted    -0.4624689E-04 ( -18.71%)
   displ. norm   :     0.2387442 α      lambda       -0.8585701E-04
   maximum displ.:     0.1190818 α      in ANC's #8, #9, #14, ...

........................................................................
.............................. CYCLE   38 ..............................
........................................................................

 iter      E             dE          RMSdq      gap      omega  full diag
   1   -100.7357067 -0.100736E+03  0.391E-02    1.42       0.0  T
   2   -100.7357078 -0.108792E-05  0.228E-02    1.43       1.0  T
   3   -100.7357031  0.466823E-05  0.773E-03    1.42       1.5  T
   4   -100.7357083 -0.521114E-05  0.174E-03    1.43       6.8  T
   5   -100.7357084 -0.775045E-07  0.118E-03    1.42      10.0  T
   6   -100.7357085 -0.108578E-06  0.584E-04    1.43      20.2  T
   7   -100.7357085 -0.229810E-07  0.169E-04    1.42      69.9  T
     SCC iter.                  ...        0 min,  0.057 sec
     gradient                   ...        0 min,  0.068 sec
 * total energy  :   -99.3470556 Eh     change       -0.4870548E-04 Eh
   gradient norm :     0.0039017 Eh/α   predicted    -0.4537837E-04 (  -6.83%)
   displ. norm   :     0.1406091 α      lambda       -0.7076254E-04
   maximum displ.:     0.0659969 α      in ANC's #8, #9, #18, ...

   *** GEOMETRY OPTIMIZATION CONVERGED AFTER 38 ITERATIONS ***

------------------------------------------------------------------------
 total energy gain   :        -1.1492619 Eh     -721.1727 kcal/mol
 total RMSD          :         1.3795409 a0        0.7300 Å
 total power (kW/mol):       -79.4049105 (step) -489.3245 (real)
------------------------------------------------------------------------

 ANCopt (total)                0 d,  0 h,  0 min,  6.166 sec
 optimizer setup                ...        0 min,  0.000 sec (  0.005%)
 model hessian                  ...        0 min,  0.105 sec (  1.700%)
 ANC generation                 ...        0 min,  0.013 sec (  0.212%)
 coordinate transformation      ...        0 min,  0.003 sec (  0.042%)
 single point calculation       ...        0 min,  5.999 sec ( 97.287%)
 optimization log               ...        0 min,  0.010 sec (  0.158%)
 hessian update                 ...        0 min,  0.003 sec (  0.042%)
 rational function              ...        0 min,  0.015 sec (  0.242%)

================
 final structure:
================
72
 xtb: 6.6.1 (8d0f1dd)
N           -2.02184441881274        3.10796828144079        1.83541727849431
C           -2.12735358128055        2.30197892394017        0.88459679526188
C           -3.40439656413197        2.05698776171377        0.12520251235778
C           -3.78158497190780        0.58924963626683        0.22644429866223
C           -4.76280660811788        0.06188014945615       -0.61448630753413
C           -5.15578022783366       -1.26399949475575       -0.52567398515882
O           -6.09243841455264       -1.85349399700458       -1.29450250158093
C           -6.79035744622569       -1.08587378896075       -2.24688255606956
C           -4.54914314223799       -2.11042825448743        0.44347970112175
O           -4.99256319452980       -3.38198479945097        0.45884065392921
C           -4.50232377859852       -4.26880646971032        1.43722252744777
C           -3.58010254173765       -1.57717384664441        1.27985084719368
C           -3.20537135742943       -0.24538972221569        1.17359921524136
C           -3.09861871827655        2.44646551711298       -1.34827522529567
C           -2.24848129249685        1.43559955973504       -2.12917839781579
C           -0.79344147055841        1.47337725346659       -1.76542752053861
N           -0.00680041193232        0.53805342348204       -1.47184140186685
C            3.20303304430759       -0.50008056655718        0.49507318282592
C            3.37545926187359       -0.87037501010786       -0.91856478521051
C            4.61704560369140       -0.42884711725578       -0.11873075026077
C            5.17577214645876        0.87649475740439       -0.39477788696123
C            6.51305428199842        1.11688310339857       -0.28620891061037
C            7.40967741966473        0.10807006084794        0.10510403263775
O            8.72522808620739        0.25070986897955        0.24501890540175
C            9.34027584450705        1.48969515693790       -0.03210970484036
C            6.90202364450343       -1.20824348175130        0.38532193530100
O            7.84587073479670       -2.10150478972159        0.74011340092842
C            7.46241798237202       -3.43453415785518        0.99211474698074
C            5.56546378696591       -1.45898027090085        0.27498023261196
C           -0.37204800580272       -0.84181850911247       -1.36547727176293
C           -4.60802758579696        2.89276652086580        0.65296096514974
C           -4.95691527850754        2.52425469078472        2.09318712669885
C           -4.39049772005109        4.39962610424440        0.54797620393630
H           -5.23123188325904        0.70052901927168       -1.34505202979236
H           -7.33276320373911       -0.25976139315909       -1.77696093142006
H           -7.50235854863637       -1.76882012799431       -2.70606626473825
H           -6.11874559674216       -0.69326769928114       -3.01721325363577
H           -4.70658255473795       -3.90236962618166        2.44765010444073
H           -5.03584743311588       -5.20377325289392        1.27730123890684
H           -3.42757805632144       -4.44034131753501        1.32069919008663
H           -3.11173405386913       -2.19216267866401        2.03099381925783
H           -2.46589225515936        0.14034470867123        1.85782552929267
H           -4.04701055244840        2.57666838032004       -1.87293973439475
H           -2.58891318606793        3.41247795968480       -1.35127983846900
H           -2.65286507318888        0.42870037439162       -2.02226697605858
H           -2.29845369205605        1.70583248326966       -3.18998241432652
H           -1.28084822558433        1.73203433453150        0.47736115448250
H           -0.34349271805768        2.46384702243117       -1.80077493713219
H            3.04471019286172       -1.27138814316174        1.23211156353081
H            2.73771345402133        0.44411931411035        0.72953170475183
H            3.01959787255653       -0.18769683851359       -1.67432294104710
H            3.34010622729960       -1.91035815099945       -1.20026629412316
H            4.50570237929471        1.66652618050385       -0.69558810417120
H            6.88940876670220        2.10349251576633       -0.50506564296807
H            8.96149027316368        2.28104710266625        0.62234902557211
H            9.19977998186049        1.77986878106782       -1.07827767214060
H           10.40154384076482        1.33918156550091        0.16230790408366
H            8.38726924154123       -3.96995291404593        1.19395947573731
H            6.80388324531224       -3.50235136699873        1.86355416869727
H            6.96678036072879       -3.87665607756372        0.12357039561623
H            5.16984370244315       -2.43981517789305        0.48267870375553
H           -0.19770390563303       -1.33227807765368       -2.32618387175991
H           -1.41321582598345       -1.00976905157831       -1.06754260747193
H            0.29011495852058       -1.29511351976229       -0.62759707187756
H           -5.46583396401629        2.62824637502175        0.02274404384212
H           -4.13649950504427        2.78850673294139        2.75382501882944
H           -5.16174113605142        1.46033851985654        2.19056627406169
H           -5.84202448048825        3.07276784557002        2.40594341050967
H           -3.51916779110323        4.69249774476287        1.12605246113121
H           -4.26333005199730        4.72157090393449       -0.48206836664779
H           -5.25777482017918        4.91430061234900        0.95351986194800
H           -1.10424549310991        3.22858996616031        2.25180138957072

 Bond Distances (Angstroems)
 ---------------------------
N1-C2=1.2509         N1-H72=1.0148        C2-N1=1.2509         C2-C3=1.5058         C2-H47=1.0987        C3-C2=1.5058         
C3-C4=1.5188         C3-C14=1.5545        C3-C31=1.5575        C4-C3=1.5188         C4-C5=1.3957         C4-C13=1.3877        
C5-C4=1.3957         C5-C6=1.3857         C5-H34=1.0775        C6-C5=1.3857         C6-O7=1.3476         C6-C9=1.4226         
O7-C6=1.3476         O7-C8=1.4083         C8-O7=1.4083         C8-H35=1.0943        C8-H36=1.0882        C8-H37=1.0948        
C9-C6=1.4226         C9-O10=1.3467        C9-C12=1.3867        O10-C9=1.3467        O10-C11=1.4086       C11-O10=1.4086       
C11-H38=1.0941       C11-H39=1.0883       C11-H40=1.0946       C12-C9=1.3867        C12-C13=1.3876       C12-H41=1.0779       
C13-C4=1.3877        C13-C12=1.3876       C13-H42=1.0788       C14-C3=1.5545        C14-C15=1.5344       C14-H43=1.0916       
C14-H44=1.0922       C15-C14=1.5344       C15-C16=1.5003       C15-H45=1.0903       C15-H46=1.0958       C16-C15=1.5003       
C16-N17=1.2569       C16-H48=1.0885       N17-C16=1.2569       N17-C30=1.4314       C18-C19=1.4715       C18-C20=1.5431       
C18-H49=1.0785       C18-H50=1.0784       C19-C18=1.4715       C19-C20=1.5415       C19-H51=1.0788       C19-H52=1.0780       
C20-C18=1.5431       C20-C19=1.5415       C20-C21=1.4465       C20-C29=1.4545       C21-C20=1.4465       C21-C22=1.3630       
C21-H53=1.0787       C22-C21=1.3630       C22-C23=1.4053       C22-H54=1.0784       C23-C22=1.4053       C23-O24=1.3306       
C23-C26=1.4384       O24-C23=1.3306       O24-C25=1.4107       C25-O24=1.4107       C25-H55=1.0945       C25-H56=1.0947       
C25-H57=1.0894       C26-C23=1.4384       C26-O27=1.3471       C26-C29=1.3643       O27-C26=1.3471       O27-C28=1.4098       
C28-O27=1.4098       C28-H58=1.0875       C28-H59=1.0944       C28-H60=1.0934       C29-C20=1.4545       C29-C26=1.3643       
C29-H61=1.0778       C30-N17=1.4314       C30-H62=1.0927       C30-H63=1.0959       C30-H64=1.0901       C31-C3=1.5575        
C31-C32=1.5270       C31-C33=1.5261       C31-H65=1.0968       C32-C31=1.5270       C32-H66=1.0860       C32-H67=1.0878       
C32-H68=1.0872       C33-C31=1.5261       C33-H69=1.0859       C33-H70=1.0867       C33-H71=1.0870       H34-C5=1.0775        
H35-C8=1.0943        H36-C8=1.0882        H37-C8=1.0948        H38-C11=1.0941       H39-C11=1.0883       H40-C11=1.0946       
H41-C12=1.0779       H42-C13=1.0788       H43-C14=1.0916       H44-C14=1.0922       H45-C15=1.0903       H46-C15=1.0958       
H47-C2=1.0987        H48-C16=1.0885       H49-C18=1.0785       H50-C18=1.0784       H51-C19=1.0788       H52-C19=1.0780       
H53-C21=1.0787       H54-C22=1.0784       H55-C25=1.0945       H56-C25=1.0947       H57-C25=1.0894       H58-C28=1.0875       
H59-C28=1.0944       H60-C28=1.0934       H61-C29=1.0778       H62-C30=1.0927       H63-C30=1.0959       H64-C30=1.0901       
H65-C31=1.0968       H66-C32=1.0860       H67-C32=1.0878       H68-C32=1.0872       H69-C33=1.0859       H70-C33=1.0867       
H71-C33=1.0870       H72-N1=1.0148        
 C  H  Rav=1.0880 sigma=0.0066  Rmin=1.0775  Rmax=1.0987    38
 C  C  Rav=1.4617 sigma=0.0668  Rmin=1.3630  Rmax=1.5575    23
 N  H  Rav=1.0148 sigma=0.0000  Rmin=1.0148  Rmax=1.0148     1
 N  C  Rav=1.3131 sigma=0.0837  Rmin=1.2509  Rmax=1.4314     3
 O  C  Rav=1.3762 sigma=0.0336  Rmin=1.3306  Rmax=1.4107     8

 selected bond angles (degree)
 --------------------
H72-N1-C2=117.69               C3-C2-N1=124.03                H47-C2-N1=123.43               H47-C2-C3=112.46               
C4-C3-C2=109.53                C14-C3-C2=105.69               C14-C3-C4=110.74               C31-C3-C2=113.40               
C31-C3-C4=107.70               C31-C3-C14=109.80              C5-C4-C3=119.97                C13-C4-C3=121.57               
C13-C4-C5=118.42               C6-C5-C4=121.48                H34-C5-C4=119.35               H34-C5-C6=119.16               
O7-C6-C5=125.39                C9-C6-C5=119.47                C9-C6-O7=115.14                C8-O7-C6=119.46                
H35-C8-O7=111.51               H36-C8-O7=105.52               H36-C8-H35=109.31              H37-C8-O7=111.55               
H37-C8-H35=109.60              H37-C8-H36=109.24              O10-C9-C6=115.41               C12-C9-C6=118.69               
C12-C9-O10=125.89              C11-O10-C9=119.19              

 selected dihedral angles (degree)
 ---------------------------------
C3-C2-N1-H72=182.73           H47-C2-N1-H72=359.40          C4-C3-C2-N1=238.69            C4-C3-C2-H47= 61.70           
C14-C3-C2-N1=119.35           C14-C3-C2-H47=302.36          C31-C3-C2-N1=359.02           C31-C3-C2-H47=182.03          
C5-C4-C3-C2=193.30            C5-C4-C3-C14=309.48           C5-C4-C3-C31= 69.55           C13-C4-C3-C2= 15.58           
C13-C4-C3-C14=131.75          C13-C4-C3-C31=251.83          C6-C5-C4-C3=181.69            C6-C5-C4-C13=359.49           
H34-C5-C4-C3=  1.25           H34-C5-C4-C13=179.05          O7-C6-C5-C4=179.96            O7-C6-C5-H34=  0.40           
C9-C6-C5-C4=  0.05            C9-C6-C5-H34=180.49           C8-O7-C6-C5=357.49            C8-O7-C6-C9=177.41            
H35-C8-O7-C6=300.50           H36-C8-O7-C6=181.92           H37-C8-O7-C6= 63.41           O10-C9-C6-C5=179.97           
O10-C9-C6-O7=  0.05           C12-C9-C6-C5=  0.28           C12-C9-C6-O7=180.36           C11-O10-C9-C6=183.63          
C11-O10-C9-C12=  3.29         
           -------------------------------------------------
          |                Final Singlepoint                |
           -------------------------------------------------

          ...................................................
          :                      SETUP                      :
          :.................................................:
          :  # basis functions                 171          :
          :  # atomic orbitals                 171          :
          :  # shells                          105          :
          :  # electrons                       180          :
          :  max. iterations                   250          :
          :  Hamiltonian                  GFN2-xTB          :
          :  restarted?                      false          :
          :  GBSA solvation                  false          :
          :  PC potential                    false          :
          :  electronic temp.         5000.0000000     K    :
          :  accuracy                    1.0000000          :
          :  -> integral cutoff          0.2500000E+02      :
          :  -> integral neglect         0.1000000E-07      :
          :  -> SCF convergence          0.1000000E-05 Eh   :
          :  -> wf. convergence          0.1000000E-03 e    :
          :  Broyden damping             0.4000000          :
          ...................................................

 iter      E             dE          RMSdq      gap      omega  full diag
   1   -100.7357085 -0.100736E+03  0.619E-05    1.42       0.0  T
   2   -100.7357085  0.305818E-10  0.469E-05    1.42     251.4  T
   3   -100.7357085 -0.915890E-10  0.319E-05    1.42     369.6  T

   *** convergence criteria satisfied after 3 iterations ***

         #    Occupation            Energy/Eh            Energy/eV
      -------------------------------------------------------------
         1        2.0000           -0.8257281             -22.4692
       ...           ...                  ...                  ...
        84        1.9917           -0.5070688             -13.7980
        85        1.9903           -0.5046746             -13.7329
        86        1.9703           -0.4867282             -13.2445
        87        1.9598           -0.4818888             -13.1129
        88        1.8966           -0.4663925             -12.6912
        89        1.8794           -0.4638091             -12.6209
        90        1.8098           -0.4559954             -12.4083 (HOMO)
        91        0.5168           -0.4036315             -10.9834 (LUMO)
        92        0.0094           -0.3356059              -9.1323
        93        0.0055           -0.3271274              -8.9016
        94        0.0038           -0.3211005              -8.7376
        95        0.0022           -0.3126332              -8.5072
       ...           ...                  ...                  ...
       171                          0.5749550              15.6453
      -------------------------------------------------------------
                  HL-Gap            0.0523639 Eh            1.4249 eV
             Fermi-level           -0.4203273 Eh          -11.4377 eV

 SCC (total)                   0 d,  0 h,  0 min,  0.115 sec
 SCC setup                      ...        0 min,  0.001 sec (  0.757%)
 Dispersion                     ...        0 min,  0.002 sec (  1.369%)
 classical contributions        ...        0 min,  0.000 sec (  0.373%)
 integral evaluation            ...        0 min,  0.017 sec ( 14.967%)
 iterations                     ...        0 min,  0.026 sec ( 22.723%)
 molecular gradient             ...        0 min,  0.068 sec ( 59.242%)
 printout                       ...        0 min,  0.001 sec (  0.555%)

         :::::::::::::::::::::::::::::::::::::::::::::::::::::
         ::                     SUMMARY                     ::
         :::::::::::::::::::::::::::::::::::::::::::::::::::::
         :: total energy             -99.347055635096 Eh    ::
         :: gradient norm              0.003901471547 Eh/a0 ::
         :: HOMO-LUMO gap              1.424895262135 eV    ::
         ::.................................................::
         :: SCC energy              -100.735708537583 Eh    ::
         :: -> isotropic ES            0.105756803916 Eh    ::
         :: -> anisotropic ES          0.004274887971 Eh    ::
         :: -> anisotropic XC          0.050375373818 Eh    ::
         :: -> dispersion             -0.071138866006 Eh    ::
         :: repulsion energy           1.387341894071 Eh    ::
         :: add. restraining           0.000001010826 Eh    ::
         :: total charge               1.000000000000 e     ::
         :::::::::::::::::::::::::::::::::::::::::::::::::::::

           -------------------------------------------------
          |                Property Printout                |
           -------------------------------------------------

    * Orbital Energies and Occupations

         #    Occupation            Energy/Eh            Energy/eV
      -------------------------------------------------------------
         1        2.0000           -0.8257281             -22.4692
       ...           ...                  ...                  ...
        78        1.9975           -0.5262937             -14.3212
        79        1.9972           -0.5244101             -14.2699
        80        1.9969           -0.5228582             -14.2277
        81        1.9956           -0.5173542             -14.0779
        82        1.9951           -0.5156373             -14.0312
        83        1.9930           -0.5097808             -13.8718
        84        1.9917           -0.5070688             -13.7980
        85        1.9903           -0.5046746             -13.7329
        86        1.9703           -0.4867282             -13.2445
        87        1.9598           -0.4818888             -13.1129
        88        1.8966           -0.4663925             -12.6912
        89        1.8794           -0.4638091             -12.6209
        90        1.8098           -0.4559954             -12.4083 (HOMO)
        91        0.5168           -0.4036315             -10.9834 (LUMO)
        92        0.0094           -0.3356059              -9.1323
        93        0.0055           -0.3271274              -8.9016
        94        0.0038           -0.3211005              -8.7376
        95        0.0022           -0.3126332              -8.5072
        96        0.0018           -0.3095689              -8.4238
        97        0.0000           -0.2457637              -6.6876
        98        0.0000           -0.1871503              -5.0926
        99                         -0.1362545              -3.7077
       100                         -0.0743398              -2.0229
       101                         -0.0660907              -1.7984
       ...                                ...                  ...
       171                          0.5749550              15.6453
      -------------------------------------------------------------
                  HL-Gap            0.0523639 Eh            1.4249 eV
             Fermi-level           -0.4203273 Eh          -11.4377 eV

     #   Z          covCN         q      C6AA      α(0)
     1   7 N        1.774    -0.267    27.741     7.799
     2   6 C        2.828     0.102    25.729     8.312
     3   6 C        3.907     0.009    20.376     6.416
     4   6 C        2.975     0.008    27.832     8.654
     5   6 C        2.920    -0.076    29.903     8.967
     6   6 C        2.862     0.132    25.114     8.214
     7   8 O        1.706    -0.225    17.733     5.686
     8   6 C        3.644     0.027    20.459     6.502
     9   6 C        2.864     0.131    25.122     8.216
    10   8 O        1.706    -0.223    17.705     5.681
    11   6 C        3.645     0.026    20.468     6.502
    12   6 C        2.913    -0.070    29.733     8.941
    13   6 C        2.921    -0.045    29.127     8.850
    14   6 C        3.811    -0.059    21.624     6.619
    15   6 C        3.801    -0.073    21.887     6.661
    16   6 C        2.834     0.072    26.371     8.415
    17   7 N        1.820    -0.210    26.397     7.613
    18   6 C        3.806    -0.055    21.551     6.609
    19   6 C        3.806    -0.056    21.576     6.613
    20   6 C        3.920     0.035    19.920     6.343
    21   6 C        2.909    -0.034    28.847     8.807
    22   6 C        2.903    -0.064    29.583     8.918
    23   6 C        2.863     0.143    24.881     8.176
    24   8 O        1.706    -0.191    17.185     5.597
    25   6 C        3.644     0.018    20.610     6.525
    26   6 C        2.853     0.135    25.041     8.202
    27   8 O        1.706    -0.229    17.795     5.696
    28   6 C        3.646     0.024    20.506     6.508
    29   6 C        2.907    -0.078    29.940     8.972
    30   6 C        3.700    -0.031    21.281     6.597
    31   6 C        3.853    -0.007    20.670     6.466
    32   6 C        3.756    -0.117    22.792     6.807
    33   6 C        3.755    -0.119    22.838     6.814
    34   1 H        0.926     0.055     2.259     2.351
    35   1 H        0.924     0.055     2.259     2.351
    36   1 H        0.925     0.082     1.957     2.188
    37   1 H        0.924     0.051     2.310     2.377
    38   1 H        0.924     0.056     2.246     2.344
    39   1 H        0.925     0.082     1.959     2.189
    40   1 H        0.924     0.052     2.301     2.372
    41   1 H        0.926     0.055     2.263     2.353
    42   1 H        0.926     0.045     2.387     2.416
    43   1 H        0.924     0.054     2.271     2.357
    44   1 H        0.924     0.051     2.311     2.377
    45   1 H        0.924     0.051     2.307     2.375
    46   1 H        0.924     0.065     2.137     2.286
    47   1 H        0.923     0.021     2.717     2.578
    48   1 H        0.925     0.052     2.299     2.371
    49   1 H        0.926     0.064     2.155     2.296
    50   1 H        0.926     0.067     2.115     2.274
    51   1 H        0.926     0.075     2.029     2.228
    52   1 H        0.926     0.066     2.128     2.281
    53   1 H        0.926     0.065     2.137     2.286
    54   1 H        0.926     0.068     2.108     2.270
    55   1 H        0.924     0.064     2.153     2.294
    56   1 H        0.924     0.065     2.147     2.291
    57   1 H        0.925     0.091     1.870     2.139
    58   1 H        0.925     0.085     1.925     2.170
    59   1 H        0.924     0.053     2.277     2.360
    60   1 H        0.924     0.053     2.283     2.363
    61   1 H        0.926     0.063     2.169     2.303
    62   1 H        0.924     0.061     2.191     2.315
    63   1 H        0.924     0.035     2.522     2.484
    64   1 H        0.925     0.057     2.237     2.339
    65   1 H        0.924     0.038     2.477     2.461
    66   1 H        0.925     0.067     2.123     2.279
    67   1 H        0.925     0.034     2.524     2.485
    68   1 H        0.925     0.051     2.301     2.372
    69   1 H        0.925     0.066     2.127     2.281
    70   1 H        0.925     0.038     2.479     2.462
    71   1 H        0.925     0.054     2.269     2.356
    72   1 H        0.860     0.158     1.350     1.820

 Mol. C6AA /au·bohr⁶  :      47146.503318
 Mol. C8AA /au·bohr⁸  :    1073534.851301
 Mol. α(0) /au        :        332.189693


Wiberg/Mayer (AO) data.
largest (>0.10) Wiberg bond orders for each atom

 ---------------------------------------------------------------------------
     #   Z sym  total        # sym  WBO       # sym  WBO       # sym  WBO
 ---------------------------------------------------------------------------
     1   7 N    3.011 --     2 C    1.952    72 H    0.940
     2   6 C    3.938 --     1 N    1.952     3 C    0.992    47 H    0.920
     3   6 C    3.969 --     2 C    0.992     4 C    0.975    14 C    0.951
                            31 C    0.943
     4   6 C    3.935 --    13 C    1.402     5 C    1.372     3 C    0.975
     5   6 C    3.955 --     6 C    1.395     4 C    1.372    34 H    0.958
     6   6 C    3.891 --     5 C    1.395     9 C    1.215     7 O    1.104
     7   8 O    2.249 --     6 C    1.104     8 C    0.977
     8   6 C    3.930 --     7 O    0.977    36 H    0.977    35 H    0.973
                            37 H    0.973
     9   6 C    3.885 --    12 C    1.384     6 C    1.215    10 O    1.107
    10   8 O    2.247 --     9 C    1.107    11 C    0.977
    11   6 C    3.929 --    10 O    0.977    39 H    0.977    38 H    0.973
                            40 H    0.973
    12   6 C    3.955 --    13 C    1.413     9 C    1.384    41 H    0.963
    13   6 C    3.940 --    12 C    1.413     4 C    1.402    42 H    0.962
    14   6 C    3.984 --    15 C    0.992    44 H    0.971    43 H    0.966
                             3 C    0.951
    15   6 C    3.972 --    16 C    1.004    14 C    0.992    45 H    0.962
                            46 H    0.943
    16   6 C    3.950 --    17 N    1.885    15 C    1.004    48 H    0.948
    17   7 N    3.042 --    16 C    1.885    30 C    1.036
    18   6 C    3.860 --    19 C    1.030    49 H    0.975    50 H    0.975
                            20 C    0.820
    19   6 C    3.861 --    18 C    1.030    52 H    0.974    51 H    0.973
                            20 C    0.823
    20   6 C    3.937 --    21 C    1.124    29 C    1.105    19 C    0.823
                            18 C    0.820
    21   6 C    3.793 --    22 C    1.573    20 C    1.124    53 H    0.966
    22   6 C    3.979 --    21 C    1.573    23 C    1.286    54 H    0.960
    23   6 C    3.743 --    22 C    1.286    24 O    1.165    26 C    1.153
    24   8 O    2.284 --    23 C    1.165    25 C    0.967
    25   6 C    3.920 --    57 H    0.976    56 H    0.971    55 H    0.971
                            24 O    0.967
    26   6 C    3.934 --    29 C    1.528    23 C    1.153    27 O    1.102
    27   8 O    2.266 --    26 C    1.102    28 C    0.975
    28   6 C    3.929 --    58 H    0.976    27 O    0.975    60 H    0.974
                            59 H    0.974
    29   6 C    3.830 --    26 C    1.528    20 C    1.105    61 H    0.961
    30   6 C    3.974 --    17 N    1.036    64 H    0.973    63 H    0.962
                            62 H    0.958
    31   6 C    3.968 --    33 C    1.008    32 C    1.008    65 H    0.958
                             3 C    0.943
    32   6 C    3.975 --    31 C    1.008    67 H    0.981    68 H    0.981
                            66 H    0.973
    33   6 C    3.974 --    31 C    1.008    70 H    0.982    71 H    0.979
                            69 H    0.972
    34   1 H    0.995 --     5 C    0.958
    35   1 H    0.992 --     8 C    0.973
    36   1 H    0.992 --     8 C    0.977
    37   1 H    0.992 --     8 C    0.973
    38   1 H    0.991 --    11 C    0.973
    39   1 H    0.992 --    11 C    0.977
    40   1 H    0.991 --    11 C    0.973
    41   1 H    0.995 --    12 C    0.963
    42   1 H    0.997 --    13 C    0.962
    43   1 H    0.994 --    14 C    0.966
    44   1 H    0.996 --    14 C    0.971
    45   1 H    0.996 --    15 C    0.962
    46   1 H    0.994 --    15 C    0.943
    47   1 H    0.975 --     2 C    0.920
    48   1 H    0.990 --    16 C    0.948
    49   1 H    0.994 --    18 C    0.975
    50   1 H    0.993 --    18 C    0.975
    51   1 H    0.992 --    19 C    0.973
    52   1 H    0.993 --    19 C    0.974
    53   1 H    0.995 --    21 C    0.966
    54   1 H    0.994 --    22 C    0.960
    55   1 H    0.990 --    25 C    0.971
    56   1 H    0.990 --    25 C    0.971
    57   1 H    0.991 --    25 C    0.976
    58   1 H    0.992 --    28 C    0.976
    59   1 H    0.994 --    28 C    0.974
    60   1 H    0.995 --    28 C    0.974
    61   1 H    0.995 --    29 C    0.961
    62   1 H    0.994 --    30 C    0.958
    63   1 H    0.988 --    30 C    0.962
    64   1 H    0.992 --    30 C    0.973
    65   1 H    0.989 --    31 C    0.958
    66   1 H    0.990 --    32 C    0.973
    67   1 H    0.996 --    32 C    0.981
    68   1 H    0.993 --    32 C    0.981
    69   1 H    0.990 --    33 C    0.972
    70   1 H    0.996 --    33 C    0.982
    71   1 H    0.992 --    33 C    0.979
    72   1 H    0.967 --     1 N    0.940
 ---------------------------------------------------------------------------

Topologies differ in total number of bonds
Writing topology from bond orders to xtbtopo.mol

molecular dipole:
                 x           y           z       tot (Debye)
 q only:        2.281      -0.073      -0.375
   full:        2.221      -0.185      -0.612       5.874
molecular quadrupole (traceless):
                xx          xy          yy          xz          yz          zz
 q only:       92.706      -1.007     -32.967       8.160     -10.846     -59.738
  q+dip:       87.482       1.913     -31.777      12.484     -14.437     -55.705
   full:       85.987       1.787     -32.556      10.407     -14.555     -53.431

           -------------------------------------------------
          |                Geometry Summary                 |
           -------------------------------------------------

      molecular mass/u    :      455.6105846
   center of mass at/Å    :        0.0247324       0.0057048      -0.0028307
  moments of inertia/u·Å² :        0.2548891E+04   0.1282130E+05   0.1418593E+05
rotational constants/cm⁻¹ :        0.6613714E-02   0.1314814E-02   0.1188335E-02

 * 63 selected distances

     #   Z          #   Z                                           value/Å
     1   7 N        2   6 C                                       1.2509240
     4   6 C        5   6 C                                       1.3957360
     5   6 C        6   6 C                                       1.3857392
     6   6 C        7   8 O                                       1.3475645
     7   8 O        8   6 C                                       1.4083181
     6   6 C        9   6 C                                       1.4225714
     9   6 C       10   8 O                                       1.3467419
    10   8 O       11   6 C                                       1.4085520
     9   6 C       12   6 C                                       1.3866928
     4   6 C       13   6 C                                       1.3877131
    12   6 C       13   6 C                                       1.3875742
    14   6 C       15   6 C                                       1.5344034 (max)
    16   6 C       17   7 N                                       1.2569121
    18   6 C       19   6 C                                       1.4714692
    20   6 C       21   6 C                                       1.4464768
    21   6 C       22   6 C                                       1.3630472
    22   6 C       23   6 C                                       1.4052626
    23   6 C       24   8 O                                       1.3306375
    24   8 O       25   6 C                                       1.4107335
    26   6 C       27   8 O                                       1.3470859
    27   8 O       28   6 C                                       1.4097902
    20   6 C       29   6 C                                       1.4545378
    26   6 C       29   6 C                                       1.3643448
    31   6 C       32   6 C                                       1.5270152
    31   6 C       33   6 C                                       1.5260954
     5   6 C       34   1 H                                       1.0775069 (min)
     8   6 C       35   1 H                                       1.0942999
     8   6 C       36   1 H                                       1.0882147
     8   6 C       37   1 H                                       1.0948112
    11   6 C       38   1 H                                       1.0940575
    11   6 C       39   1 H                                       1.0882947
    11   6 C       40   1 H                                       1.0945686
    12   6 C       41   1 H                                       1.0778665
    13   6 C       42   1 H                                       1.0787893
    14   6 C       43   1 H                                       1.0916377
    14   6 C       44   1 H                                       1.0922404
    15   6 C       45   1 H                                       1.0903222
    15   6 C       46   1 H                                       1.0958232
     2   6 C       47   1 H                                       1.0987489
    16   6 C       48   1 H                                       1.0884548
    18   6 C       49   1 H                                       1.0785209
    18   6 C       50   1 H                                       1.0784279
    19   6 C       51   1 H                                       1.0788222
    19   6 C       52   1 H                                       1.0780402
    21   6 C       53   1 H                                       1.0787169
    22   6 C       54   1 H                                       1.0783966
    25   6 C       55   1 H                                       1.0945469
    25   6 C       56   1 H                                       1.0947180
    25   6 C       57   1 H                                       1.0893771
    28   6 C       58   1 H                                       1.0875498
    28   6 C       59   1 H                                       1.0943830
    28   6 C       60   1 H                                       1.0933883
    29   6 C       61   1 H                                       1.0778178
    30   6 C       62   1 H                                       1.0926591
    30   6 C       63   1 H                                       1.0959029
    30   6 C       64   1 H                                       1.0901392
    31   6 C       65   1 H                                       1.0968028
    32   6 C       66   1 H                                       1.0859806
    32   6 C       67   1 H                                       1.0878208
    32   6 C       68   1 H                                       1.0872450
    33   6 C       69   1 H                                       1.0858923
    33   6 C       70   1 H                                       1.0866518
    33   6 C       71   1 H                                       1.0869799

 * 4 distinct bonds (by element types)

   Z      Z             #   av. dist./Å        max./Å        min./Å
   1 H    6 C          38     1.0880110     1.0987489     1.0775069
   6 C    6 C          15     1.4305786     1.5344034     1.3630472
   6 C    7 N           2     1.2539180     1.2569121     1.2509240
   6 C    8 O           8     1.3761779     1.4107335     1.3306375


optimized geometry written to: xtbopt.xyz


           -------------------------------------------------
          | TOTAL ENERGY              -99.347055635096 Eh   |
          | GRADIENT NORM               0.003901471547 Eh/α |
          | HOMO-LUMO GAP               1.424895262135 eV   |
           -------------------------------------------------

------------------------------------------------------------------------
 * finished run on 2024/04/06 at 11:13:19.554     
------------------------------------------------------------------------
 total:
 * wall-time:     0 d,  0 h,  0 min,  6.521 sec
 *  cpu-time:     0 d,  0 h,  0 min,  6.499 sec
 * ratio c/w:     0.997 speedup
 SCF:
 * wall-time:     0 d,  0 h,  0 min,  0.195 sec
 *  cpu-time:     0 d,  0 h,  0 min,  0.192 sec
 * ratio c/w:     0.984 speedup
 ANC optimizer:
 * wall-time:     0 d,  0 h,  0 min,  6.287 sec
 *  cpu-time:     0 d,  0 h,  0 min,  6.283 sec
 * ratio c/w:     0.999 speedup

