      -----------------------------------------------------------      
     |                   =====================                   |     
     |                           x T B                           |     
     |                   =====================                   |     
     |                         S. Grimme                         |     
     |          Mulliken Center for Theoretical Chemistry        |     
     |                    University of Bonn                     |     
      -----------------------------------------------------------      

   * xtb version 6.6.1 (8d0f1dd) compiled by 'conda@1efc2f54142f' on 2023-08-01

   xtb is free software: you can redistribute it and/or modify it under
   the terms of the GNU Lesser General Public License as published by
   the Free Software Foundation, either version 3 of the License, or
   (at your option) any later version.
   
   xtb is distributed in the hope that it will be useful,
   but WITHOUT ANY WARRANTY; without even the implied warranty of
   MERCHANTABILITY or FITNESS FOR A PARTICULAR PURPOSE.  See the
   GNU Lesser General Public License for more details.
   
   Cite this work as:
   * C. Bannwarth, E. Caldeweyher, S. Ehlert, A. Hansen, P. Pracht,
     J. Seibert, S. Spicher, S. Grimme, WIREs Comput. Mol. Sci., 2020, 11,
     e01493. DOI: 10.1002/wcms.1493
   
   for GFN2-xTB:
   * C. Bannwarth, S. Ehlert and S. Grimme., J. Chem. Theory Comput., 2019,
     15, 1652-1671. DOI: 10.1021/acs.jctc.8b01176
   for GFN1-xTB:
   * S. Grimme, C. Bannwarth, P. Shushkov, J. Chem. Theory Comput., 2017,
     13, 1989-2009. DOI: 10.1021/acs.jctc.7b00118
   for GFN0-xTB:
   * P. Pracht, E. Caldeweyher, S. Ehlert, S. Grimme, ChemRxiv, 2019, preprint.
     DOI: 10.26434/chemrxiv.8326202.v1
   for GFN-FF:
   * S. Spicher and S. Grimme, Angew. Chem. Int. Ed., 2020, 59, 15665-15673.
     DOI: 10.1002/anie.202004239
   
   for ALPB and GBSA implicit solvation:
   * S. Ehlert, M. Stahn, S. Spicher, S. Grimme, J. Chem. Theory Comput.,
     2021, 17, 4250-4261. DOI: 10.1021/acs.jctc.1c00471
   
   for DFT-D4:
   * E. Caldeweyher, C. Bannwarth and S. Grimme, J. Chem. Phys., 2017,
     147, 034112. DOI: 10.1063/1.4993215
   * E. Caldeweyher, S. Ehlert, A. Hansen, H. Neugebauer, S. Spicher,
     C. Bannwarth and S. Grimme, J. Chem. Phys., 2019, 150, 154122.
     DOI: 10.1063/1.5090222
   * E. Caldeweyher, J.-M. Mewes, S. Ehlert and S. Grimme, Phys. Chem. Chem. Phys.
     2020, 22, 8499-8512. DOI: 10.1039/D0CP00502A
   
   for sTDA-xTB:
   * S. Grimme and C. Bannwarth, J. Chem. Phys., 2016, 145, 054103.
     DOI: 10.1063/1.4959605
   
   in the mass-spec context:
   * V. Asgeirsson, C. Bauer and S. Grimme, Chem. Sci., 2017, 8, 4879.
     DOI: 10.1039/c7sc00601b
   * J. Koopman and S. Grimme, ACS Omega 2019, 4, 12, 15120-15133.
     DOI: 10.1021/acsomega.9b02011
   
   for metadynamics refer to:
   * S. Grimme, J. Chem. Theory Comput., 2019, 155, 2847-2862
     DOI: 10.1021/acs.jctc.9b00143
   
   for SPH calculations refer to:
   * S. Spicher and S. Grimme, J. Chem. Theory Comput., 2021, 17, 1701-1714
     DOI: 10.1021/acs.jctc.0c01306
   
   with help from (in alphabetical order)
   P. Atkinson, C. Bannwarth, F. Bohle, G. Brandenburg, E. Caldeweyher
   M. Checinski, S. Dohm, S. Ehlert, S. Ehrlich, I. Gerasimov, C. Hölzer
   A. Katbashev, J. Koopman, C. Lavigne, S. Lehtola, F. März, M. Müller,
   F. Musil, H. Neugebauer, J. Pisarek, C. Plett, P. Pracht, F. Pultar,
   J. Seibert, P. Shushkov, S. Spicher, M. Stahn, M. Steiner, T. Strunk,
   J. Stückrath, T. Rose, and J. Unsleber
   
 * started run on 2024/06/05 at 19:57:59.870     

           -------------------------------------------------
          |                Calculation Setup                |
           -------------------------------------------------

          program call               : xtb struc.xyz --opt loose --input .xc1 --gfn2
          hostname                   : n-62-21-71
          coordinate file            : struc.xyz
          omp threads                :                     1

   ID    Z sym.   atoms
    1    6 C      1, 3, 5-7, 10, 11, 14
    2    7 N      2, 4, 9, 13
    3    8 O      8, 12
    4    1 H      15-25
constraining bond 6 25 to    5.1400000 Å, actual value:    3.1881491 Å

           -------------------------------------------------
          |                 G F N 2 - x T B                 |
           -------------------------------------------------

        Reference                      10.1021/acs.jctc.8b01176
      * Hamiltonian:
        H0-scaling (s, p, d)           1.850000    2.230000    2.230000
        zeta-weighting                 0.500000
      * Dispersion:
        s8                             2.700000
        a1                             0.520000
        a2                             5.000000
        s9                             5.000000
      * Repulsion:
        kExp                           1.500000    1.000000
        rExp                           1.000000
      * Coulomb:
        alpha                          2.000000
        third order                    shell-resolved
        anisotropic                    true
        a3                             3.000000
        a5                             4.000000
        cn-shift                       1.200000
        cn-exp                         4.000000
        max-rad                        5.000000


          ...................................................
          :                      SETUP                      :
          :.................................................:
          :  # basis functions                  67          :
          :  # atomic orbitals                  67          :
          :  # shells                           39          :
          :  # electrons                        74          :
          :  max. iterations                   250          :
          :  Hamiltonian                  GFN2-xTB          :
          :  restarted?                      false          :
          :  GBSA solvation                  false          :
          :  PC potential                    false          :
          :  electronic temp.         2500.0000000     K    :
          :  accuracy                    1.0000000          :
          :  -> integral cutoff          0.2500000E+02      :
          :  -> integral neglect         0.1000000E-07      :
          :  -> SCF convergence          0.1000000E-05 Eh   :
          :  -> wf. convergence          0.1000000E-03 e    :
          :  Broyden damping             0.4000000          :
          ...................................................

 iter      E             dE          RMSdq      gap      omega  full diag
   1    -42.5894761 -0.425895E+02  0.446E+00    3.52       0.0  T
   2    -42.7660496 -0.176573E+00  0.253E+00    3.37       1.0  T
   3    -42.7736311 -0.758158E-02  0.147E+00    3.27       1.0  T
   4    -42.7712089  0.242228E-02  0.522E-01    3.20       1.0  T
   5    -42.7763755 -0.516665E-02  0.115E-01    3.24       1.0  T
   6    -42.7764786 -0.103096E-03  0.599E-02    3.22       1.0  T
   7    -42.7764977 -0.190557E-04  0.265E-02    3.24       1.0  T
   8    -42.7765022 -0.458752E-05  0.826E-03    3.24       2.4  T
   9    -42.7765028 -0.511866E-06  0.435E-03    3.24       4.6  T
  10    -42.7765028 -0.741126E-07  0.110E-03    3.24      18.2  T
  11    -42.7765028 -0.615289E-08  0.514E-04    3.24      38.9  T
  12    -42.7765028 -0.131732E-08  0.162E-04    3.24     123.6  T

   *** convergence criteria satisfied after 12 iterations ***

         #    Occupation            Energy/Eh            Energy/eV
      -------------------------------------------------------------
         1        2.0000           -0.9218663             -25.0853
       ...           ...                  ...                  ...
        31        2.0000           -0.6245728             -16.9955
        32        2.0000           -0.6188521             -16.8398
        33        2.0000           -0.5946289             -16.1807
        34        1.9999           -0.5766508             -15.6915
        35        1.9996           -0.5616187             -15.2824
        36        1.9994           -0.5584494             -15.1962
        37        1.9993           -0.5575820             -15.1726 (HOMO)
        38        0.0017           -0.4385664             -11.9340 (LUMO)
        39        0.0000           -0.4059970             -11.0477
        40        0.0000           -0.3720875             -10.1250
        41                         -0.2883077              -7.8453
        42                         -0.2064013              -5.6165
       ...                                ...                  ...
        67                          0.5638960              15.3444
      -------------------------------------------------------------
                  HL-Gap            0.1190156 Eh            3.2386 eV
             Fermi-level           -0.4943591 Eh          -13.4522 eV

 SCC (total)                   0 d,  0 h,  0 min,  0.038 sec
 SCC setup                      ...        0 min,  0.000 sec (  0.904%)
 Dispersion                     ...        0 min,  0.000 sec (  1.157%)
 classical contributions        ...        0 min,  0.000 sec (  0.306%)
 integral evaluation            ...        0 min,  0.006 sec ( 16.270%)
 iterations                     ...        0 min,  0.018 sec ( 46.636%)
 molecular gradient             ...        0 min,  0.013 sec ( 34.256%)
 printout                       ...        0 min,  0.000 sec (  0.433%)

         :::::::::::::::::::::::::::::::::::::::::::::::::::::
         ::                     SUMMARY                     ::
         :::::::::::::::::::::::::::::::::::::::::::::::::::::
         :: total energy             -35.442902763300 Eh    ::
         :: gradient norm              5.216300074957 Eh/a0 ::
         :: HOMO-LUMO gap              3.238579380711 eV    ::
         ::.................................................::
         :: SCC energy               -42.776502838750 Eh    ::
         :: -> isotropic ES            0.143394945287 Eh    ::
         :: -> anisotropic ES         -0.005231236584 Eh    ::
         :: -> anisotropic XC          0.012162721064 Eh    ::
         :: -> dispersion             -0.022660936007 Eh    ::
         :: repulsion energy           0.531105277918 Eh    ::
         :: add. restraining           6.802380638523 Eh    ::
         :: total charge               1.000000000000 e     ::
         :::::::::::::::::::::::::::::::::::::::::::::::::::::

      ----------------------------------------------------------- 
     |                   =====================                   |
     |                        A N C O P T                        |
     |                   =====================                   |
     |               Approximate Normal Coordinate               |
     |                Rational Function Optimizer                |
      ----------------------------------------------------------- 

          ...................................................
          :                      SETUP                      :
          :.................................................:
          :   optimization level             loose          :
          :   max. optcycles                   200          :
          :   ANC micro-cycles                  20          :
          :   degrees of freedom                69          :
          :.................................................:
          :   RF solver                   davidson          :
          :   write xtbopt.log                true          :
          :   linear?                        false          :
          :   energy convergence         0.5000000E-04 Eh   :
          :   grad. convergence          0.4000000E-02 Eh/α :
          :   maxmium RF displ.          1.0000000          :
          :   Hlow (freq-cutoff)         0.1000000E-01      :
          :   Hmax (freq-cutoff)         5.0000000          :
          :   S6 in model hess.         20.0000000          :
          ...................................................

generating ANC from model Hessian ...
Using Lindh-Hessian (1995)
 Shifting diagonal of input Hessian by    1.0615760146211468     
 Lowest  eigenvalues of input Hessian
    0.010000    0.273179    0.000000    0.000000    0.000000    0.000000
    0.000000    0.000000    1.065045    1.067138    1.067698    1.070840
    1.071363    1.073750    1.074118    1.075893    1.082923    1.087567
 Highest eigenvalues
    3.137040    3.270038    3.326129    3.400489    3.586431    4.294472


........................................................................
.............................. CYCLE    1 ..............................
........................................................................

 iter      E             dE          RMSdq      gap      omega  full diag
   1    -42.7765028 -0.427765E+02  0.540E-05    3.24       0.0  T
   2    -42.7765028 -0.643041E-11  0.289E-05    3.24     692.1  T
   3    -42.7765028  0.881073E-12  0.138E-05    3.24    1448.6  T
     SCC iter.                  ...        0 min,  0.005 sec
     gradient                   ...        0 min,  0.013 sec
 * total energy  :   -35.4429028 Eh     change       -0.6633627E-10 Eh
   gradient norm :     5.2163007 Eh/α   predicted     0.0000000E+00 (-100.00%)
   displ. norm   :     0.7005167 α      lambda       -0.3567468E+01
   maximum displ.:     0.5876629 α      in ANC's #69, #60, #58, ...

........................................................................
.............................. CYCLE    2 ..............................
........................................................................

 iter      E             dE          RMSdq      gap      omega  full diag
   1    -42.6734560 -0.426735E+02  0.966E-01    2.72       0.0  T
   2    -42.6758683 -0.241227E-02  0.534E-01    2.67       1.0  T
   3    -42.6759271 -0.587564E-04  0.241E-01    2.74       1.0  T
   4    -42.6761825 -0.255442E-03  0.491E-02    2.69       1.0  T
   5    -42.6762104 -0.279422E-04  0.220E-02    2.70       1.0  T
   6    -42.6762112 -0.750702E-06  0.114E-02    2.70       1.8  T
   7    -42.6762128 -0.166475E-05  0.440E-03    2.70       4.5  T
   8    -42.6762130 -0.194353E-06  0.240E-03    2.70       8.3  T
   9    -42.6762131 -0.910968E-07  0.753E-04    2.70      26.5  T
  10    -42.6762131 -0.187915E-08  0.352E-04    2.70      56.8  T
     SCC iter.                  ...        0 min,  0.014 sec
     gradient                   ...        0 min,  0.013 sec
 * total energy  :   -38.4895061 Eh     change       -0.3046603E+01 Eh
   gradient norm :     3.5441905 Eh/α   predicted    -0.2705492E+01 ( -11.20%)
   displ. norm   :     0.7298503 α      lambda       -0.2567057E+01
   maximum displ.:     0.5940772 α      in ANC's #69, #60, #58, ...

........................................................................
.............................. CYCLE    3 ..............................
........................................................................

 iter      E             dE          RMSdq      gap      omega  full diag
   1    -42.5225093 -0.425225E+02  0.861E-01    1.41       0.0  T
   2    -42.5126878  0.982154E-02  0.105E+00    2.18       1.0  T
   3    -42.5367957 -0.241079E-01  0.464E-01    1.89       1.0  T
   4    -42.5363889  0.406804E-03  0.275E-01    1.75       1.0  T
   5    -42.5372926 -0.903708E-03  0.328E-02    1.76       1.0  T
   6    -42.5373029 -0.103074E-04  0.166E-02    1.77       1.2  T
   7    -42.5373034 -0.564002E-06  0.777E-03    1.78       2.6  T
   8    -42.5373037 -0.223649E-06  0.304E-03    1.78       6.6  T
   9    -42.5373039 -0.233081E-06  0.102E-03    1.77      19.6  T
  10    -42.5373039 -0.167007E-07  0.484E-04    1.78      41.4  T
  11    -42.5373039 -0.988614E-09  0.203E-04    1.78      98.6  T
     SCC iter.                  ...        0 min,  0.015 sec
     gradient                   ...        0 min,  0.013 sec
 * total energy  :   -40.4917921 Eh     change       -0.2002286E+01 Eh
   gradient norm :     2.0181362 Eh/α   predicted    -0.1967242E+01 (  -1.75%)
   displ. norm   :     0.6849571 α      lambda       -0.1350167E+01
   maximum displ.:     0.4545622 α      in ANC's #69, #60, #51, ...

........................................................................
.............................. CYCLE    4 ..............................
........................................................................

 iter      E             dE          RMSdq      gap      omega  full diag
   1    -42.1819164 -0.421819E+02  0.240E+00    0.51       0.0  T
   2    -42.0801454  0.101771E+00  0.293E+00    2.69       1.0  T
   3    -42.3748891 -0.294744E+00  0.147E+00    2.05       1.0  T
   4    -42.3953076 -0.204185E-01  0.101E+00    1.73       1.0  T
   5    -42.4255538 -0.302462E-01  0.440E-01    1.34       1.0  T
   6    -42.4294126 -0.385874E-02  0.218E-01    1.11       1.0  T
   7    -42.4303207 -0.908126E-03  0.744E-02    1.19       1.0  T
   8    -42.4304138 -0.930795E-04  0.575E-02    1.15       1.0  T
   9    -42.4305054 -0.916141E-04  0.226E-02    1.16       1.0  T
  10    -42.4305187 -0.133334E-04  0.833E-03    1.17       2.4  T
  11    -42.4305202 -0.146486E-05  0.198E-03    1.17      10.1  T
  12    -42.4305201  0.124351E-06  0.252E-03    1.17       7.9  T
  13    -42.4305203 -0.220021E-06  0.198E-04    1.17     100.9  T
  14    -42.4305203  0.158214E-08  0.265E-04    1.17      75.4  T
     SCC iter.                  ...        0 min,  0.019 sec
     gradient                   ...        0 min,  0.013 sec
 * total energy  :   -41.5042144 Eh     change       -0.1012422E+01 Eh
   gradient norm :     0.9958768 Eh/α   predicted    -0.9918099E+00 (  -2.04%)
   displ. norm   :     0.5332983 α      lambda       -0.5157546E+00
   maximum displ.:     0.3346407 α      in ANC's #69, #2, #60, ...

........................................................................
.............................. CYCLE    5 ..............................
........................................................................

 iter      E             dE          RMSdq      gap      omega  full diag
   1    -42.2949565 -0.422950E+02  0.145E+00    0.63       0.0  T
   2    -42.1536693  0.141287E+00  0.224E+00    2.20       1.0  T
   3    -42.3518398 -0.198170E+00  0.780E-01    1.16       1.0  T
   4    -42.3653628 -0.135230E-01  0.380E-01    1.00       1.0  T
   5    -42.3701653 -0.480251E-02  0.140E-01    0.95       1.0  T
   6    -42.3695058  0.659550E-03  0.151E-01    0.92       1.0  T
   7    -42.3700949 -0.589167E-03  0.671E-02    0.96       1.0  T
   8    -42.3702594 -0.164442E-03  0.101E-02    0.95       2.0  T
   9    -42.3702621 -0.274486E-05  0.473E-03    0.95       4.2  T
  10    -42.3702621 -0.821433E-08  0.248E-03    0.95       8.1  T
  11    -42.3702622 -0.103288E-06  0.907E-04    0.95      22.0  T
  12    -42.3702622 -0.102614E-07  0.428E-04    0.95      46.8  T
     SCC iter.                  ...        0 min,  0.016 sec
     gradient                   ...        0 min,  0.013 sec
 * total energy  :   -41.8302013 Eh     change       -0.3259869E+00 Eh
   gradient norm :     0.2907567 Eh/α   predicted    -0.3312195E+00 (   1.61%)
   displ. norm   :     0.2302426 α      lambda       -0.6249913E-01
   maximum displ.:     0.1065227 α      in ANC's #69, #2, #40, ...

........................................................................
.............................. CYCLE    6 ..............................
........................................................................

 iter      E             dE          RMSdq      gap      omega  full diag
   1    -42.3610444 -0.423610E+02  0.444E-01    0.76       0.0  T
   2    -42.3208102  0.402342E-01  0.105E+00    1.11       1.0  T
   3    -42.3652292 -0.444190E-01  0.190E-01    0.79       1.0  T
   4    -42.3654756 -0.246458E-03  0.104E-01    0.81       1.0  T
   5    -42.3656747 -0.199098E-03  0.984E-02    0.81       1.0  T
   6    -42.3659645 -0.289810E-03  0.222E-02    0.80       1.0  T
   7    -42.3659754 -0.108595E-04  0.932E-03    0.81       2.1  T
   8    -42.3659774 -0.199844E-05  0.500E-03    0.81       4.0  T
   9    -42.3659782 -0.776404E-06  0.103E-03    0.81      19.3  T
  10    -42.3659782 -0.971431E-08  0.641E-04    0.81      31.2  T
  11    -42.3659782 -0.599359E-08  0.303E-04    0.81      65.9  T
     SCC iter.                  ...        0 min,  0.015 sec
     gradient                   ...        0 min,  0.013 sec
 * total energy  :   -41.8700785 Eh     change       -0.3987719E-01 Eh
   gradient norm :     0.1889330 Eh/α   predicted    -0.3290948E-01 ( -17.47%)
   displ. norm   :     0.1798676 α      lambda       -0.2582237E-01
   maximum displ.:     0.0695957 α      in ANC's #40, #50, #1, ...

........................................................................
.............................. CYCLE    7 ..............................
........................................................................

 iter      E             dE          RMSdq      gap      omega  full diag
   1    -42.3823606 -0.423824E+02  0.291E-01    0.69       0.0  T
   2    -42.3788706  0.348998E-02  0.464E-01    0.71       1.0  T
   3    -42.3848162 -0.594558E-02  0.164E-01    0.70       1.0  T
   4    -42.3838354  0.980861E-03  0.199E-01    0.69       1.0  T
   5    -42.3828801  0.955229E-03  0.230E-01    0.75       1.0  T
   6    -42.3849773 -0.209715E-02  0.285E-02    0.70       1.0  T
   7    -42.3849933 -0.159852E-04  0.944E-03    0.70       2.1  T
   8    -42.3849947 -0.147393E-05  0.439E-03    0.70       4.6  T
   9    -42.3849949 -0.187770E-06  0.202E-03    0.70       9.9  T
  10    -42.3849951 -0.150735E-06  0.353E-04    0.70      56.6  T
  11    -42.3849951 -0.902503E-09  0.184E-04    0.70     108.5  T
     SCC iter.                  ...        0 min,  0.015 sec
     gradient                   ...        0 min,  0.013 sec
 * total energy  :   -41.8917053 Eh     change       -0.2162673E-01 Eh
   gradient norm :     0.1952884 Eh/α   predicted    -0.1332890E-01 ( -38.37%)
   displ. norm   :     0.4340671 α      lambda       -0.5815171E-01
   maximum displ.:     0.1776269 α      in ANC's #40, #50, #46, ...

........................................................................
.............................. CYCLE    8 ..............................
........................................................................

 iter      E             dE          RMSdq      gap      omega  full diag
   1    -42.4306619 -0.424307E+02  0.775E-01    0.53       0.0  T
   2    -42.2685472  0.162115E+00  0.212E+00    0.19       1.0  T
   3    -42.4412271 -0.172680E+00  0.665E-01    0.54       1.0  T
   4    -42.4390829  0.214419E-02  0.584E-01    0.36       1.0  T
   5    -42.4459278 -0.684495E-02  0.299E-01    0.47       1.0  T
   6    -42.4481680 -0.224012E-02  0.959E-02    0.46       1.0  T
   7    -42.4484124 -0.244481E-03  0.379E-02    0.47       1.0  T
   8    -42.4484623 -0.498487E-04  0.130E-02    0.48       1.5  T
   9    -42.4484630 -0.698271E-06  0.700E-03    0.48       2.9  T
  10    -42.4484641 -0.110406E-05  0.285E-03    0.48       7.0  T
  11    -42.4484644 -0.264212E-06  0.754E-04    0.48      26.5  T
  12    -42.4484644 -0.628066E-08  0.301E-04    0.48      66.5  T
     SCC iter.                  ...        0 min,  0.016 sec
     gradient                   ...        0 min,  0.013 sec
 * total energy  :   -41.9310670 Eh     change       -0.3936176E-01 Eh
   gradient norm :     0.2137745 Eh/α   predicted    -0.3455421E-01 ( -12.21%)
   displ. norm   :     0.3026037 α      lambda       -0.2937971E-01
   maximum displ.:     0.1312713 α      in ANC's #2, #40, #46, ...

........................................................................
.............................. CYCLE    9 ..............................
........................................................................

 iter      E             dE          RMSdq      gap      omega  full diag
   1    -42.4799251 -0.424799E+02  0.565E-01    0.41       0.0  T
   2    -42.3099264  0.169999E+00  0.213E+00    0.04       1.0  T
   3    -42.4875294 -0.177603E+00  0.378E-01    0.36       1.0  T
   4    -42.4887976 -0.126823E-02  0.248E-01    0.28       1.0  T
   5    -42.4894050 -0.607370E-03  0.125E-01    0.33       1.0  T
   6    -42.4898645 -0.459549E-03  0.285E-02    0.33       1.0  T
   7    -42.4898886 -0.240782E-04  0.109E-02    0.33       1.8  T
   8    -42.4898900 -0.139609E-05  0.494E-03    0.33       4.0  T
   9    -42.4898901 -0.759594E-07  0.175E-03    0.33      11.4  T
  10    -42.4898902 -0.123045E-06  0.508E-04    0.33      39.3  T
  11    -42.4898902 -0.470720E-08  0.243E-04    0.33      82.4  T
     SCC iter.                  ...        0 min,  0.015 sec
     gradient                   ...        0 min,  0.013 sec
 * total energy  :   -41.9553373 Eh     change       -0.2427026E-01 Eh
   gradient norm :     0.2346438 Eh/α   predicted    -0.1603660E-01 ( -33.92%)
   displ. norm   :     0.5355449 α      lambda       -0.6026437E-01
   maximum displ.:     0.3172369 α      in ANC's #2, #40, #58, ...

........................................................................
.............................. CYCLE   10 ..............................
........................................................................

 iter      E             dE          RMSdq      gap      omega  full diag
   1    -42.5154424 -0.425154E+02  0.894E-01    0.38       0.0  T
   2    -42.2794667  0.235976E+00  0.263E+00    0.40       1.0  T
   3    -42.5300147 -0.250548E+00  0.489E-01    0.30       1.0  T
   4    -42.5311132 -0.109859E-02  0.365E-01    0.15       1.0  T
   5    -42.5324886 -0.137538E-02  0.184E-01    0.23       1.0  T
   6    -42.5335605 -0.107189E-02  0.471E-02    0.22       1.0  T
   7    -42.5335965 -0.359743E-04  0.204E-02    0.23       1.0  T
   8    -42.5336031 -0.660592E-05  0.770E-03    0.23       2.6  T
   9    -42.5336036 -0.537145E-06  0.329E-03    0.23       6.1  T
  10    -42.5336040 -0.347613E-06  0.104E-03    0.23      19.2  T
  11    -42.5336040 -0.252156E-07  0.464E-04    0.23      43.1  T
  12    -42.5336040 -0.255356E-08  0.114E-04    0.23     174.7  T
     SCC iter.                  ...        0 min,  0.016 sec
     gradient                   ...        0 min,  0.013 sec
 * total energy  :   -42.0008149 Eh     change       -0.4547765E-01 Eh
   gradient norm :     0.2305804 Eh/α   predicted    -0.3877513E-01 ( -14.74%)
   displ. norm   :     0.4101637 α      lambda       -0.4133433E-01
   maximum displ.:     0.2598087 α      in ANC's #2, #58, #40, ...

........................................................................
.............................. CYCLE   11 ..............................
........................................................................

 iter      E             dE          RMSdq      gap      omega  full diag
   1    -42.5380294 -0.425380E+02  0.750E-01    0.36       0.0  T
   2    -42.4128087  0.125221E+00  0.192E+00    0.39       1.0  T
   3    -42.5311862 -0.118378E+00  0.657E-01    0.43       1.0  T
   4    -42.5455153 -0.143290E-01  0.174E-01    0.23       1.0  T
   5    -42.5456660 -0.150699E-03  0.762E-02    0.24       1.0  T
   6    -42.5458124 -0.146464E-03  0.165E-02    0.22       1.2  T
   7    -42.5458184 -0.591594E-05  0.726E-03    0.23       2.8  T
   8    -42.5458188 -0.447098E-06  0.256E-03    0.23       7.8  T
   9    -42.5458189 -0.915394E-07  0.116E-03    0.23      17.3  T
  10    -42.5458190 -0.498076E-07  0.599E-04    0.23      33.4  T
  11    -42.5458190 -0.247793E-08  0.393E-04    0.23      50.8  T
     SCC iter.                  ...        0 min,  0.015 sec
     gradient                   ...        0 min,  0.013 sec
 * total energy  :   -42.0301851 Eh     change       -0.2937018E-01 Eh
   gradient norm :     0.2169096 Eh/α   predicted    -0.2414411E-01 ( -17.79%)
   displ. norm   :     0.2738095 α      lambda       -0.3509399E-01
   maximum displ.:     0.1539732 α      in ANC's #2, #58, #60, ...

........................................................................
.............................. CYCLE   12 ..............................
........................................................................

 iter      E             dE          RMSdq      gap      omega  full diag
   1    -42.5491468 -0.425491E+02  0.692E-01    0.43       0.0  T
   2    -42.4162884  0.132858E+00  0.198E+00    0.40       1.0  T
   3    -42.5378709 -0.121582E+00  0.757E-01    0.50       1.0  T
   4    -42.5580117 -0.201409E-01  0.234E-01    0.31       1.0  T
   5    -42.5590026 -0.990850E-03  0.901E-02    0.27       1.0  T
   6    -42.5591291 -0.126501E-03  0.239E-02    0.25       1.0  T
   7    -42.5591395 -0.104365E-04  0.126E-02    0.25       1.6  T
   8    -42.5591452 -0.566671E-05  0.352E-03    0.26       5.7  T
   9    -42.5591453 -0.151640E-06  0.207E-03    0.26       9.7  T
  10    -42.5591455 -0.140012E-06  0.404E-04    0.26      49.5  T
  11    -42.5591455  0.246876E-08  0.378E-04    0.26      52.9  T
     SCC iter.                  ...        0 min,  0.015 sec
     gradient                   ...        0 min,  0.013 sec
 * total energy  :   -42.0558265 Eh     change       -0.2564136E-01 Eh
   gradient norm :     0.1704652 Eh/α   predicted    -0.1886254E-01 ( -26.44%)
   displ. norm   :     0.2316384 α      lambda       -0.2744793E-01
   maximum displ.:     0.1241990 α      in ANC's #58, #60, #2, ...

........................................................................
.............................. CYCLE   13 ..............................
........................................................................

 iter      E             dE          RMSdq      gap      omega  full diag
   1    -42.5641163 -0.425641E+02  0.595E-01    0.45       0.0  T
   2    -42.4395053  0.124611E+00  0.188E+00    0.34       1.0  T
   3    -42.5574324 -0.117927E+00  0.633E-01    0.49       1.0  T
   4    -42.5711891 -0.137567E-01  0.231E-01    0.35       1.0  T
   5    -42.5724873 -0.129817E-02  0.517E-02    0.29       1.0  T
   6    -42.5725124 -0.250854E-04  0.153E-02    0.28       1.3  T
   7    -42.5725181 -0.577362E-05  0.771E-03    0.28       2.6  T
   8    -42.5725191 -0.966746E-06  0.366E-03    0.28       5.5  T
   9    -42.5725194 -0.279114E-06  0.198E-03    0.28      10.1  T
  10    -42.5725195 -0.145756E-06  0.286E-04    0.28      69.9  T
  11    -42.5725195  0.996046E-09  0.248E-04    0.28      80.8  T
     SCC iter.                  ...        0 min,  0.015 sec
     gradient                   ...        0 min,  0.013 sec
 * total energy  :   -42.0743360 Eh     change       -0.1850956E-01 Eh
   gradient norm :     0.1551793 Eh/α   predicted    -0.1446038E-01 ( -21.88%)
   displ. norm   :     0.1705597 α      lambda       -0.1777925E-01
   maximum displ.:     0.0799967 α      in ANC's #58, #46, #51, ...

........................................................................
.............................. CYCLE   14 ..............................
........................................................................

 iter      E             dE          RMSdq      gap      omega  full diag
   1    -42.5769695 -0.425770E+02  0.339E-01    0.37       0.0  T
   2    -42.5428821  0.340874E-01  0.954E-01    0.02       1.0  T
   3    -42.5742204 -0.313383E-01  0.361E-01    0.40       1.0  T
   4    -42.5788051 -0.458477E-02  0.102E-01    0.31       1.0  T
   5    -42.5789082 -0.103105E-03  0.269E-02    0.30       1.0  T
   6    -42.5789333 -0.250915E-04  0.716E-03    0.29       2.8  T
   7    -42.5789335 -0.191282E-06  0.371E-03    0.29       5.4  T
   8    -42.5789336 -0.731165E-07  0.210E-03    0.29       9.5  T
   9    -42.5789337 -0.855034E-07  0.869E-04    0.29      23.0  T
  10    -42.5789337 -0.291250E-07  0.256E-04    0.29      78.2  T
     SCC iter.                  ...        0 min,  0.014 sec
     gradient                   ...        0 min,  0.013 sec
 * total energy  :   -42.0868641 Eh     change       -0.1252811E-01 Eh
   gradient norm :     0.1149168 Eh/α   predicted    -0.9148518E-02 ( -26.98%)
   displ. norm   :     0.1595213 α      lambda       -0.1148489E-01
   maximum displ.:     0.1027959 α      in ANC's #2, #46, #58, ...

........................................................................
.............................. CYCLE   15 ..............................
........................................................................

 iter      E             dE          RMSdq      gap      omega  full diag
   1    -42.5816378 -0.425816E+02  0.294E-01    0.27       0.0  T
   2    -42.5800365  0.160137E-02  0.289E-01    0.37       1.0  T
   3    -42.5714265  0.860994E-02  0.524E-01    0.12       1.0  T
   4    -42.5820985 -0.106720E-01  0.118E-01    0.31       1.0  T
   5    -42.5824180 -0.319477E-03  0.355E-02    0.29       1.0  T
   6    -42.5824456 -0.275982E-04  0.824E-03    0.29       2.4  T
   7    -42.5824474 -0.179075E-05  0.368E-03    0.29       5.4  T
   8    -42.5824475 -0.593964E-07  0.187E-03    0.29      10.7  T
   9    -42.5824476 -0.104489E-06  0.427E-04    0.29      46.8  T
  10    -42.5824476 -0.255104E-08  0.226E-04    0.29      88.3  T
     SCC iter.                  ...        0 min,  0.014 sec
     gradient                   ...        0 min,  0.013 sec
 * total energy  :   -42.0940396 Eh     change       -0.7175422E-02 Eh
   gradient norm :     0.0713760 Eh/α   predicted    -0.5888590E-02 ( -17.93%)
   displ. norm   :     0.0817180 α      lambda       -0.3279052E-02
   maximum displ.:     0.0414014 α      in ANC's #1, #2, #65, ...

........................................................................
.............................. CYCLE   16 ..............................
........................................................................

 iter      E             dE          RMSdq      gap      omega  full diag
   1    -42.5877098 -0.425877E+02  0.149E-01    0.25       0.0  T
   2    -42.5819322  0.577755E-02  0.388E-01    0.42       1.0  T
   3    -42.5877468 -0.581459E-02  0.107E-01    0.25       1.0  T
   4    -42.5879474 -0.200603E-03  0.546E-02    0.29       1.0  T
   5    -42.5880515 -0.104081E-03  0.158E-02    0.28       1.3  T
   6    -42.5880578 -0.628078E-05  0.334E-03    0.28       6.0  T
   7    -42.5880579 -0.128787E-06  0.176E-03    0.28      11.4  T
   8    -42.5880580 -0.348749E-07  0.620E-04    0.28      32.2  T
   9    -42.5880580 -0.113212E-07  0.128E-04    0.28     156.8  T
     SCC iter.                  ...        0 min,  0.013 sec
     gradient                   ...        0 min,  0.013 sec
 * total energy  :   -42.0963214 Eh     change       -0.2281854E-02 Eh
   gradient norm :     0.0485127 Eh/α   predicted    -0.1650544E-02 ( -27.67%)
   displ. norm   :     0.1611242 α      lambda       -0.2909049E-02
   maximum displ.:     0.1374939 α      in ANC's #1, #2, #33, ...

........................................................................
.............................. CYCLE   17 ..............................
........................................................................

 iter      E             dE          RMSdq      gap      omega  full diag
   1    -42.5949306 -0.425949E+02  0.208E-01    0.24       0.0  T
   2    -42.5848441  0.100865E-01  0.510E-01    0.46       1.0  T
   3    -42.5946551 -0.981098E-02  0.164E-01    0.23       1.0  T
   4    -42.5952292 -0.574119E-03  0.849E-02    0.29       1.0  T
   5    -42.5955026 -0.273412E-03  0.115E-02    0.28       1.7  T
   6    -42.5955052 -0.255374E-05  0.368E-03    0.28       5.4  T
   7    -42.5955054 -0.202567E-06  0.191E-03    0.28      10.5  T
   8    -42.5955054 -0.536133E-07  0.700E-04    0.28      28.6  T
   9    -42.5955054 -0.770337E-08  0.216E-04    0.28      92.5  T
     SCC iter.                  ...        0 min,  0.012 sec
     gradient                   ...        0 min,  0.013 sec
 * total energy  :   -42.0978495 Eh     change       -0.1528095E-02 Eh
   gradient norm :     0.0404793 Eh/α   predicted    -0.1492301E-02 (  -2.34%)
   displ. norm   :     0.2529740 α      lambda       -0.2761172E-02
   maximum displ.:     0.2384029 α      in ANC's #1, #33, #12, ...

........................................................................
.............................. CYCLE   18 ..............................
........................................................................

 iter      E             dE          RMSdq      gap      omega  full diag
   1    -42.6048654 -0.426049E+02  0.214E-01    0.25       0.0  T
   2    -42.6000843  0.478110E-02  0.367E-01    0.40       1.0  T
   3    -42.6033263 -0.324205E-02  0.229E-01    0.21       1.0  T
   4    -42.6047924 -0.146611E-02  0.956E-02    0.29       1.0  T
   5    -42.6051525 -0.360036E-03  0.124E-02    0.28       1.6  T
   6    -42.6051561 -0.366878E-05  0.543E-03    0.28       3.7  T
   7    -42.6051568 -0.707214E-06  0.231E-03    0.28       8.7  T
   8    -42.6051569 -0.680915E-07  0.797E-04    0.28      25.1  T
   9    -42.6051569 -0.160912E-07  0.267E-04    0.28      74.8  T
     SCC iter.                  ...        0 min,  0.012 sec
     gradient                   ...        0 min,  0.013 sec
 * total energy  :   -42.0987520 Eh     change       -0.9024875E-03 Eh
   gradient norm :     0.0442000 Eh/α   predicted    -0.1468958E-02 (  62.77%)
   displ. norm   :     0.1033795 α      lambda       -0.1332966E-02
   maximum displ.:     0.0949898 α      in ANC's #1, #2, #58, ...

........................................................................
.............................. CYCLE   19 ..............................
........................................................................

 iter      E             dE          RMSdq      gap      omega  full diag
   1    -42.6073272 -0.426073E+02  0.114E-01    0.31       0.0  T
   2    -42.6022118  0.511538E-02  0.360E-01    0.16       1.0  T
   3    -42.6072513 -0.503951E-02  0.968E-02    0.31       1.0  T
   4    -42.6075559 -0.304635E-03  0.308E-02    0.28       1.0  T
   5    -42.6075735 -0.175388E-04  0.116E-02    0.28       1.7  T
   6    -42.6075776 -0.409258E-05  0.165E-03    0.28      12.1  T
   7    -42.6075776 -0.202441E-07  0.851E-04    0.28      23.5  T
   8    -42.6075776 -0.320851E-08  0.284E-04    0.28      70.5  T
     SCC iter.                  ...        0 min,  0.011 sec
     gradient                   ...        0 min,  0.013 sec
 * total energy  :   -42.0996134 Eh     change       -0.8613994E-03 Eh
   gradient norm :     0.0294986 Eh/α   predicted    -0.6738634E-03 ( -21.77%)
   displ. norm   :     0.0630835 α      lambda       -0.8765211E-03
   maximum displ.:     0.0493225 α      in ANC's #1, #12, #14, ...

........................................................................
.............................. CYCLE   20 ..............................
........................................................................

 iter      E             dE          RMSdq      gap      omega  full diag
   1    -42.6075240 -0.426075E+02  0.612E-02    0.29       0.0  T
   2    -42.6072731  0.250973E-03  0.872E-02    0.26       1.0  T
   3    -42.6073183 -0.452462E-04  0.783E-02    0.31       1.0  T
   4    -42.6075374 -0.219143E-03  0.133E-02    0.28       1.5  T
   5    -42.6075416 -0.411210E-05  0.307E-03    0.28       6.5  T
   6    -42.6075417 -0.141297E-06  0.156E-03    0.28      12.8  T
   7    -42.6075417 -0.278930E-07  0.748E-04    0.28      26.7  T
   8    -42.6075417 -0.758477E-08  0.280E-04    0.28      71.3  T
     SCC iter.                  ...        0 min,  0.011 sec
     gradient                   ...        0 min,  0.013 sec
 * total energy  :   -42.1000934 Eh     change       -0.4800233E-03 Eh
   gradient norm :     0.0190598 Eh/α   predicted    -0.4400259E-03 (  -8.33%)
   displ. norm   :     0.0437704 α      lambda       -0.4311750E-03
   maximum displ.:     0.0220503 α      in ANC's #12, #19, #14, ...
 * RMSD in coord.:     0.7087978 α      energy gain  -0.6657191E+01 Eh

generating ANC from model Hessian ...
Using Lindh-Hessian (1995)
 Shifting diagonal of input Hessian by    9.8288019480064596E-003
 Lowest  eigenvalues of input Hessian
    0.000000    0.000000    0.000000    0.000000    0.000000    0.000000
    0.010000    0.010128    0.012996    0.013991    0.015409    0.018967
    0.019602    0.021265    0.021684    0.024124    0.030964    0.033944
 Highest eigenvalues
    2.068441    2.143582    2.196097    2.306704    2.514203    3.052905


........................................................................
.............................. CYCLE   21 ..............................
........................................................................

 iter      E             dE          RMSdq      gap      omega  full diag
   1    -42.6096037 -0.426096E+02  0.365E-02    0.29       0.0  T
   2    -42.6093771  0.226612E-03  0.751E-02    0.26       1.0  T
   3    -42.6095394 -0.162336E-03  0.463E-02    0.30       1.0  T
   4    -42.6096130 -0.735722E-04  0.773E-03    0.29       2.6  T
   5    -42.6096140 -0.100161E-05  0.420E-03    0.29       4.8  T
   6    -42.6096148 -0.744670E-06  0.110E-03    0.29      18.1  T
   7    -42.6096148 -0.250919E-07  0.379E-04    0.29      52.8  T
   8    -42.6096148 -0.669303E-09  0.127E-04    0.29     157.7  T
     SCC iter.                  ...        0 min,  0.011 sec
     gradient                   ...        0 min,  0.013 sec
 * total energy  :   -42.1004502 Eh     change       -0.3567539E-03 Eh
   gradient norm :     0.0211258 Eh/α   predicted     0.0000000E+00 (-100.00%)
   displ. norm   :     0.2075333 α      lambda       -0.2100256E-02
   maximum displ.:     0.1685264 α      in ANC's #12, #14, #19, ...

........................................................................
.............................. CYCLE   22 ..............................
........................................................................

 iter      E             dE          RMSdq      gap      omega  full diag
   1    -42.6116784 -0.426117E+02  0.104E-01    0.28       0.0  T
   2    -42.6116810 -0.253556E-05  0.689E-02    0.28       1.0  T
   3    -42.6108221  0.858875E-03  0.146E-01    0.33       1.0  T
   4    -42.6115774 -0.755301E-03  0.564E-02    0.26       1.0  T
   5    -42.6117031 -0.125685E-03  0.838E-03    0.28       2.4  T
   6    -42.6117052 -0.206313E-05  0.205E-03    0.28       9.7  T
   7    -42.6117052  0.322427E-08  0.137E-03    0.28      14.6  T
   8    -42.6117052 -0.516320E-07  0.268E-04    0.28      74.7  T
   9    -42.6117052 -0.114051E-08  0.118E-04    0.28     169.5  T
     SCC iter.                  ...        0 min,  0.012 sec
     gradient                   ...        0 min,  0.013 sec
 * total energy  :   -42.1019356 Eh     change       -0.1485458E-02 Eh
   gradient norm :     0.0076006 Eh/α   predicted    -0.1095419E-02 ( -26.26%)
   displ. norm   :     0.2012580 α      lambda       -0.8473943E-03
   maximum displ.:     0.1566230 α      in ANC's #12, #6, #8, ...

........................................................................
.............................. CYCLE   23 ..............................
........................................................................

 iter      E             dE          RMSdq      gap      omega  full diag
   1    -42.6137724 -0.426138E+02  0.761E-02    0.28       0.0  T
   2    -42.6137288  0.436044E-04  0.559E-02    0.27       1.0  T
   3    -42.6127691  0.959651E-03  0.159E-01    0.33       1.0  T
   4    -42.6137806 -0.101148E-02  0.147E-02    0.27       1.4  T
   5    -42.6137852 -0.464297E-05  0.384E-03    0.28       5.2  T
   6    -42.6137855 -0.290417E-06  0.148E-03    0.28      13.5  T
   7    -42.6137855 -0.944702E-09  0.958E-04    0.28      20.9  T
   8    -42.6137855 -0.303858E-07  0.200E-04    0.28     100.1  T
     SCC iter.                  ...        0 min,  0.011 sec
     gradient                   ...        0 min,  0.013 sec
 * total energy  :   -42.1024326 Eh     change       -0.4969592E-03 Eh
   gradient norm :     0.0050358 Eh/α   predicted    -0.4412291E-03 ( -11.21%)
   displ. norm   :     0.0829872 α      lambda       -0.1131655E-03
   maximum displ.:     0.0621511 α      in ANC's #6, #12, #8, ...

........................................................................
.............................. CYCLE   24 ..............................
........................................................................

 iter      E             dE          RMSdq      gap      omega  full diag
   1    -42.6144539 -0.426145E+02  0.285E-02    0.28       0.0  T
   2    -42.6143515  0.102420E-03  0.517E-02    0.26       1.0  T
   3    -42.6144182 -0.666620E-04  0.341E-02    0.29       1.0  T
   4    -42.6144582 -0.400022E-04  0.637E-03    0.28       3.1  T
   5    -42.6144590 -0.797733E-06  0.997E-04    0.28      20.1  T
   6    -42.6144590 -0.242165E-07  0.456E-04    0.28      43.8  T
     SCC iter.                  ...        0 min,  0.009 sec
     gradient                   ...        0 min,  0.013 sec
 * total energy  :   -42.1025138 Eh     change       -0.8120654E-04 Eh
   gradient norm :     0.0034411 Eh/α   predicted    -0.5697304E-04 ( -29.84%)
   displ. norm   :     0.0830437 α      lambda       -0.6867406E-04
   maximum displ.:     0.0700610 α      in ANC's #6, #2, #8, ...

........................................................................
.............................. CYCLE   25 ..............................
........................................................................

 iter      E             dE          RMSdq      gap      omega  full diag
   1    -42.6147390 -0.426147E+02  0.297E-02    0.28       0.0  T
   2    -42.6145353  0.203713E-03  0.721E-02    0.25       1.0  T
   3    -42.6147314 -0.196102E-03  0.242E-02    0.29       1.0  T
   4    -42.6147475 -0.161505E-04  0.784E-03    0.28       2.6  T
   5    -42.6147485 -0.934628E-06  0.166E-03    0.28      12.0  T
   6    -42.6147486 -0.106864E-06  0.513E-04    0.28      39.0  T
   7    -42.6147486 -0.530851E-08  0.237E-04    0.28      84.4  T
     SCC iter.                  ...        0 min,  0.010 sec
     gradient                   ...        0 min,  0.013 sec
 * total energy  :   -42.1025553 Eh     change       -0.4154466E-04 Eh
   gradient norm :     0.0013197 Eh/α   predicted    -0.3460855E-04 ( -16.70%)
   displ. norm   :     0.0496875 α      lambda       -0.1151582E-04
   maximum displ.:     0.0378080 α      in ANC's #6, #2, #9, ...

   *** GEOMETRY OPTIMIZATION CONVERGED AFTER 25 ITERATIONS ***

------------------------------------------------------------------------
 total energy gain   :        -6.6596526 Eh    -4178.9951 kcal/mol
 total RMSD          :         0.7159574 a0        0.3789 Å
 total power (kW/mol):      -699.3966172 (step)********** (real)
------------------------------------------------------------------------

 ANCopt (total)                0 d,  0 h,  0 min,  0.811 sec
 optimizer setup                ...        0 min,  0.000 sec (  0.040%)
 model hessian                  ...        0 min,  0.014 sec (  1.681%)
 ANC generation                 ...        0 min,  0.002 sec (  0.214%)
 coordinate transformation      ...        0 min,  0.000 sec (  0.029%)
 single point calculation       ...        0 min,  0.789 sec ( 97.280%)
 optimization log               ...        0 min,  0.002 sec (  0.287%)
 hessian update                 ...        0 min,  0.000 sec (  0.039%)
 rational function              ...        0 min,  0.002 sec (  0.280%)

================
 final structure:
================
25
 xtb: 6.6.1 (8d0f1dd)
C            3.21856718508913        1.19926880200643        0.01870409087048
N            2.22687765956936        0.16208441923627        0.00125812421001
C            2.45508060833268       -1.18090411018480       -0.00498505362768
N            1.35693485372375       -1.89433361718070       -0.00488888463986
C            0.34824577779474       -0.98814313019557        0.00283315299166
C            0.88261536883507        0.31679390691954        0.00809393761882
C            0.03778482057141        1.49366551163449       -0.00183481353974
O            0.42619242181534        2.63735063430298       -0.01612663903105
N           -1.31324915970960        1.15056602835148        0.00244624662362
C           -2.28543703047053        2.23363740897603       -0.00276912069690
C           -1.86330050065248       -0.11975894499142        0.00552769020951
O           -3.04934382254856       -0.30277730504346        0.00828238979524
N           -0.97075171355782       -1.21538567852644        0.00395329980535
C           -1.50021816978182       -2.55415742059092       -0.00102223176007
H            3.72273527729718        1.22097281951938        0.98715082629637
H            3.96381673987574        1.01590795163467       -0.75561326766319
H            2.73529461002116        2.16109692252385       -0.15053277972195
H            3.44160877710355       -1.60236542041518       -0.01066387547603
H           -1.74671678484776        3.17771515589098        0.00544183783916
H           -2.91343624851173        2.16267761959428       -0.89141665466981
H           -2.92986280835863        2.15510568097935        0.87326104514712
H           -1.14300403110171       -3.09468826285517        0.87640026120706
H           -1.15973952480268       -3.08200635426253       -0.89278968764180
H           -2.58741026587756       -2.49602410305830        0.00898410099459
H            1.80714747429170       -4.73805997266536       -0.03852237724095

 Bond Distances (Angstroems)
 ---------------------------
C1-N2=1.4351         C1-H15=1.0920        C1-H16=1.0902        C1-H17=1.0896        N2-C1=1.4351         N2-C3=1.3623         
N2-C6=1.3532         C3-N2=1.3623         C3-N4=1.3095         C3-H18=1.0728        N4-C3=1.3095         N4-C5=1.3560         
C5-N4=1.3560         C5-C6=1.4101         C5-N13=1.3384        C6-N2=1.3532         C6-C5=1.4101         C6-C7=1.4487         
C7-C6=1.4487         C7-O8=1.2079         C7-N9=1.3939         O8-C7=1.2079         N9-C7=1.3939         N9-C10=1.4554        
N9-C11=1.3843        C10-N9=1.4554        C10-H19=1.0870       C10-H20=1.0905       C10-H21=1.0904       C11-N9=1.3843        
C11-O12=1.2001       C11-N13=1.4132       O12-C11=1.2001       N13-C5=1.3384        N13-C11=1.4132       N13-C14=1.4397       
C14-N13=1.4397       C14-H22=1.0907       C14-H23=1.0908       C14-H24=1.0888       H15-C1=1.0920        H16-C1=1.0902        
H17-C1=1.0896        H18-C3=1.0728        H19-C10=1.0870       H20-C10=1.0905       H21-C10=1.0904       H22-C14=1.0907       
H23-C14=1.0908       H24-C14=1.0888       
 C  H  Rav=1.0883 sigma=0.0053  Rmin=1.0728  Rmax=1.0920    10
 C  C  Rav=1.4294 sigma=0.0193  Rmin=1.4101  Rmax=1.4487     2
 N  C  Rav=1.3855 sigma=0.0443  Rmin=1.3095  Rmax=1.4554    11
 O  C  Rav=1.2040 sigma=0.0039  Rmin=1.2001  Rmax=1.2079     2

 selected bond angles (degree)
 --------------------
H15-C1-N2=110.13               H16-C1-N2=110.01               H16-C1-H15=108.52              H17-C1-N2=109.24               
H17-C1-H15=108.96              H17-C1-H16=109.96              C3-N2-C1=126.64                C6-N2-C1=127.14                
C6-N2-C3=106.21                N4-C3-N2=113.37                H18-C3-N2=122.78               H18-C3-N4=123.86               
C5-N4-C3=105.05                C6-C5-N4=109.67                N13-C5-N4=128.29               N13-C5-C6=122.04               
C5-C6-N2=105.70                C7-C6-N2=132.23                C7-C6-C5=122.06                O8-C7-C6=125.57                
N9-C7-C6=111.42                N9-C7-O8=123.01                C10-N9-C7=117.66               C11-N9-C7=127.66               
C11-N9-C10=114.68              H19-C10-N9=108.38              H20-C10-N9=109.83              H20-C10-H19=110.37             
H21-C10-N9=109.77              H21-C10-H19=110.45             H21-C10-H20=108.04             

 selected dihedral angles (degree)
 ---------------------------------
C3-N2-C1-H15=290.11           C3-N2-C1-H16= 49.69           C3-N2-C1-H17=170.47           C6-N2-C1-H15=109.03           
C6-N2-C1-H16=228.60           C6-N2-C1-H17=349.39           N4-C3-N2-C1=179.21            N4-C3-N2-C6=  0.11            
H18-C3-N2-C1=359.14           H18-C3-N2-C6=180.03           C5-N4-C3-N2=359.95            C5-N4-C3-H18=180.03           
C6-C5-N4-C3=359.97            N13-C5-N4-C3=179.89           C5-C6-N2-C1=180.79            C5-C6-N2-C3=359.89            
C7-C6-N2-C1=  1.89            C7-C6-N2-C3=180.98            N2-C6-C5-N4=  0.09            N2-C6-C5-N13=180.17           
C7-C6-C5-N4=179.13            C7-C6-C5-N13=359.21           O8-C7-C6-N2=359.81            O8-C7-C6-C5=181.05            
N9-C7-C6-N2=179.60            N9-C7-C6-C5=  0.84            C10-N9-C7-C6=179.83           C10-N9-C7-O8=359.63           
C11-N9-C7-C6=359.53           C11-N9-C7-O8=179.33           H19-C10-N9-C7=359.17          H19-C10-N9-C11=179.43         
H20-C10-N9-C7=119.81          H20-C10-N9-C11=300.07         H21-C10-N9-C7=238.46          H21-C10-N9-C11= 58.72         
           -------------------------------------------------
          |                Final Singlepoint                |
           -------------------------------------------------

          ...................................................
          :                      SETUP                      :
          :.................................................:
          :  # basis functions                  67          :
          :  # atomic orbitals                  67          :
          :  # shells                           39          :
          :  # electrons                        74          :
          :  max. iterations                   250          :
          :  Hamiltonian                  GFN2-xTB          :
          :  restarted?                      false          :
          :  GBSA solvation                  false          :
          :  PC potential                    false          :
          :  electronic temp.         2500.0000000     K    :
          :  accuracy                    1.0000000          :
          :  -> integral cutoff          0.2500000E+02      :
          :  -> integral neglect         0.1000000E-07      :
          :  -> SCF convergence          0.1000000E-05 Eh   :
          :  -> wf. convergence          0.1000000E-03 e    :
          :  Broyden damping             0.4000000          :
          ...................................................

 iter      E             dE          RMSdq      gap      omega  full diag
   1    -42.6147486 -0.426147E+02  0.101E-04    0.28       0.0  T
   2    -42.6147486 -0.605525E-10  0.708E-05    0.28     282.6  T
   3    -42.6147486 -0.117957E-09  0.359E-05    0.28     557.1  T

   *** convergence criteria satisfied after 3 iterations ***

         #    Occupation            Energy/Eh            Energy/eV
      -------------------------------------------------------------
         1        2.0000           -0.8925447             -24.2874
       ...           ...                  ...                  ...
        31        1.9993           -0.6094062             -16.5828
        32        1.9989           -0.6057179             -16.4824
        33        1.9954           -0.5944408             -16.1756
        34        1.9772           -0.5816782             -15.8283
        35        1.9436           -0.5743643             -15.6292
        36        1.9288           -0.5724636             -15.5775
        37        1.3886           -0.5528319             -15.0433 (HOMO)
        38        0.7686           -0.5426073             -14.7651 (LUMO)
        39        0.0000           -0.4288538             -11.6697
        40                         -0.3869644             -10.5298
        41                         -0.3733159             -10.1584
        42                         -0.2937541              -7.9935
       ...                                ...                  ...
        67                          0.5457851              14.8516
      -------------------------------------------------------------
                  HL-Gap            0.0102246 Eh            0.2782 eV
             Fermi-level           -0.5463385 Eh          -14.8666 eV

 SCC (total)                   0 d,  0 h,  0 min,  0.023 sec
 SCC setup                      ...        0 min,  0.000 sec (  0.825%)
 Dispersion                     ...        0 min,  0.000 sec (  0.846%)
 classical contributions        ...        0 min,  0.000 sec (  0.303%)
 integral evaluation            ...        0 min,  0.005 sec ( 21.491%)
 iterations                     ...        0 min,  0.005 sec ( 20.259%)
 molecular gradient             ...        0 min,  0.013 sec ( 55.700%)
 printout                       ...        0 min,  0.000 sec (  0.517%)

         :::::::::::::::::::::::::::::::::::::::::::::::::::::
         ::                     SUMMARY                     ::
         :::::::::::::::::::::::::::::::::::::::::::::::::::::
         :: total energy             -42.102555334870 Eh    ::
         :: gradient norm              0.001321309681 Eh/a0 ::
         :: HOMO-LUMO gap              0.278226431512 eV    ::
         ::.................................................::
         :: SCC energy               -42.614748583490 Eh    ::
         :: -> isotropic ES            0.134511971894 Eh    ::
         :: -> anisotropic ES         -0.004206092186 Eh    ::
         :: -> anisotropic XC          0.014870034369 Eh    ::
         :: -> dispersion             -0.022482144749 Eh    ::
         :: repulsion energy           0.512097531504 Eh    ::
         :: add. restraining           0.000002087686 Eh    ::
         :: total charge               1.000000000000 e     ::
         :::::::::::::::::::::::::::::::::::::::::::::::::::::

           -------------------------------------------------
          |                Property Printout                |
           -------------------------------------------------

    * Orbital Energies and Occupations

         #    Occupation            Energy/Eh            Energy/eV
      -------------------------------------------------------------
         1        2.0000           -0.8925447             -24.2874
       ...           ...                  ...                  ...
        25        2.0000           -0.6645226             -18.0826
        26        2.0000           -0.6566321             -17.8679
        27        2.0000           -0.6398753             -17.4119
        28        2.0000           -0.6390941             -17.3906
        29        1.9999           -0.6279532             -17.0875
        30        1.9996           -0.6144169             -16.7191
        31        1.9993           -0.6094062             -16.5828
        32        1.9989           -0.6057179             -16.4824
        33        1.9954           -0.5944408             -16.1756
        34        1.9772           -0.5816782             -15.8283
        35        1.9436           -0.5743643             -15.6292
        36        1.9288           -0.5724636             -15.5775
        37        1.3886           -0.5528319             -15.0433 (HOMO)
        38        0.7686           -0.5426073             -14.7651 (LUMO)
        39        0.0000           -0.4288538             -11.6697
        40                         -0.3869644             -10.5298
        41                         -0.3733159             -10.1584
        42                         -0.2937541              -7.9935
        43                         -0.2039818              -5.5506
        44                         -0.1582705              -4.3068
        45                         -0.1347293              -3.6662
        46                         -0.0813758              -2.2143
        47                         -0.0552199              -1.5026
        48                         -0.0348803              -0.9491
       ...                                ...                  ...
        67                          0.5457851              14.8516
      -------------------------------------------------------------
                  HL-Gap            0.0102246 Eh            0.2782 eV
             Fermi-level           -0.5463385 Eh          -14.8666 eV

     #   Z          covCN         q      C6AA      α(0)
     1   6 C        3.689    -0.083    22.278     6.755
     2   7 N        2.830     0.053    20.311     6.693
     3   6 C        3.193     0.100    25.315     8.205
     4   7 N        1.889    -0.225    26.758     7.669
     5   6 C        3.178     0.136    24.664     8.109
     6   6 C        3.110    -0.002    27.920     8.657
     7   6 C        2.762     0.274    22.366     7.745
     8   8 O        0.858    -0.337    20.461     6.065
     9   7 N        2.745    -0.075    22.696     7.076
    10   6 C        3.710    -0.063    21.849     6.680
    11   6 C        2.727     0.317    21.609     7.610
    12   8 O        0.860    -0.334    20.398     6.055
    13   7 N        2.738    -0.013    21.512     6.889
    14   6 C        3.701    -0.074    22.090     6.721
    15   1 H        0.924     0.109     1.706     2.042
    16   1 H        0.924     0.106     1.735     2.060
    17   1 H        0.925     0.125     1.577     1.964
    18   1 H        0.926     0.107     1.723     2.053
    19   1 H        0.925     0.117     1.639     2.002
    20   1 H        0.924     0.107     1.722     2.052
    21   1 H        0.924     0.107     1.718     2.050
    22   1 H        0.924     0.112     1.680     2.027
    23   1 H        0.924     0.112     1.680     2.027
    24   1 H        0.925     0.128     1.547     1.945
    25   1 H        0.000     0.196     2.795     3.057

 Mol. C6AA /au·bohr⁶  :       6604.994776
 Mol. C8AA /au·bohr⁸  :     150946.809367
 Mol. α(0) /au        :        124.206821


Wiberg/Mayer (AO) data.
largest (>0.10) Wiberg bond orders for each atom

 ---------------------------------------------------------------------------
     #   Z sym  total        # sym  WBO       # sym  WBO       # sym  WBO
 ---------------------------------------------------------------------------
     1   6 C    3.914 --     2 N    0.994    17 H    0.964    16 H    0.959
                            15 H    0.948
     2   7 N    3.639 --     6 C    1.255     3 C    1.234     1 C    0.994
     3   6 C    3.859 --     4 N    1.523     2 N    1.234    18 H    0.956
     4   7 N    3.015 --     3 C    1.523     5 C    1.250
     5   6 C    3.890 --     4 N    1.250    13 N    1.242     6 C    1.231
     6   6 C    3.796 --     2 N    1.255     5 C    1.231     7 C    1.062
     7   6 C    3.952 --     8 O    1.693     9 N    1.104     6 C    1.062
     8   8 O    1.992 --     7 C    1.693     9 N    0.137
     9   7 N    3.537 --    11 C    1.123     7 C    1.104    10 C    0.972
                             8 O    0.137    12 O    0.128
    10   6 C    3.893 --     9 N    0.972    19 H    0.967    21 H    0.954
                            20 H    0.954
    11   6 C    3.952 --    12 O    1.706     9 N    1.123    13 N    1.034
    12   8 O    2.005 --    11 C    1.706     9 N    0.128
    13   7 N    3.470 --     5 C    1.242    11 C    1.034    14 C    0.989
    14   6 C    3.896 --    13 N    0.989    24 H    0.965    22 H    0.946
                            23 H    0.946
    15   1 H    0.976 --     1 C    0.948
    16   1 H    0.981 --     1 C    0.959
    17   1 H    0.983 --     1 C    0.964
    18   1 H    0.987 --     3 C    0.956
    19   1 H    0.985 --    10 C    0.967
    20   1 H    0.972 --    10 C    0.954
    21   1 H    0.973 --    10 C    0.954
    22   1 H    0.964 --    14 C    0.946
    23   1 H    0.963 --    14 C    0.946
    24   1 H    0.983 --    14 C    0.965
    25   1 H    0.040
 ---------------------------------------------------------------------------

Topologies differ in total number of bonds
Writing topology from bond orders to xtbtopo.mol

molecular dipole:
                 x           y           z       tot (Debye)
 q only:        1.820      -2.114       0.004
   full:        2.112      -1.989       0.011       7.373
molecular quadrupole (traceless):
                xx          xy          yy          xz          yz          zz
 q only:        8.405      -8.086      13.989       0.112       0.307     -22.394
  q+dip:        8.399      -8.988       9.098       0.178       0.340     -17.497
   full:        7.238      -8.781       8.307       0.184       0.348     -15.545

           -------------------------------------------------
          |                Geometry Summary                 |
           -------------------------------------------------

      molecular mass/u    :      195.1988581
   center of mass at/Å    :       -0.0256819       0.0709300       0.0011266
  moments of inertia/u·Å² :        0.4958359E+03   0.7105748E+03   0.1196929E+04
rotational constants/cm⁻¹ :        0.3399841E-01   0.2372394E-01   0.1408407E-01

 * 24 selected distances

     #   Z          #   Z                                           value/Å
     1   6 C        2   7 N                                       1.4350973
     2   7 N        3   6 C                                       1.3622533
     3   6 C        4   7 N                                       1.3095442
     4   7 N        5   6 C                                       1.3559848
     2   7 N        6   6 C                                       1.3531531
     5   6 C        6   6 C                                       1.4101204
     7   6 C        8   8 O                                       1.2079241
     7   6 C        9   7 N                                       1.3939257
     9   7 N       10   6 C                                       1.4554108 (max)
     9   7 N       11   6 C                                       1.3843019
    11   6 C       12   8 O                                       1.2000843
     5   6 C       13   7 N                                       1.3384301
    11   6 C       13   7 N                                       1.4131681
    13   7 N       14   6 C                                       1.4396769
     1   6 C       15   1 H                                       1.0920375
     1   6 C       16   1 H                                       1.0902228
     1   6 C       17   1 H                                       1.0896362
     3   6 C       18   1 H                                       1.0728000 (min)
    10   6 C       19   1 H                                       1.0870004
    10   6 C       20   1 H                                       1.0904646
    10   6 C       21   1 H                                       1.0903581
    14   6 C       22   1 H                                       1.0907089
    14   6 C       23   1 H                                       1.0907794
    14   6 C       24   1 H                                       1.0887913

 * 4 distinct bonds (by element types)

   Z      Z             #   av. dist./Å        max./Å        min./Å
   1 H    6 C          10     1.0882799     1.0920375     1.0728000
   6 C    6 C           1     1.4101204     1.4101204     1.4101204
   6 C    7 N          11     1.3855406     1.4554108     1.3095442
   6 C    8 O           2     1.2040042     1.2079241     1.2000843


optimized geometry written to: xtbopt.xyz


           -------------------------------------------------
          | TOTAL ENERGY              -42.102555334870 Eh   |
          | GRADIENT NORM               0.001321309681 Eh/α |
          | HOMO-LUMO GAP               0.278226431512 eV   |
           -------------------------------------------------

------------------------------------------------------------------------
 * finished run on 2024/06/05 at 19:58:00.773     
------------------------------------------------------------------------
 total:
 * wall-time:     0 d,  0 h,  0 min,  0.904 sec
 *  cpu-time:     0 d,  0 h,  0 min,  0.887 sec
 * ratio c/w:     0.982 speedup
 SCF:
 * wall-time:     0 d,  0 h,  0 min,  0.038 sec
 *  cpu-time:     0 d,  0 h,  0 min,  0.038 sec
 * ratio c/w:     1.000 speedup
 ANC optimizer:
 * wall-time:     0 d,  0 h,  0 min,  0.838 sec
 *  cpu-time:     0 d,  0 h,  0 min,  0.835 sec
 * ratio c/w:     0.996 speedup

