25
 energy: -42.102557422565 gnorm: 0.003158159955 xtb: 6.6.1 (8d0f1dd)
C            3.21856718508913        1.19926880200643        0.01870409087048
N            2.22687765956936        0.16208441923627        0.00125812421001
C            2.45508060833268       -1.18090411018480       -0.00498505362768
N            1.35693485372375       -1.89433361718070       -0.00488888463986
C            0.34824577779474       -0.98814313019557        0.00283315299166
C            0.88261536883507        0.31679390691954        0.00809393761882
C            0.03778482057141        1.49366551163449       -0.00183481353974
O            0.42619242181534        2.63735063430298       -0.01612663903105
N           -1.31324915970960        1.15056602835148        0.00244624662362
C           -2.28543703047053        2.23363740897603       -0.00276912069690
C           -1.86330050065248       -0.11975894499142        0.00552769020951
O           -3.04934382254856       -0.30277730504346        0.00828238979524
N           -0.97075171355782       -1.21538567852644        0.00395329980535
C           -1.50021816978182       -2.55415742059092       -0.00102223176007
H            3.72273527729718        1.22097281951938        0.98715082629637
H            3.96381673987574        1.01590795163467       -0.75561326766319
H            2.73529461002116        2.16109692252385       -0.15053277972195
H            3.44160877710355       -1.60236542041518       -0.01066387547603
H           -1.74671678484776        3.17771515589098        0.00544183783916
H           -2.91343624851173        2.16267761959428       -0.89141665466981
H           -2.92986280835863        2.15510568097935        0.87326104514712
H           -1.14300403110171       -3.09468826285517        0.87640026120706
H           -1.15973952480268       -3.08200635426253       -0.89278968764180
H           -2.58741026587756       -2.49602410305830        0.00898410099459
H            1.80714747429170       -4.73805997266536       -0.03852237724095
25
 energy: -42.103178200862 gnorm: 0.004219529034 xtb: 6.6.1 (8d0f1dd)
C            3.21792477381330        1.19521896729642        0.01853922135976
N            2.22815442573340        0.15597432925399        0.00122015921302
C            2.45628044548140       -1.18681490804091       -0.00487756740698
N            1.35795916399390       -1.90024164526173       -0.00494156806621
C            0.34878622702703       -0.99477936285852        0.00250601557568
C            0.88373182800355        0.30928537641327        0.00776459446790
C            0.03972709031503        1.48713784936624       -0.00180195221181
O            0.42893664091021        2.63078724244949       -0.01545423040162
N           -1.31144465115744        1.14562417234351        0.00206471693566
C           -2.28183429850363        2.23079972446445       -0.00278849439281
C           -1.86252192677246       -0.12428538072987        0.00515858042681
O           -3.04878107685269       -0.30583568866044        0.00798872376906
N           -0.97065000187591       -1.22085123905716        0.00354228908490
C           -1.50275925826825       -2.55836745175276       -0.00106848025643
H            3.72295529769176        1.21779390643325        0.98659271103754
H            3.96305041968787        1.01419312467449       -0.75638563048787
H            2.73321162380698        2.15630285709930       -0.14983670524663
H            3.44268286228766       -1.60831373882961       -0.01018455506538
H           -1.74110679242795        3.17398810133371        0.00553838438893
H           -2.91021574728796        2.16215408430115       -0.89132713836491
H           -2.92637962997691        2.15427191698284        0.87331055464548
H           -1.14677413223789       -3.09924985424376        0.87669972325255
H           -1.16391893178837       -3.08690577837566       -0.89316493582592
H           -2.58986038598980       -2.49718820630312        0.00914851410183
H            1.79327754848707       -4.63245985669881       -0.03707131263249
25
 energy: -42.104702220225 gnorm: 0.007954201583 xtb: 6.6.1 (8d0f1dd)
C            3.21776020024317        1.18834043603453        0.01839755253607
N            2.22999287634808        0.14690311442808        0.00117549588466
C            2.45850246735856       -1.19531122664018       -0.00485814483334
N            1.35968753759170       -1.90913857034577       -0.00512186140941
C            0.34975526842584       -1.00378193867139        0.00215663282471
C            0.88524358101333        0.29951068594910        0.00743351882631
C            0.04254779812979        1.47868970416251       -0.00180527874648
O            0.43328885684718        2.62189210656554       -0.01489736956457
N           -1.30892409960096        1.13935981703971        0.00173998890204
C           -2.27758357723739        2.22637800429209       -0.00280413939352
C           -1.86117278913909       -0.13005017583070        0.00482978989414
O           -3.04763120225825       -0.31004891157626        0.00772117954622
N           -0.97038218197043       -1.22784178628729        0.00314808332011
C           -1.50538112910350       -2.56416310427794       -0.00115003051094
H            3.72333513045180        1.21205163759207        0.98614027674416
H            3.96278053862968        1.00994486813641       -0.75720840769524
H            2.73080828216334        2.14847094199262       -0.14915942113084
H            3.44503246023268       -1.61644169235984       -0.00991907893627
H           -1.73515479734382        3.16870613069971        0.00561088140513
H           -2.90622881170893        2.15942288870593       -0.89127237028976
H           -2.92217315972842        2.15129784386754        0.87337728718947
H           -1.15092119334559       -3.10561766353745        0.87687081372141
H           -1.16843988216753       -3.09351972567669       -0.89348752009318
H           -2.59233449784760       -2.50001356006343        0.00927668552793
H            1.76802383811624       -4.47680128259926       -0.03502294581872
25
 energy: -42.109196655632 gnorm: 0.017491083863 xtb: 6.6.1 (8d0f1dd)
C            3.21811698858368        1.17759935643970        0.01829227806796
N            2.23314654606247        0.13282286584842        0.00107236668354
C            2.46281941281825       -1.20790277353167       -0.00500267868810
N            1.36296413313883       -1.92283088672646       -0.00551327556495
C            0.35149846058360       -1.01744015393308        0.00171066561735
C            0.88760855891913        0.28470503208314        0.00705122652360
C            0.04680709575892        1.46602920940636       -0.00184525627196
O            0.44006499030088        2.60842773284412       -0.01443811705907
N           -1.30519865230648        1.13013883557831        0.00146546698502
C           -2.27186237870292        2.21941908333623       -0.00281066014590
C           -1.85903264669801       -0.13856793697647        0.00452777713867
O           -3.04576210815182       -0.31653368470716        0.00749566559563
N           -0.96986974111195       -1.23804869051328        0.00273101864443
C           -1.50855138299536       -2.57286856617549       -0.00127830334498
H            3.72396677972439        1.20347682453877        0.98577506198773
H            3.96323552396381        1.00302681162496       -0.75800075661783
H            2.72785977487648        2.13632210186659       -0.14856060132538
H            3.44982345601784       -1.62780526443267       -0.00987360822774
H           -1.72789338106394        3.16093947885468        0.00567165671907
H           -2.90091461555947        2.15429650330164       -0.89113456338435
H           -2.91666758708060        2.14598004223715        0.87336087709417
H           -1.15614723441643       -3.11484406781023        0.87720463510558
H           -1.17399904500595       -3.10294593230288       -0.89405156863030
H           -2.59526508818949       -2.50484974726874        0.00936071251994
H            1.72368365463403       -4.24030763198251       -0.03203840152195
25
 energy: -42.123588790599 gnorm: 0.042153325658 xtb: 6.6.1 (8d0f1dd)
C            3.21870668514053        1.16255750031953        0.01826481186567
N            2.23872577186515        0.11138160529285        0.00089577054979
C            2.47169449827757       -1.22553567591210       -0.00535353873142
N            1.36956233403489       -1.94341190932538       -0.00623298005830
C            0.35434384619261       -1.03828142921602        0.00109374570152
C            0.89106655991145        0.26165438128285        0.00656487062144
C            0.05291486966225        1.44691497244928       -0.00193973381542
O            0.45040996854119        2.58792529815801       -0.01406112203262
N           -1.30000354876507        1.11701600484731        0.00125288693815
C           -2.26414535742025        2.20962533711998       -0.00279867348650
C           -1.85612404709015       -0.15064586499049        0.00426810224230
O           -3.04325452909165       -0.32561548025811        0.00734637910548
N           -0.96940683748689       -1.25254254678596        0.00226681797379
C           -1.51293380313099       -2.58538215873848       -0.00145509661194
H            3.72438146176638        1.19299967258285        0.98556247853581
H            3.96441164190720        0.99457046998636       -0.75872606253725
H            2.72292527257832        2.11887146751614       -0.14814828080478
H            3.45990105066197       -1.64215303540242       -0.01005978549350
H           -1.71882994145274        3.15045521824034        0.00572981893657
H           -2.89391783782477        2.14696943506551       -0.89083910802032
H           -2.90951069048508        2.13851858142514        0.87320335257686
H           -1.16353200795286       -3.12745381921917        0.87805562369027
H           -1.18163963678947       -3.11574517771196       -0.89516540488269
H           -2.59919721808492       -2.51173376122935        0.00939195095133
H            1.65388300913528       -3.90272054389751       -0.02794520531405
25
 energy: -42.169487665122 gnorm: 0.105816349836 xtb: 6.6.1 (8d0f1dd)
C            3.21847273684573        1.14446455535978        0.01833842242001
N            2.24747289707959        0.08084357977987        0.00069493766045
C            2.48840096572363       -1.24751316792344       -0.00586828121298
N            1.38178423631419       -1.97444582776074       -0.00735254706721
C            0.35814810147317       -1.06843988754289        0.00029146977679
C            0.89488782251269        0.22767999762534        0.00596020396342
C            0.06023733823466        1.42102348061526       -0.00209282619117
O            0.46467847056199        2.55979724556982       -0.01373875386133
N           -1.29397456456742        1.10140486183228        0.00114240793087
C           -2.25543747864345        2.19882914271838       -0.00277425162062
C           -1.85316674813656       -0.16481204382086        0.00409984883353
O           -3.04073437501606       -0.33552001690562        0.00729216733989
N           -0.96990723383425       -1.27012496255983        0.00179057602582
C           -1.51876117992403       -2.60086223877052       -0.00165973436173
H            3.72356896818373        1.18338621691731        0.98539343644408
H            3.96558207513982        0.98746753876844       -0.75928833387856
H            2.71449421414729        2.09737846168801       -0.14792632367306
H            3.47907515423699       -1.65612562146465       -0.01039705044921
H           -1.70960829280704        3.13945079356570        0.00577988820042
H           -2.88629483752149        2.13941218620579       -0.89035523649133
H           -2.90177985212375        2.13090165555008        0.87284789263656
H           -1.17345172759757       -3.14143005523152        0.88010202226514
H           -1.19167627331720       -3.12991795783279       -0.89739679002033
H           -2.60412341373595       -2.51931917763038        0.00938620598169
H            1.56254451087135       -3.48529021715396       -0.02309773275096
25
 energy: -42.239034208690 gnorm: 0.062298674115 xtb: 6.6.1 (8d0f1dd)
C            3.21438422320345        1.12486880089875        0.01822672657776
N            2.25551367357582        0.04118721381082        0.00067519598839
C            2.51027856414434       -1.27618541982269       -0.00638845118838
N            1.39988355123748       -2.03438776380723       -0.00898752999868
C            0.36353200427274       -1.11153010033805       -0.00059992944082
C            0.89746536374917        0.18366524979775        0.00537189020073
C            0.06708714368089        1.39437940252882       -0.00224200396287
O            0.48034166874607        2.53018260956372       -0.01354025921772
N           -1.28783550837037        1.08787928018904        0.00112937349458
C           -2.24871990303621        2.19059157841551       -0.00278647941127
C           -1.84999590405547       -0.17631550376445        0.00405235594065
O           -3.03686845643502       -0.34348245040181        0.00729603958204
N           -0.96945360393951       -1.28779428979180        0.00138908501308
C           -1.52387080584081       -2.61632726963438       -0.00184754438412
H            3.72030451282759        1.17566858552401        0.98440607920943
H            3.96468072787012        0.98216755026121       -0.75914415550217
H            2.70373270511936        2.07636722804653       -0.14746464876649
H            3.50517239798720       -1.66685141458719       -0.01074137291766
H           -1.70345228775759        3.13144614061393        0.00579967287004
H           -2.87997173277195        2.13429331537920       -0.89010535758258
H           -2.89539315795902        2.12579051655898        0.87264916117517
H           -1.18335204829108       -3.15303258349628        0.88351374259288
H           -1.20156203320749       -3.14166978108206       -0.90084026247130
H           -2.60783499285470       -2.52478356579984        0.00939136744607
H            1.46636541220519       -3.02788878746397       -0.01804107734656
25
 energy: -42.238755688368 gnorm: 0.068838367203 xtb: 6.6.1 (8d0f1dd)
C            3.22133123297914        1.14295095963928        0.01825744097729
N            2.27127584424738        0.06182786206851        0.00084672972526
C            2.54921355357219       -1.23199429956442       -0.00653309858140
N            1.42911901593879       -1.97409772608300       -0.00835493652999
C            0.37166510290506       -1.09014601636879       -0.00072085848965
C            0.90654570354744        0.19142975597650        0.00543897374976
C            0.06971575779589        1.39040298891620       -0.00229409553618
O            0.48306976678717        2.52328712082815       -0.01377981425768
N           -1.28186065530394        1.07390406167161        0.00103110810299
C           -2.24372524297713        2.17330383345438       -0.00272417740756
C           -1.84381494608035       -0.19036194485287        0.00374615908010
O           -3.02812827638131       -0.36600718595420        0.00698984265540
N           -0.95689081424393       -1.29495257429445        0.00092072941382
C           -1.51222770794320       -2.63112646926501       -0.00228553741431
H            3.72153667310512        1.18770049669851        0.98662148726279
H            3.96917769963066        0.99772619995093       -0.76031106318683
H            2.69053550574505        2.08165798303783       -0.14761544763829
H            3.54479283872331       -1.63089994265771       -0.01124250231325
H           -1.69468137243092        3.11152165979489        0.00605049101993
H           -2.87145511413983        2.11455172737488       -0.89158442700705
H           -2.88681116212720        2.10580800955187        0.87435985414034
H           -1.18536699197410       -3.17437781293691        0.88475298178441
H           -1.20337248258322       -3.16324181183136       -0.90256274730336
H           -2.59692469087017       -2.54026377776650        0.00889102285111
H            1.23771227617974       -3.05036455578937       -0.01672649719952
25
 energy: -42.244747201439 gnorm: 0.019315209641 xtb: 6.6.1 (8d0f1dd)
C            3.22214045625206        1.12560992833186        0.01776443819864
N            2.26984762601942        0.05126160801125        0.00091894071889
C            2.54506483818195       -1.23055842707689       -0.00674180278471
N            1.39966874133439       -1.94267976728342       -0.00747027153903
C            0.35049853382593       -1.07019074782469       -0.00035406772163
C            0.90298132819177        0.19157044798894        0.00564058684699
C            0.07286274050710        1.38857078850643       -0.00233162274397
O            0.49504031905146        2.51631021785751       -0.01434736226310
N           -1.27826490971366        1.07036544685180        0.00101964652268
C           -2.23425205210983        2.17161611678121       -0.00268267410441
C           -1.85275119896844       -0.18875308751103        0.00371111332232
O           -3.03578183897483       -0.36325612436484        0.00693581238428
N           -0.97067266908578       -1.29359262105313        0.00091327487906
C           -1.52369393715236       -2.63753274676822       -0.00234449470448
H            3.71963689835285        1.16864398047108        0.98693512236920
H            3.96889974787264        0.98009909763649       -0.76116986969620
H            2.68302041997841        2.05846401835979       -0.14764222645482
H            3.53691943934920       -1.64908093189791       -0.01197926320344
H           -1.67615929766647        3.10404567349337        0.00616698511796
H           -2.85850992683990        2.11196447190415       -0.89311194445778
H           -2.87377048034224        2.10324396217516        0.87613810221648
H           -1.20665774148927       -3.18601916809115        0.88596413311440
H           -1.22433681607801       -3.17510369778793       -0.90349508943169
H           -2.60858985261617       -2.54855592073219        0.00869873007820
H            1.33729114622067       -2.93820397637899       -0.01596457876464
25
 energy: -42.244872974416 gnorm: 0.018724014959 xtb: 6.6.1 (8d0f1dd)
C            3.21934910027539        1.12989380247854        0.01791954344005
N            2.26616162221318        0.05199255042495        0.00081541087718
C            2.53597466780624       -1.24043035455500       -0.00731710416353
N            1.39094897543613       -1.95279974772695       -0.00824076603939
C            0.34926739287482       -1.07093910087259       -0.00016247371990
C            0.90227392947046        0.19738686641728        0.00584213660046
C            0.07282019548092        1.39602107273599       -0.00230075828331
O            0.49055231200499        2.52725183454942       -0.01462709197635
N           -1.27697841216124        1.07186117261322        0.00113167493465
C           -2.23362980518966        2.17308221041286       -0.00260765420763
C           -1.85242568128304       -0.18751393098488        0.00388801789749
O           -3.03655483767221       -0.35850737256752        0.00698572492470
N           -0.97144841493262       -1.29505563161199        0.00102711604144
C           -1.52459554379731       -2.63656979852919       -0.00242963173031
H            3.72025957406341        1.17427532844680        0.98557951724872
H            3.96770465351520        0.98520924138510       -0.75971277984159
H            2.68918790961214        2.06760483001450       -0.14678419990447
H            3.52369088344143       -1.66244408796914       -0.01295210973810
H           -1.67585513935727        3.10573446532767        0.00616685864901
H           -2.85849844815133        2.11414519916302       -0.89263946909728
H           -2.87370893047202        2.10545077042201        0.87583663608461
H           -1.20570465352099       -3.18292038260235        0.88575146693002
H           -1.22297363240529       -3.17184816533687       -0.90337527522946
H           -2.60969132785761       -2.54325252474276        0.00838184783347
H            1.37430512470696       -2.97938970529355       -0.01500501963098
25
 energy: -42.245113128476 gnorm: 0.012039751232 xtb: 6.6.1 (8d0f1dd)
C            3.21759733249201        1.13726495554156        0.01800343416658
N            2.26763797871658        0.05326145751685        0.00086222577865
C            2.53899471097089       -1.24362743011927       -0.00726414407812
N            1.39688138144771       -1.96344995500263       -0.00810405932773
C            0.35538842018546       -1.07638033411114        0.00023269848806
C            0.90529508438383        0.19788325572232        0.00604963765725
C            0.07446769966787        1.39773239384737       -0.00240942004081
O            0.48754799016460        2.53153268320958       -0.01505659357134
N           -1.27383172443569        1.06865514754962        0.00112142594307
C           -2.23264871853492        2.16929530670677       -0.00270219657919
C           -1.84770532563662       -0.19158812455973        0.00394934448178
O           -3.03220659889729       -0.36146933580462        0.00693454278333
N           -0.96558746457369       -1.30061532612829        0.00121986452704
C           -1.52013073590440       -2.63975253038992       -0.00236995853485
H            3.72046573545759        1.18383771593821        0.98483438522832
H            3.96742684042234        0.99514545558717       -0.75888121444697
H            2.68990083311566        2.07665893782408       -0.14628587729828
H            3.52514756102963       -1.66413114259279       -0.01320804869308
H           -1.67664361838045        3.10302744006483        0.00598292773914
H           -2.85807267904022        2.11078029743700       -0.89235503767102
H           -2.87326418080974        2.10216742086796        0.87536949852938
H           -1.20098892486072       -3.18449219407987        0.88600956500278
H           -1.21768064706417       -3.17336677763426       -0.90330167028647
H           -2.60528750337467       -2.54195426316721        0.00810245764179
H            1.31772806755946       -2.96817651262492       -0.01556216954032
25
 energy: -42.245264697578 gnorm: 0.002958128599 xtb: 6.6.1 (8d0f1dd)
C            3.21915395233526        1.13354051651335        0.01790117157504
N            2.26929486347051        0.05257553830576        0.00086391971953
C            2.54193067158727       -1.23813541402803       -0.00714537368994
N            1.39470534974621       -1.94959761324995       -0.00757352476026
C            0.35209895313020       -1.06907792935618        0.00040202638754
C            0.90580703170758        0.19875878277502        0.00616923496790
C            0.07503701484255        1.39659369910083       -0.00244979426854
O            0.48956543716100        2.52849299729696       -0.01526846872441
N           -1.27347523651176        1.06768305793435        0.00113692480385
C           -2.23163391769867        2.16831491946563       -0.00269332423462
C           -1.84961652688195       -0.19123562638721        0.00391537132046
O           -3.03357762905806       -0.36136860135599        0.00690987204365
N           -0.96753984007054       -1.29929286634112        0.00125492833858
C           -1.52180809401965       -2.64048152200316       -0.00237208476938
H            3.72001376534277        1.17884741797944        0.98568213272406
H            3.96794826165862        0.99106477961557       -0.75988531307552
H            2.68530484415520        2.06944512800485       -0.14646954634024
H            3.52739652336656       -1.66389049730197       -0.01323541505553
H           -1.67422080100517        3.10111230598462        0.00599784477362
H           -2.85617644422009        2.10912183352508       -0.89276621185294
H           -2.87137262604151        2.10054016375496        0.87581740634914
H           -1.20593702308345       -3.18742543744120        0.88625264938201
H           -1.22224904249363       -3.17640930558407       -0.90333618894486
H           -2.60689220222992       -2.54418262530523        0.00787969801696
H            1.32667422891162       -2.95675516030365       -0.01581631678703
