      -----------------------------------------------------------      
     |                   =====================                   |     
     |                           x T B                           |     
     |                   =====================                   |     
     |                         S. Grimme                         |     
     |          Mulliken Center for Theoretical Chemistry        |     
     |                    University of Bonn                     |     
      -----------------------------------------------------------      

   * xtb version 6.6.1 (8d0f1dd) compiled by 'conda@1efc2f54142f' on 2023-08-01

   xtb is free software: you can redistribute it and/or modify it under
   the terms of the GNU Lesser General Public License as published by
   the Free Software Foundation, either version 3 of the License, or
   (at your option) any later version.
   
   xtb is distributed in the hope that it will be useful,
   but WITHOUT ANY WARRANTY; without even the implied warranty of
   MERCHANTABILITY or FITNESS FOR A PARTICULAR PURPOSE.  See the
   GNU Lesser General Public License for more details.
   
   Cite this work as:
   * C. Bannwarth, E. Caldeweyher, S. Ehlert, A. Hansen, P. Pracht,
     J. Seibert, S. Spicher, S. Grimme, WIREs Comput. Mol. Sci., 2020, 11,
     e01493. DOI: 10.1002/wcms.1493
   
   for GFN2-xTB:
   * C. Bannwarth, S. Ehlert and S. Grimme., J. Chem. Theory Comput., 2019,
     15, 1652-1671. DOI: 10.1021/acs.jctc.8b01176
   for GFN1-xTB:
   * S. Grimme, C. Bannwarth, P. Shushkov, J. Chem. Theory Comput., 2017,
     13, 1989-2009. DOI: 10.1021/acs.jctc.7b00118
   for GFN0-xTB:
   * P. Pracht, E. Caldeweyher, S. Ehlert, S. Grimme, ChemRxiv, 2019, preprint.
     DOI: 10.26434/chemrxiv.8326202.v1
   for GFN-FF:
   * S. Spicher and S. Grimme, Angew. Chem. Int. Ed., 2020, 59, 15665-15673.
     DOI: 10.1002/anie.202004239
   
   for ALPB and GBSA implicit solvation:
   * S. Ehlert, M. Stahn, S. Spicher, S. Grimme, J. Chem. Theory Comput.,
     2021, 17, 4250-4261. DOI: 10.1021/acs.jctc.1c00471
   
   for DFT-D4:
   * E. Caldeweyher, C. Bannwarth and S. Grimme, J. Chem. Phys., 2017,
     147, 034112. DOI: 10.1063/1.4993215
   * E. Caldeweyher, S. Ehlert, A. Hansen, H. Neugebauer, S. Spicher,
     C. Bannwarth and S. Grimme, J. Chem. Phys., 2019, 150, 154122.
     DOI: 10.1063/1.5090222
   * E. Caldeweyher, J.-M. Mewes, S. Ehlert and S. Grimme, Phys. Chem. Chem. Phys.
     2020, 22, 8499-8512. DOI: 10.1039/D0CP00502A
   
   for sTDA-xTB:
   * S. Grimme and C. Bannwarth, J. Chem. Phys., 2016, 145, 054103.
     DOI: 10.1063/1.4959605
   
   in the mass-spec context:
   * V. Asgeirsson, C. Bauer and S. Grimme, Chem. Sci., 2017, 8, 4879.
     DOI: 10.1039/c7sc00601b
   * J. Koopman and S. Grimme, ACS Omega 2019, 4, 12, 15120-15133.
     DOI: 10.1021/acsomega.9b02011
   
   for metadynamics refer to:
   * S. Grimme, J. Chem. Theory Comput., 2019, 155, 2847-2862
     DOI: 10.1021/acs.jctc.9b00143
   
   for SPH calculations refer to:
   * S. Spicher and S. Grimme, J. Chem. Theory Comput., 2021, 17, 1701-1714
     DOI: 10.1021/acs.jctc.0c01306
   
   with help from (in alphabetical order)
   P. Atkinson, C. Bannwarth, F. Bohle, G. Brandenburg, E. Caldeweyher
   M. Checinski, S. Dohm, S. Ehlert, S. Ehrlich, I. Gerasimov, C. Hölzer
   A. Katbashev, J. Koopman, C. Lavigne, S. Lehtola, F. März, M. Müller,
   F. Musil, H. Neugebauer, J. Pisarek, C. Plett, P. Pracht, F. Pultar,
   J. Seibert, P. Shushkov, S. Spicher, M. Stahn, M. Steiner, T. Strunk,
   J. Stückrath, T. Rose, and J. Unsleber
   
 * started run on 2024/06/05 at 19:59:09.632     

           -------------------------------------------------
          |                Calculation Setup                |
           -------------------------------------------------

          program call               : xtb xtbopt.xyz --opt crude --input .xc2 --gfn2
          hostname                   : n-62-31-11
          coordinate file            : xtbopt.xyz
          omp threads                :                     1

   ID    Z sym.   atoms
    1    6 C      1, 3, 5-7, 10, 11, 14
    2    7 N      2, 4, 9, 13
    3    8 O      8, 12
    4    1 H      15-25
########################################################################
[WARNING] Please study the warnings concerning your input carefully
-1- readin_getIntValue: could not parse ''
########################################################################

           -------------------------------------------------
          |                 G F N 2 - x T B                 |
           -------------------------------------------------

        Reference                      10.1021/acs.jctc.8b01176
      * Hamiltonian:
        H0-scaling (s, p, d)           1.850000    2.230000    2.230000
        zeta-weighting                 0.500000
      * Dispersion:
        s8                             2.700000
        a1                             0.520000
        a2                             5.000000
        s9                             5.000000
      * Repulsion:
        kExp                           1.500000    1.000000
        rExp                           1.000000
      * Coulomb:
        alpha                          2.000000
        third order                    shell-resolved
        anisotropic                    true
        a3                             3.000000
        a5                             4.000000
        cn-shift                       1.200000
        cn-exp                         4.000000
        max-rad                        5.000000

q/qsh data taken from xtbrestart
CAMM data taken from xtbrestart

          ...................................................
          :                      SETUP                      :
          :.................................................:
          :  # basis functions                  67          :
          :  # atomic orbitals                  67          :
          :  # shells                           39          :
          :  # electrons                        74          :
          :  max. iterations                   250          :
          :  Hamiltonian                  GFN2-xTB          :
          :  restarted?                       true          :
          :  GBSA solvation                  false          :
          :  PC potential                    false          :
          :  electronic temp.         5000.0000000     K    :
          :  accuracy                    1.0000000          :
          :  -> integral cutoff          0.2500000E+02      :
          :  -> integral neglect         0.1000000E-07      :
          :  -> SCF convergence          0.1000000E-05 Eh   :
          :  -> wf. convergence          0.1000000E-03 e    :
          :  Broyden damping             0.4000000          :
          ...................................................

 iter      E             dE          RMSdq      gap      omega  full diag
   1    -42.7193354 -0.427193E+02  0.586E-05    1.42       0.0  T
   2    -42.7193354  0.100016E-09  0.834E-05    1.42     239.7  T
   3    -42.7193355 -0.174069E-09  0.173E-05    1.42    1153.1  T

   *** convergence criteria satisfied after 3 iterations ***

         #    Occupation            Energy/Eh            Energy/eV
      -------------------------------------------------------------
         1        2.0000           -0.8974785             -24.4216
       ...           ...                  ...                  ...
        31        1.9999           -0.6185083             -16.8305
        32        1.9999           -0.6086779             -16.5630
        33        1.9998           -0.6034871             -16.4217
        34        1.9996           -0.5900390             -16.0558
        35        1.9991           -0.5748595             -15.6427
        36        1.9966           -0.5544262             -15.0867
        37        1.6668           -0.4788484             -13.0301 (HOMO)
        38        0.3117           -0.4266063             -11.6085 (LUMO)
        39        0.0235           -0.3831800             -10.4269
        40        0.0031           -0.3509223              -9.5491
        41        0.0001           -0.2885196              -7.8510
        42        0.0000           -0.2083541              -5.6696
       ...           ...                  ...                  ...
        67                          0.5307633              14.4428
      -------------------------------------------------------------
                  HL-Gap            0.0522421 Eh            1.4216 eV
             Fermi-level           -0.4533595 Eh          -12.3365 eV

 SCC (total)                   0 d,  0 h,  0 min,  0.039 sec
 SCC setup                      ...        0 min,  0.000 sec (  0.687%)
 Dispersion                     ...        0 min,  0.000 sec (  0.831%)
 classical contributions        ...        0 min,  0.000 sec (  0.222%)
 integral evaluation            ...        0 min,  0.005 sec ( 12.606%)
 iterations                     ...        0 min,  0.006 sec ( 14.947%)
 molecular gradient             ...        0 min,  0.027 sec ( 70.211%)
 printout                       ...        0 min,  0.000 sec (  0.465%)

         :::::::::::::::::::::::::::::::::::::::::::::::::::::
         ::                     SUMMARY                     ::
         :::::::::::::::::::::::::::::::::::::::::::::::::::::
         :: total energy             -42.199111793351 Eh    ::
         :: gradient norm              0.008103293475 Eh/a0 ::
         :: HOMO-LUMO gap              1.421579383184 eV    ::
         ::.................................................::
         :: SCC energy               -42.719335450051 Eh    ::
         :: -> isotropic ES            0.124037319398 Eh    ::
         :: -> anisotropic ES         -0.005495230307 Eh    ::
         :: -> anisotropic XC          0.011802357181 Eh    ::
         :: -> dispersion             -0.023001218189 Eh    ::
         :: repulsion energy           0.520106781027 Eh    ::
         :: add. restraining           0.000000000000 Eh    ::
         :: total charge               0.999999999993 e     ::
         :::::::::::::::::::::::::::::::::::::::::::::::::::::

      ----------------------------------------------------------- 
     |                   =====================                   |
     |                        A N C O P T                        |
     |                   =====================                   |
     |               Approximate Normal Coordinate               |
     |                Rational Function Optimizer                |
      ----------------------------------------------------------- 

          ...................................................
          :                      SETUP                      :
          :.................................................:
          :   optimization level             crude          :
          :   max. optcycles                   200          :
          :   ANC micro-cycles                  20          :
          :   degrees of freedom                69          :
          :.................................................:
          :   RF solver                   davidson          :
          :   write xtbopt.log                true          :
          :   linear?                        false          :
          :   energy convergence         0.5000000E-03 Eh   :
          :   grad. convergence          0.1000000E-01 Eh/α :
          :   maxmium RF displ.          1.0000000          :
          :   Hlow (freq-cutoff)         0.1000000E-01      :
          :   Hmax (freq-cutoff)         5.0000000          :
          :   S6 in model hess.         20.0000000          :
          ...................................................

generating ANC from model Hessian ...
Using Lindh-Hessian (1995)
 Shifting diagonal of input Hessian by    7.1483722953540338E-003
 Lowest  eigenvalues of input Hessian
    0.000000    0.000000    0.000000    0.000000    0.000000    0.000000
    0.010000    0.010521    0.012341    0.016507    0.017777    0.017920
    0.018875    0.021612    0.025200    0.027233    0.027518    0.043054
 Highest eigenvalues
    2.026852    2.187961    2.227814    2.274005    2.331551    2.519556


........................................................................
.............................. CYCLE    1 ..............................
........................................................................

 iter      E             dE          RMSdq      gap      omega  full diag
   1    -42.7193355 -0.427193E+02  0.111E-05    1.42       0.0  T
   2    -42.7193355 -0.390799E-12  0.806E-06    1.42    2479.9  T
   3    -42.7193355 -0.881073E-12  0.528E-06    1.42    3787.4  T
     SCC iter.                  ...        0 min,  0.005 sec
     gradient                   ...        0 min,  0.014 sec
 * total energy  :   -42.1991118 Eh     change       -0.1548983E-11 Eh
   gradient norm :     0.0081033 Eh/α   predicted     0.0000000E+00 (-100.00%)
   displ. norm   :     0.0808169 α      lambda       -0.3117541E-03
   maximum displ.:     0.0457718 α      in ANC's #11, #5, #12, ...

   *** GEOMETRY OPTIMIZATION CONVERGED AFTER 1 ITERATIONS ***

------------------------------------------------------------------------
 total energy gain   :        -0.0000000 Eh       -0.0000 kcal/mol
 total RMSD          :         0.0000000 a0        0.0000 Å
 total power (kW/mol):        -0.0000000 (step)   -0.0000 (real)
------------------------------------------------------------------------

 ANCopt (total)                0 d,  0 h,  0 min,  0.034 sec
 optimizer setup                ...        0 min,  0.000 sec (  1.398%)
 model hessian                  ...        0 min,  0.006 sec ( 19.135%)
 ANC generation                 ...        0 min,  0.001 sec (  2.327%)
 coordinate transformation      ...        0 min,  0.000 sec (  0.029%)
 single point calculation       ...        0 min,  0.024 sec ( 70.665%)
 optimization log               ...        0 min,  0.002 sec (  5.514%)
 hessian update                 ...        0 min,  0.000 sec (  0.004%)
 rational function              ...        0 min,  0.000 sec (  0.351%)

================
 final structure:
================
25
 xtb: 6.6.1 (8d0f1dd)
C            3.41838332555545        0.71162551210879       -0.06384251955915
N            2.45532889767899       -0.19523420164443       -0.03326200531592
C            2.58083410525446       -1.54337944445633       -0.01549226303818
N            1.34148651465245       -2.13194708221347        0.01281374562084
C            0.41007357846739       -1.16695005033794        0.01358918249899
C            1.07425567849127        0.07603034041729       -0.01517464297317
C            0.31915481906267        1.24742535993387       -0.01899906651459
O            0.85752409577108        2.45914251774999       -0.04961293341313
N           -1.04846981270219        1.09708951302027        0.01107187615152
C           -1.88836418077059        2.28791543423263        0.02288729025466
C           -1.73115858735996       -0.13203590912556        0.02268297192599
O           -2.92949548628599       -0.18566593163007        0.02848268693584
N           -0.94326990323972       -1.27654680322064        0.02860511829280
C           -1.58789620495125       -2.57602509142508        0.04823515377013
H            3.16175646461966        1.74991820606387       -0.07776784108629
H            4.43916199246438        0.38672855116065       -0.07434572675768
H            0.19564243571928        3.17629692412551       -0.05630068749409
H            3.50700195901773       -2.07358663379533       -0.02011986073367
H           -1.67798767577505        2.90506241309391        0.89943957921043
H           -1.76903779956605        2.86256723941609       -0.89911536895226
H           -2.92443856593244        1.95273889323740        0.08227191220219
H           -1.32263325933613       -3.11747335316351        0.95706692840850
H           -1.30039305866447       -3.15420437414750       -0.83052213207094
H           -2.66410881832386       -2.41343685145367        0.03166972008431
H            1.18708100025186       -3.12781663634742        0.02691050045412

 Bond Distances (Angstroems)
 ---------------------------
C1-N2=1.3232         C1-H15=1.0696        C1-H16=1.0713        N2-C1=1.3232         N2-C3=1.3541         N2-C6=1.4076         
C3-N2=1.3541         C3-N4=1.3723         C3-H18=1.0672        N4-C3=1.3723         N4-C5=1.3412         N4-H25=1.0079        
C5-N4=1.3412         C5-C6=1.4096         C5-N13=1.3579        C6-N2=1.4076         C6-C5=1.4096         C6-C7=1.3937         
C7-C6=1.3937         C7-O8=1.3263         C7-N9=1.3762         O8-C7=1.3263         O8-H17=0.9759        N9-C7=1.3762         
N9-C10=1.4573        N9-C11=1.4060        C10-N9=1.4573        C10-H19=1.0925       C10-H20=1.0930       C10-H21=1.0906       
C11-N9=1.4060        C11-O12=1.1996       C11-N13=1.3895       O12-C11=1.1996       N13-C5=1.3579        N13-C11=1.3895       
N13-C14=1.4507       C14-N13=1.4507       C14-H22=1.0906       C14-H23=1.0905       C14-H24=1.0886       H15-C1=1.0696        
H16-C1=1.0713        H17-O8=0.9759        H18-C3=1.0672        H19-C10=1.0925       H20-C10=1.0930       H21-C10=1.0906       
H22-C14=1.0906       H23-C14=1.0905       H24-C14=1.0886       H25-N4=1.0079        
 C  H  Rav=1.0838 sigma=0.0103  Rmin=1.0672  Rmax=1.0930     9
 C  C  Rav=1.4016 sigma=0.0080  Rmin=1.3937  Rmax=1.4096     2
 N  H  Rav=1.0079 sigma=0.0000  Rmin=1.0079  Rmax=1.0079     1
 N  C  Rav=1.3851 sigma=0.0407  Rmin=1.3232  Rmax=1.4573    11
 O  H  Rav=0.9759 sigma=0.0000  Rmin=0.9759  Rmax=0.9759     1
 O  C  Rav=1.2629 sigma=0.0634  Rmin=1.1996  Rmax=1.3263     2

 selected bond angles (degree)
 --------------------
H15-C1-N2=119.40               H16-C1-N2=119.07               H16-C1-H15=121.53              C3-N2-C1=127.97                
C6-N2-C1=125.62                C6-N2-C3=106.42                N4-C3-N2=110.09                H18-C3-N2=125.10               
H18-C3-N4=124.80               C5-N4-C3=108.58                H25-N4-C3=124.22               H25-N4-C5=127.20               
C6-C5-N4=107.89                N13-C5-N4=129.35               N13-C5-C6=122.75               C5-C6-N2=107.02                
C7-C6-N2=133.91                C7-C6-C5=119.07                O8-C7-C6=123.23                N9-C7-C6=116.52                
N9-C7-O8=120.25                H17-O8-C7=113.34               C10-N9-C7=118.93               C11-N9-C7=125.32               
C11-N9-C10=115.75              H19-C10-N9=110.92              H20-C10-N9=111.09              H20-C10-H19=111.03             
H21-C10-N9=107.27              H21-C10-H19=108.23             H21-C10-H20=108.13             

 selected dihedral angles (degree)
 ---------------------------------
C3-N2-C1-H15=179.81           C3-N2-C1-H16=359.83           C6-N2-C1-H15=359.93           C6-N2-C1-H16=179.95           
N4-C3-N2-C1=180.11            N4-C3-N2-C6=  0.00            H18-C3-N2-C1=  0.26           H18-C3-N2-C6=180.16           
C5-N4-C3-N2=  0.00            C5-N4-C3-H18=179.84           H25-N4-C3-N2=179.80           H25-N4-C3-H18=359.65          
C6-C5-N4-C3=  0.00            C6-C5-N4-H25=180.21           N13-C5-N4-C3=179.56           N13-C5-N4-H25=359.76          
C5-C6-N2-C1=179.90            C5-C6-N2-C3=  0.00            C7-C6-N2-C1=359.83            C7-C6-N2-C3=179.93            
N2-C6-C5-N4=  0.00            N2-C6-C5-N13=180.41           C7-C6-C5-N4=180.06            C7-C6-C5-N13=  0.47           
O8-C7-C6-N2=  0.30            O8-C7-C6-C5=180.23            N9-C7-C6-N2=180.30            N9-C7-C6-C5=  0.23            
H17-O8-C7-C6=179.46           H17-O8-C7-N9=359.46           C10-N9-C7-C6=179.36           C10-N9-C7-O8=359.36           
C11-N9-C7-C6=358.89           C11-N9-C7-O8=178.89           H19-C10-N9-C7=299.96          H19-C10-N9-C11=120.39         
H20-C10-N9-C7= 63.96          H20-C10-N9-C11=244.39         H21-C10-N9-C7=181.95          H21-C10-N9-C11=  2.38         
           -------------------------------------------------
          |                Final Singlepoint                |
           -------------------------------------------------

          ...................................................
          :                      SETUP                      :
          :.................................................:
          :  # basis functions                  67          :
          :  # atomic orbitals                  67          :
          :  # shells                           39          :
          :  # electrons                        74          :
          :  max. iterations                   250          :
          :  Hamiltonian                  GFN2-xTB          :
          :  restarted?                      false          :
          :  GBSA solvation                  false          :
          :  PC potential                    false          :
          :  electronic temp.         5000.0000000     K    :
          :  accuracy                    1.0000000          :
          :  -> integral cutoff          0.2500000E+02      :
          :  -> integral neglect         0.1000000E-07      :
          :  -> SCF convergence          0.1000000E-05 Eh   :
          :  -> wf. convergence          0.1000000E-03 e    :
          :  Broyden damping             0.4000000          :
          ...................................................

 iter      E             dE          RMSdq      gap      omega  full diag
   1    -42.7193355 -0.427193E+02  0.450E-06    1.42       0.0  T
   2    -42.7193355  0.582645E-12  0.677E-06    1.42    2952.7  T
   3    -42.7193355 -0.124345E-11  0.112E-06    1.42   17823.7  T

   *** convergence criteria satisfied after 3 iterations ***

         #    Occupation            Energy/Eh            Energy/eV
      -------------------------------------------------------------
         1        2.0000           -0.8974786             -24.4216
       ...           ...                  ...                  ...
        31        1.9999           -0.6185083             -16.8305
        32        1.9999           -0.6086779             -16.5630
        33        1.9998           -0.6034870             -16.4217
        34        1.9996           -0.5900390             -16.0558
        35        1.9991           -0.5748595             -15.6427
        36        1.9966           -0.5544262             -15.0867
        37        1.6668           -0.4788484             -13.0301 (HOMO)
        38        0.3117           -0.4266064             -11.6086 (LUMO)
        39        0.0235           -0.3831799             -10.4269
        40        0.0031           -0.3509223              -9.5491
        41        0.0001           -0.2885196              -7.8510
        42        0.0000           -0.2083541              -5.6696
       ...           ...                  ...                  ...
        67                          0.5307633              14.4428
      -------------------------------------------------------------
                  HL-Gap            0.0522420 Eh            1.4216 eV
             Fermi-level           -0.4533595 Eh          -12.3365 eV

 SCC (total)                   0 d,  0 h,  0 min,  0.024 sec
 SCC setup                      ...        0 min,  0.000 sec (  0.850%)
 Dispersion                     ...        0 min,  0.000 sec (  0.762%)
 classical contributions        ...        0 min,  0.000 sec (  0.305%)
 integral evaluation            ...        0 min,  0.005 sec ( 19.799%)
 iterations                     ...        0 min,  0.005 sec ( 20.375%)
 molecular gradient             ...        0 min,  0.014 sec ( 57.379%)
 printout                       ...        0 min,  0.000 sec (  0.484%)

         :::::::::::::::::::::::::::::::::::::::::::::::::::::
         ::                     SUMMARY                     ::
         :::::::::::::::::::::::::::::::::::::::::::::::::::::
         :: total energy             -42.199111793353 Eh    ::
         :: gradient norm              0.008103313982 Eh/a0 ::
         :: HOMO-LUMO gap              1.421577064142 eV    ::
         ::.................................................::
         :: SCC energy               -42.719335450053 Eh    ::
         :: -> isotropic ES            0.124037263295 Eh    ::
         :: -> anisotropic ES         -0.005495248278 Eh    ::
         :: -> anisotropic XC          0.011802353598 Eh    ::
         :: -> dispersion             -0.023001218492 Eh    ::
         :: repulsion energy           0.520106781027 Eh    ::
         :: add. restraining           0.000000000000 Eh    ::
         :: total charge               0.999999999993 e     ::
         :::::::::::::::::::::::::::::::::::::::::::::::::::::

           -------------------------------------------------
          |                Property Printout                |
           -------------------------------------------------

    * Orbital Energies and Occupations

         #    Occupation            Energy/Eh            Energy/eV
      -------------------------------------------------------------
         1        2.0000           -0.8974786             -24.4216
       ...           ...                  ...                  ...
        25        2.0000           -0.6645042             -18.0821
        26        2.0000           -0.6595646             -17.9477
        27        2.0000           -0.6564024             -17.8616
        28        2.0000           -0.6498469             -17.6832
        29        2.0000           -0.6456988             -17.5704
        30        2.0000           -0.6225281             -16.9399
        31        1.9999           -0.6185083             -16.8305
        32        1.9999           -0.6086779             -16.5630
        33        1.9998           -0.6034870             -16.4217
        34        1.9996           -0.5900390             -16.0558
        35        1.9991           -0.5748595             -15.6427
        36        1.9966           -0.5544262             -15.0867
        37        1.6668           -0.4788484             -13.0301 (HOMO)
        38        0.3117           -0.4266064             -11.6086 (LUMO)
        39        0.0235           -0.3831799             -10.4269
        40        0.0031           -0.3509223              -9.5491
        41        0.0001           -0.2885196              -7.8510
        42        0.0000           -0.2083541              -5.6696
        43                         -0.1668228              -4.5395
        44                         -0.1365183              -3.7149
        45                         -0.1229917              -3.3468
        46                         -0.1147678              -3.1230
        47                         -0.0646822              -1.7601
        48                         -0.0461142              -1.2548
       ...                                ...                  ...
        67                          0.5307633              14.4428
      -------------------------------------------------------------
                  HL-Gap            0.0522420 Eh            1.4216 eV
             Fermi-level           -0.4533595 Eh          -12.3365 eV

     #   Z          covCN         q      C6AA      α(0)
     1   6 C        2.790    -0.103    30.579     9.058
     2   7 N        2.795     0.117    19.243     6.515
     3   6 C        3.028    -0.009    28.217     8.713
     4   7 N        2.768    -0.061    22.423     7.033
     5   6 C        3.020     0.099    25.791     8.330
     6   6 C        3.084    -0.020    28.411     8.738
     7   6 C        2.773     0.200    23.741     7.980
     8   8 O        1.659    -0.328    19.508     5.962
     9   7 N        2.743    -0.085    22.894     7.106
    10   6 C        3.701    -0.072    22.035     6.712
    11   6 C        2.722     0.315    21.642     7.616
    12   8 O        0.859    -0.372    21.123     6.162
    13   7 N        2.737    -0.058    22.354     7.022
    14   6 C        3.698    -0.071    22.033     6.713
    15   1 H        0.927     0.099     1.792     2.094
    16   1 H        0.926     0.088     1.895     2.153
    17   1 H        0.804     0.353     0.582     1.198
    18   1 H        0.927     0.105     1.743     2.064
    19   1 H        0.924     0.082     1.957     2.188
    20   1 H        0.924     0.083     1.952     2.185
    21   1 H        0.924     0.130     1.534     1.937
    22   1 H        0.924     0.083     1.944     2.180
    23   1 H        0.924     0.083     1.952     2.185
    24   1 H        0.925     0.124     1.584     1.968
    25   1 H        0.860     0.218     1.018     1.581

 Mol. C6AA /au·bohr⁶  :       6646.460109
 Mol. C8AA /au·bohr⁸  :     153272.987863
 Mol. α(0) /au        :        125.394811


Wiberg/Mayer (AO) data.
largest (>0.10) Wiberg bond orders for each atom

 ---------------------------------------------------------------------------
     #   Z sym  total        # sym  WBO       # sym  WBO       # sym  WBO
 ---------------------------------------------------------------------------
     1   6 C    3.581 --     2 N    1.348    16 H    0.970    15 H    0.968
                             3 C    0.162
     2   7 N    3.733 --     1 C    1.348     3 C    1.232     6 C    1.064
     3   6 C    3.681 --     2 N    1.232     4 N    1.176    18 H    0.960
                             1 C    0.162
     4   7 N    3.550 --     5 C    1.261     3 C    1.176    25 H    0.924
     5   6 C    3.849 --     4 N    1.261     6 C    1.234    13 N    1.162
     6   6 C    3.906 --     7 C    1.308     5 C    1.234     2 N    1.064
     7   6 C    3.749 --     6 C    1.308     9 N    1.163     8 O    1.161
     8   8 O    2.177 --     7 C    1.161    17 H    0.836
     9   7 N    3.498 --     7 C    1.163    11 C    1.064    10 C    0.977
                            12 O    0.127
    10   6 C    3.928 --     9 N    0.977    19 H    0.967    20 H    0.967
                            21 H    0.959
    11   6 C    3.944 --    12 O    1.698    13 N    1.091     9 N    1.064
    12   8 O    2.058 --    11 C    1.698    13 N    0.134     9 N    0.127
    13   7 N    3.510 --     5 C    1.162    11 C    1.091    14 C    0.974
                            12 O    0.134
    14   6 C    3.927 --    13 N    0.974    23 H    0.971    22 H    0.970
                            24 H    0.966
    15   1 H    0.990 --     1 C    0.968
    16   1 H    0.991 --     1 C    0.970
    17   1 H    0.875 --     8 O    0.836
    18   1 H    0.988 --     3 C    0.960
    19   1 H    0.989 --    10 C    0.967
    20   1 H    0.989 --    10 C    0.967
    21   1 H    0.983 --    10 C    0.959
    22   1 H    0.989 --    14 C    0.970
    23   1 H    0.989 --    14 C    0.971
    24   1 H    0.984 --    14 C    0.966
    25   1 H    0.952 --     4 N    0.924
 ---------------------------------------------------------------------------

Topologies differ in total number of bonds
Writing topology from bond orders to xtbtopo.mol

molecular dipole:
                 x           y           z       tot (Debye)
 q only:        1.423      -0.490       0.000
   full:        1.506      -0.575      -0.000       4.097
molecular quadrupole (traceless):
                xx          xy          yy          xz          yz          zz
 q only:       -2.223      -8.436      21.132      -0.283      -0.345     -18.909
  q+dip:       -6.706     -11.795      24.352      -0.154      -0.374     -17.645
   full:       -7.558     -11.313      23.939      -0.141      -0.345     -16.380

           -------------------------------------------------
          |                Geometry Summary                 |
           -------------------------------------------------

      molecular mass/u    :      195.1988581
   center of mass at/Å    :        0.1236829      -0.0653279      -0.0005260
  moments of inertia/u·Å² :        0.4873367E+03   0.7054155E+03   0.1186225E+04
rotational constants/cm⁻¹ :        0.3459135E-01   0.2389745E-01   0.1421115E-01

 * 26 selected distances

     #   Z          #   Z                                           value/Å
     1   6 C        2   7 N                                       1.3231795
     2   7 N        3   6 C                                       1.3540913
     3   6 C        4   7 N                                       1.3722958
     4   7 N        5   6 C                                       1.3411750
     2   7 N        6   6 C                                       1.4075778
     5   6 C        6   6 C                                       1.4095978
     6   6 C        7   6 C                                       1.3936853
     7   6 C        8   8 O                                       1.3262871
     7   6 C        9   7 N                                       1.3761913
     9   7 N       10   6 C                                       1.4572676 (max)
     9   7 N       11   6 C                                       1.4060400
    11   6 C       12   8 O                                       1.1995505
     5   6 C       13   7 N                                       1.3578571
    11   6 C       13   7 N                                       1.3894996
    13   7 N       14   6 C                                       1.4507145
     1   6 C       15   1 H                                       1.0696276
     1   6 C       16   1 H                                       1.0712878
     8   8 O       17   1 H                                       0.9759317 (min)
     3   6 C       18   1 H                                       1.0672058
    10   6 C       19   1 H                                       1.0924618
    10   6 C       20   1 H                                       1.0929559
    10   6 C       21   1 H                                       1.0905596
    14   6 C       22   1 H                                       1.0906448
    14   6 C       23   1 H                                       1.0904879
    14   6 C       24   1 H                                       1.0885509
     4   7 N       25   1 H                                       1.0078671

 * 6 distinct bonds (by element types)

   Z      Z             #   av. dist./Å        max./Å        min./Å
   1 H    6 C           9     1.0837536     1.0929559     1.0672058
   6 C    6 C           2     1.4016415     1.4095978     1.3936853
   1 H    7 N           1     1.0078671     1.0078671     1.0078671
   6 C    7 N          11     1.3850809     1.4572676     1.3231795
   1 H    8 O           1     0.9759317     0.9759317     0.9759317
   6 C    8 O           2     1.2629188     1.3262871     1.1995505


optimized geometry written to: xtbopt.xyz


           -------------------------------------------------
          | TOTAL ENERGY              -42.199111793353 Eh   |
          | GRADIENT NORM               0.008103313982 Eh/α |
          | HOMO-LUMO GAP               1.421577064142 eV   |
           -------------------------------------------------

------------------------------------------------------------------------
 * finished run on 2024/06/05 at 19:59:09.788     
------------------------------------------------------------------------
 total:
 * wall-time:     0 d,  0 h,  0 min,  0.155 sec
 *  cpu-time:     0 d,  0 h,  0 min,  0.101 sec
 * ratio c/w:     0.651 speedup
 SCF:
 * wall-time:     0 d,  0 h,  0 min,  0.039 sec
 *  cpu-time:     0 d,  0 h,  0 min,  0.033 sec
 * ratio c/w:     0.846 speedup
 ANC optimizer:
 * wall-time:     0 d,  0 h,  0 min,  0.064 sec
 *  cpu-time:     0 d,  0 h,  0 min,  0.057 sec
 * ratio c/w:     0.886 speedup

