25
 energy: -42.188417596234 gnorm: 0.006432611785 xtb: 6.6.1 (8d0f1dd)
C            3.10374743405171        1.21870459696388       -0.05334453911370
N            2.17676062165481        0.12010498642021       -0.06575146294919
C            2.50027894242008       -1.18711859213810       -0.06572676045402
N            1.37199705580680       -1.93411927979845       -0.03233362607118
C            0.30534951593395       -1.09277912803678       -0.00560613418102
C            0.80147264864650        0.21627164845164       -0.02623972589717
C           -0.08245152655383        1.28902828640596       -0.02049094115840
O            0.32053586419099        2.57342088413996        0.00150748522438
N           -1.43156344447221        1.00515599211516       -0.02163796584542
C           -2.35331761552018        1.98092544100101       -0.06338163903930
C           -1.94681540706534       -0.33689241861298        0.06009601516466
O           -3.13000882324114       -0.53128156741763        0.11456631457747
N           -1.02279679019704       -1.36510245420126        0.05780594139098
C           -1.50150072130533       -2.73484367444376        0.09526732289466
H            3.51148700657958        1.36494738300061        0.94906649885252
H            3.92459914097462        1.02099402938652       -0.74089379546209
H            2.58399020184170        2.12480332803364       -0.35489948224948
H            3.49529352400272       -1.57713742555390       -0.09280149301799
H           -0.42563427612962        3.13269557221885        0.27622156657337
H           -2.10730707179338        2.98613638108417       -0.34261168845643
H           -3.37264903604762        1.70487827312047        0.07696545400079
H           -1.14308330265778       -3.23544778828463        0.99497605676409
H           -1.17196363673094       -3.27503057246364       -0.79252135722060
H           -2.58972962014953       -2.70763492310866        0.11232311111290
H            1.34374082986070       -2.94244043668196       -0.02938353754015
