72
 energy: 0.000000000000 xtb: 6.6.1 (8d0f1dd)
N           -1.47310934822924        2.74401318561852        2.22063942287560
C           -1.55658894218425        2.16490305624665        1.13274284460745
C           -2.74549225258129        2.05621251263064        0.23826250649470
C           -3.31377583855761        0.64333417511334        0.32332515650284
C           -4.30230195924506        0.24487112428158       -0.58026167086503
C           -4.85238808050968       -1.02286499940159       -0.53363593669082
O           -5.81420026757557       -1.48606047972767       -1.36157895357670
C           -6.39655692584623       -0.60827005826649       -2.29568495601309
C           -4.39972542350640       -1.94646120241305        0.44396933240983
O           -4.98748357557592       -3.16146026488900        0.41085995818162
C           -4.66362171172287       -4.10093865802695        1.40909140816864
C           -3.42072545213514       -1.54561399150247        1.33436558640148
C           -2.88302826362110       -0.26315802838497        1.27400162590187
C           -2.19303818453636        2.30467021687947       -1.18742988123374
C           -1.26651549989641        1.17243380322503       -1.65249445018642
C            0.01082525039567        1.09745464658138       -0.89354811789923
N            0.61779399208289       -0.02034948241203       -0.57705527866251
C            2.00145228921113       -0.02376006609561       -0.15611401051620
C            2.92554961797610       -0.53865287672537       -1.27700100652360
C            4.35756883501756       -0.43050761225877       -0.83075552032494
C            5.07346182539911        0.73206415878124       -1.03980975472950
C            6.38628045899965        0.84224449235903       -0.60344828301384
C            7.00047329721665       -0.20824758267940        0.05722314949100
O            8.26703733840855       -0.21011315050632        0.52410948507466
C            9.06912311989339        0.92943609656965        0.31863060963839
C            6.27040022445068       -1.40439766990411        0.28033468609137
O            6.94830004375713       -2.38012947787858        0.92752007684741
C            6.31537376337817       -3.61583233633369        1.15217722400438
C            4.96302840674480       -1.49347485723979       -0.16064431849589
C           -0.05511211878686       -1.29906259857679       -0.62085692079872
C           -3.86758072907722        3.07992629005348        0.58498065642721
C           -4.49286201346546        2.77383518785172        1.94313307512182
C           -3.39165211343248        4.52917708609625        0.54797528556046
H           -4.66030069703099        0.94509076131725       -1.31640581036773
H           -6.85037992114187        0.25803164586058       -1.80468862056629
H           -7.17287509152171       -1.18600121846629       -2.79318183475679
H           -5.66836870040540       -0.26952968819383       -3.04040283452035
H           -4.88416765986127       -3.71589494995018        2.40913564538747
H           -5.29223619720187       -4.96637504833431        1.20969248126828
H           -3.61139846644506       -4.39919876145526        1.35529370415983
H           -3.07077825100221       -2.21868786295666        2.10002682176568
H           -2.14562774333496        0.02067850888151        2.01001363031684
H           -3.02188903413801        2.38238034416975       -1.88813562572432
H           -1.65198546223364        3.25146730843841       -1.20556295755141
H           -1.81103391047759        0.23006526775522       -1.62116316669324
H           -0.99335697743926        1.37490224954061       -2.69443281971844
H           -0.67628070635666        1.65183902374723        0.61785732877701
H            0.63525847086258        1.98466388206871       -0.92314029755375
H            2.11132572081740       -0.65949698961381        0.72532619960637
H            2.30680494458141        0.98978260887088        0.11078973822125
H            2.76694224489122        0.06750735773687       -2.17075272340394
H            2.67954606229959       -1.57455642411728       -1.51167757545099
H            4.62170041431221        1.56295626549351       -1.56123593485311
H            6.92357738865082        1.75715832247601       -0.79119604059515
H            8.65159193263071        1.81001840117181        0.81701562739969
H            9.20136256512460        1.14042868409438       -0.74698998879646
H           10.03428931104811        0.69003246578081        0.76064945022918
H            7.05567240429544       -4.23621211097668        1.65347581279537
H            5.43848051513375       -3.50813590722545        1.79970582482858
H            6.02060097762632       -4.09420535105165        0.21253284608183
H            4.40102799328555       -2.40127288651695       -0.00490198294521
H           -0.22071301762289       -1.61775598610935       -1.65116024301020
H           -1.01972267469312       -1.24102728946113       -0.10935207845464
H            0.55899959333766       -2.04486104898380       -0.12333731565713
H           -4.63991918782192        2.95501120214274       -0.18098089750912
H           -3.76095251366987        2.90314731895452        2.73380846416528
H           -4.87457659255110        1.75695657819473        1.97884621460846
H           -5.31925601899505        3.45579242388173        2.12325583951056
H           -2.60025614255587        4.69225089676674        1.27368930043085
H           -3.03987434616939        4.81897697030947       -0.43870979129779
H           -4.22191779840287        5.18069696155015        0.80616701440619
H           -0.59832439338922        2.77744720721660        2.72959009765665
72
 energy: -5.446640907929 xtb: 6.6.1 (8d0f1dd)
N           -1.49414802083536        2.78445881020879        2.23982827988889
C           -1.56455069418167        2.15742867048428        1.15896265404635
C           -2.74658756665913        2.06177040144515        0.24581485066532
C           -3.31741596545296        0.65124917087249        0.32846062901656
C           -4.30163985299061        0.24708058889674       -0.57645437298296
C           -4.84748394224321       -1.02207212891137       -0.53238863565017
O           -5.81230937925480       -1.49019857203702       -1.36504831092429
C           -6.38930355652434       -0.61119964343855       -2.29908326418604
C           -4.39746960633295       -1.94283539317113        0.44446894986383
O           -4.98774028410353       -3.16467150378785        0.41066905517365
C           -4.66124434449864       -4.09923635820269        1.41019823324708
C           -3.42383478745025       -1.53920538386278        1.33796915411180
C           -2.88997573735983       -0.25524595698998        1.27983270622283
C           -2.19214043386018        2.30061830602734       -1.18340021695273
C           -1.25869749845722        1.18395202146876       -1.67551442626044
C            0.01099979876943        1.12082964017631       -0.89513998666851
N            0.63023409037649       -0.04128113559791       -0.55841447617884
C            2.00451692370479       -0.03888522349175       -0.14795932596147
C            2.93129125582721       -0.54746761965370       -1.27005279966834
C            4.35975184882676       -0.43655576884517       -0.83466283919860
C            5.07190593047547        0.73080456817272       -1.03345950656707
C            6.38288881865491        0.84319479455773       -0.59552002828416
C            6.99975989828827       -0.20947817617197        0.05763202971756
O            8.27585695301092       -0.21262992567575        0.52143427295063
C            9.06823063318484        0.93059754272876        0.31445384973575
C            6.27301570134319       -1.40484159348928        0.27701912434021
O            6.95723475216398       -2.38646457591798        0.91956138332963
C            6.32006294999637       -3.61959369551033        1.13701924912974
C            4.96760953984715       -1.49744808456476       -0.16354570062298
C           -0.05044540047838       -1.30836969981271       -0.61514679768830
C           -3.87468925454988        3.07972734229720        0.57827125459659
C           -4.50015621276401        2.77802242205940        1.93778433608504
C           -3.39707456782515        4.52924501023481        0.54438148074253
H           -4.65359658644596        0.94411430295515       -1.31878828812322
H           -6.84261818721261        0.25650315020011       -1.80905645198534
H           -7.16540266732551       -1.18807975262942       -2.79909079505895
H           -5.65871014728106       -0.27135666586720       -3.04105029179400
H           -4.88229830384289       -3.71262853442129        2.41015203303652
H           -5.28781448925775       -4.96712493395914        1.21233251850482
H           -3.60786095801521       -4.39456323727167        1.35885262239674
H           -3.07029254388556       -2.21450905577265        2.10109268357650
H           -2.14689359059721        0.02807181292292        2.00907938286357
H           -3.02250561620006        2.38721404101067       -1.88467472345120
H           -1.64697466807035        3.24542739380784       -1.19873563864465
H           -1.79701324891709        0.23817917794310       -1.62859842717379
H           -1.01641645457664        1.38396005349282       -2.72875858349954
H           -0.68667549007070        1.65111393087795        0.65823222895685
H            0.65067132826773        1.99173159195876       -0.95685101803210
H            2.11817845399580       -0.66767455267877        0.73947196262385
H            2.29815897555009        0.97975627475838        0.11576616203268
H            2.75754314098076        0.05370593851925       -2.16485861070645
H            2.67979588818656       -1.58341089491214       -1.49745217411221
H            4.61412720282329        1.56428450495898       -1.54424082043413
H            6.91878572269368        1.76036024214165       -0.77907874020157
H            8.64922976950443        1.80858581268001        0.81676440014301
H            9.19301142757445        1.14686461600429       -0.75143509465405
H           10.03696814982010        0.69434469172007        0.75045587024026
H            7.06049817157583       -4.24427756293134        1.63290772751946
H            5.44412188798107       -3.51348124171486        1.78591598652466
H            6.01979267746056       -4.09196524012140        0.19573660550746
H            4.40450076166485       -2.40457105527433       -0.00667980530230
H           -0.21231334959683       -1.62619262466113       -1.65038074000997
H           -1.01928566012497       -1.24313865227423       -0.11203234607055
H            0.55471152402675       -2.05726873082698       -0.11147924201749
H           -4.64809442041590        2.95874817290507       -0.18886582759478
H           -3.76118482888602        2.90547531337068        2.72259068033797
H           -4.87772234275187        1.75910274229396        1.97351882846292
H           -5.32797672109930        3.45967193223186        2.12026416231974
H           -2.60379292168881        4.68501425913631        1.26968251724274
H           -3.03927066392866        4.81480838776462       -0.44165672614808
H           -4.22634061496815        5.18516696478344        0.80045610656050
H           -0.61359379871330        2.78603034845435        2.74500759355514
72
 energy: -6.992187184947 xtb: 6.6.1 (8d0f1dd)
N           -1.53196087555698        2.84604071950080        2.25257255112378
C           -1.57557246640558        2.16539896295325        1.18853929927770
C           -2.74832877187824        2.06889745133163        0.25317564561135
C           -3.31962269253598        0.65947167072688        0.33298033910841
C           -4.29853864099219        0.24912521479836       -0.57407733274200
C           -4.83974247786773       -1.02124847620636       -0.53082715314124
O           -5.80419736866723       -1.49584472067903       -1.37105393260926
C           -6.37221867626867       -0.61654178825539       -2.30730326166099
C           -4.39427792308720       -1.93742303969283        0.44730458480021
O           -4.98472883844011       -3.16711334279517        0.41215658284082
C           -4.65479635905628       -4.09474506877394        1.41386652162981
C           -3.42793962941751       -1.53025979690483        1.34600923026963
C           -2.89884389808609       -0.24524844748014        1.28912246223199
C           -2.18602167227801        2.30353227955509       -1.17609112033325
C           -1.24922213177244        1.19297647197701       -1.68565892309657
C            0.01687279253223        1.13941001629541       -0.89563682468486
N            0.63549465137076       -0.05729966360873       -0.53320733878528
C            2.00236278970667       -0.05299274108447       -0.13112138046844
C            2.93293610117034       -0.56428057616950       -1.25172600088209
C            4.35937540908324       -0.44517853861909       -0.82874290205035
C            5.06496969521981        0.72855990322540       -1.01472308810805
C            6.37646461118365        0.84466797183240       -0.57948875360744
C            7.00062898306766       -0.21238545734206        0.05663488838946
O            8.28750063656628       -0.21580485812439        0.51115651445815
C            9.06527312676205        0.93445915806966        0.30421931845281
C            6.28141964802876       -1.40924112257613        0.26783233845595
O            6.97413799036118       -2.39964259839152        0.89788578192077
C            6.33110594569748       -3.63006833610235        1.10234187762011
C            4.97553429680996       -1.50594984835045       -0.16770940796766
C           -0.05029476840699       -1.31494456388725       -0.60807117072766
C           -3.88327861670128        3.08158414641206        0.56674239663435
C           -4.51428141104236        2.78428298984729        1.92549272404001
C           -3.40587090427585        4.53171001232969        0.53380367753457
H           -4.64213104653309        0.94207156179473       -1.32456189335159
H           -6.82666233373843        0.25285613544890       -1.82023817792479
H           -7.14676776551540       -1.19189775500322       -2.81246983331605
H           -5.63681138968589       -0.27629670490622       -3.04455893782150
H           -4.87885628982721       -3.70643440044994        2.41314980898811
H           -5.27662946503315       -4.96721090965747        1.21844025214255
H           -3.59954377842592       -4.38527497679066        1.36689218067537
H           -3.07124230652294       -2.20619182816657        2.10759236307335
H           -2.15386561843582        0.04079214413873        2.01470887052905
H           -3.01973570920898        2.40080267934164       -1.87506175072115
H           -1.63596027456386        3.24603862633369       -1.18511136295648
H           -1.77705774100950        0.24136483380404       -1.63472496768770
H           -1.04128646672071        1.39836713787304       -2.74940375728334
H           -0.70391916244909        1.63571863289542        0.73054086636090
H            0.68407583108212        1.98450339404479       -1.00102849621900
H            2.12671227267321       -0.67754436561623        0.76176791998417
H            2.29010188651946        0.96793172949363        0.13134103022520
H            2.74051937470252        0.02563321217769       -2.15113564157433
H            2.67973597925774       -1.60301441028387       -1.46736574086300
H            4.59664901601228        1.56630240584679       -1.50827697538208
H            6.90639010837600        1.76792698950604       -0.75187500000760
H            8.64512941314312        1.80599047431636        0.81752888738904
H            9.17561472998142        1.16192401101254       -0.76163294013863
H           10.04171913333445        0.70387564380279        0.72661501286391
H            7.07150206475142       -4.26475419674689        1.58556869642875
H            5.45860649312484       -3.52771011945505        1.75647877057328
H            6.02080126969456       -4.08892014391606        0.15697110889313
H            4.41299925651435       -2.41364618427902       -0.01251112436386
H           -0.19555657468671       -1.64013098317373       -1.64720395267264
H           -1.02783532779925       -1.24845158318548       -0.12272595799459
H            0.54083311256722       -2.06806254448782       -0.09013716581831
H           -4.65423723850335        2.96069433039683       -0.20424899575307
H           -3.76950220723967        2.91268692141350        2.70440596965105
H           -4.88880526498090        1.76390547135435        1.96330480001279
H           -5.34286500638640        3.46560509869704        2.10871844677606
H           -2.61363732550167        4.67798187314310        1.26177810625359
H           -3.03930860792876        4.81157646042514       -0.45081844633110
H           -4.23373292518463        5.19216331892382        0.78541390515133
H           -0.64787987379712        2.80421580819717        2.75996251113547
72
 energy: -6.093709755584 xtb: 6.6.1 (8d0f1dd)
N           -1.58786666656605        2.91696572029469        2.26823419226700
C           -1.59446343147152        2.18438020713463        1.22597196034266
C           -2.75181791414238        2.07971669168088        0.26162206873359
C           -3.31988813025362        0.66988282895284        0.33785077680931
C           -4.28976814572289        0.25145245197268       -0.57466761627079
C           -4.82634898729356       -1.02037620621526       -0.53008105079195
O           -5.78577330083038       -1.50320216027567       -1.38069524772757
C           -6.34073010358393       -0.62549548373281       -2.32319681110698
C           -4.38834497138401       -1.92970158939961        0.45322048344149
O           -4.97588668868727       -3.16763530058661        0.41668768227026
C           -4.64251771560993       -4.08633169528917        1.42225292142644
C           -3.43227116732268       -1.51690911483097        1.36004805954963
C           -2.90904625574482       -0.23058810395098        1.30325830951113
C           -2.17429300192080        2.31193144655670       -1.16355781763237
C           -1.23743792975791        1.20295767839722       -1.68649120257550
C            0.02725410926223        1.15380408195765       -0.89628823793442
N            0.63412519863169       -0.07319992653539       -0.49632838125422
C            1.99558168437058       -0.07046759218093       -0.09910406321437
C            2.92827649191230       -0.59167078433462       -1.21751501209566
C            4.35438638757852       -0.45753946828674       -0.80935086209308
C            5.04805284757073        0.72689204115199       -0.97667617297659
C            6.36248196815806        0.84808254323735       -0.55120042973661
C            7.00282626218956       -0.21755145623280        0.05333276194551
O            8.30258313599212       -0.21941881120414        0.48931799083204
C            9.05949085312023        0.94263486056154        0.28475641731924
C            6.29681058700561       -1.42054191503610        0.25023437425235
O            7.00208283091386       -2.42360654083392        0.85503296098472
C            6.35248385160459       -3.65216279519132        1.03828821655741
C            4.98733233544276       -1.52189916768017       -0.17221159826708
C           -0.05386304234808       -1.32336970159895       -0.59634507650332
C           -3.89631947773033        3.08665580927584        0.54851332429832
C           -4.53908809277787        2.79525813772433        1.90378768277371
C           -3.41991496328736        4.53747341421467        0.51355548186119
H           -4.62295151705958        0.93880975459399       -1.33533422017994
H           -6.79875443103845        0.24615366894308       -1.84247166524385
H           -7.11136861554719       -1.19944574870646       -2.83674194384531
H           -5.59698079901860       -0.28622291038424       -3.05295715915040
H           -4.87325482929076       -3.69593950375729        2.41983436966375
H           -5.25607843943410       -4.96586390075990        1.22952925484925
H           -3.58442448815805       -4.36921226171693        1.38236489598671
H           -3.07510742544186       -2.19067124865783        2.12332640429321
H           -2.16834597094333        0.06207752794976        2.03021912813654
H           -3.00848180995534        2.42361882489565       -1.86196669728069
H           -1.61559063611253        3.24963205236981       -1.16245770310022
H           -1.75403285747047        0.24536108614261       -1.63813679089047
H           -1.06045319614650        1.41853470243169       -2.75757518865008
H           -0.72684111382779        1.62034906458075        0.83312512107372
H            0.73034996331743        1.96448259257071       -1.04898204932995
H            2.13049199949856       -0.69056920035380        0.79956447143732
H            2.28256894298201        0.95125387376332        0.16080737742851
H            2.71446359676149       -0.02275623039138       -2.12730896891805
H            2.67835436100109       -1.63662857085157       -1.41171674972452
H            4.56355854066916        1.57114136542629       -1.44371226421456
H            6.88058671547478        1.78186443607007       -0.70487110562143
H            8.63909606829713        1.80176895533190        0.81991562776498
H            9.14469137666284        1.18999794994004       -0.78034894358751
H           10.04896732771832        0.71986998709416        0.68240532793871
H            7.09349016177674       -4.30414479638968        1.49781975086893
H            5.48750628881258       -3.55734556494655        1.70386575790233
H            6.02540030455352       -4.08645856519354        0.08564284871272
H            4.42933283034756       -2.43324481496565       -0.02379224635733
H           -0.16436323422224       -1.65983097025307       -1.64024992181370
H           -1.04778324635847       -1.25660519117212       -0.14427728454151
H            0.51530553225205       -2.07964740907431       -0.05250885344830
H           -4.65918135250334        2.96028800587051       -0.23078156467420
H           -3.79291984414993        2.92768602846704        2.67999258420310
H           -4.91106663051455        1.77380111632029        1.94422308979115
H           -5.36876723243004        3.47619879264603        2.08267129120019
H           -2.63285146802975        4.67655785710344        1.24772373578987
H           -3.04141709964062        4.80968146375592       -0.46882053466993
H           -4.24726951645363        5.20213632429579        0.75558201988551
H           -0.70210801681884        2.84619312937205        2.77662924578269
72
 energy: -0.175350690696 xtb: 6.6.1 (8d0f1dd)
N           -1.67305298015889        3.02049759934447        2.28920513757266
C           -1.62126545876317        2.21406950102920        1.28108424887495
C           -2.75693362464343        2.09564740463244        0.27389475598996
C           -3.31911632470084        0.68454752726802        0.34371309561774
C           -4.27674692309455        0.25492531994461       -0.57611558355929
C           -4.80678097645433       -1.01895573382144       -0.52861529221813
O           -5.75896320937412       -1.51387113957047       -1.39474553594499
C           -6.29438543712273       -0.63860842814089       -2.34610380042551
C           -4.37990389375638       -1.91814429817875        0.46197796476781
O           -4.96323022940867       -3.16848301956597        0.42342589134403
C           -4.62449028905790       -4.07360339677731        1.43433002373176
C           -3.43834169877627       -1.49784902177150        1.38073937334180
C           -2.92349792324759       -0.21003683330857        1.32336146368157
C           -2.15716130642244        2.32589881335691       -1.14490666897728
C           -1.22107154135319        1.21672387392072       -1.68491539233409
C            0.04364183603951        1.17516396469365       -0.90225571766342
N            0.62943339888125       -0.09494933274592       -0.44061226450054
C            1.98429944284275       -0.09416927019662       -0.05202678995581
C            2.92078148517292       -0.63203348225785       -1.16724984608939
C            4.34660520968678       -0.47511360162791       -0.77986944089711
C            5.02324662444718        0.72465507723152       -0.91969381091997
C            6.34252042919995        0.85311623691372       -0.50952270769843
C            7.00631147583536       -0.22544838554980        0.04814359103582
O            8.32489099578335       -0.22470061087263        0.45717568364436
C            9.05069594944998        0.95447574866097        0.25622529675758
C            6.32005328601045       -1.43710724992642        0.22379872820553
O            7.04302849839453       -2.45876654805846        0.79221336888801
C            6.38328440001308       -3.68390847543848        0.94428899854304
C            5.00495315983138       -1.54549004069067       -0.17971505732136
C           -0.05944557022165       -1.33481228006698       -0.58016047208855
C           -3.91482145639528        3.09419778826822        0.52226481927422
C           -4.57544967641985        2.81087154277373        1.87212581694981
C           -3.44025227465595        4.54620519425955        0.48365054371945
H           -4.59472813865317        0.93435224300249       -1.35122597324872
H           -6.75787255535588        0.23633507375414       -1.87477843887153
H           -7.05937467419652       -1.20997693654347       -2.87237044683311
H           -5.53848277779639       -0.30078307539881       -3.06502680370704
H           -4.86515190691541       -3.68048103928291        2.42956003269591
H           -5.22549167498877       -4.96396428533487        1.24619811217195
H           -3.56220943070186       -4.34543307808015        1.40494414490925
H           -3.08057000163171       -2.16802236966217        2.14657177685678
H           -2.19010700036198        0.09329048049214        2.05328331343336
H           -2.99254483647168        2.45881409184885       -1.84141311973738
H           -1.58497190016522        3.25581648179440       -1.12871518565353
H           -1.71854296466466        0.24903383410082       -1.64379067717875
H           -1.09053888025319        1.45006595776544       -2.76596714841184
H           -0.76160204522284        1.59678468317148        0.99306252097452
H            0.80256185796098        1.93089722607848       -1.12277748984388
H            2.13781200387793       -0.70900845713650        0.85470857295142
H            2.27229119000387        0.92761081413694        0.20500354128076
H            2.67513649105839       -0.09647954438523       -2.09387884695715
H            2.67701327353975       -1.68705448888181       -1.32814979236285
H            4.51524334859710        1.57794445598269       -1.34843839325762
H            6.84288340805129        1.80242136687015       -0.63502772761920
H            8.63023520722768        1.79536000886701        0.82375274011100
H            9.09883979764131        1.23120507276938       -0.80768615297386
H           10.05971630006418        0.74414436594084        0.61698023073334
H            7.12459867906507       -4.36194219890580        1.36869370078441
H            5.52946474660648       -3.59988149617612        1.62682355676593
H            6.03144117330239       -4.08179138398054       -0.01907346235624
H            4.45287304404959       -2.46154737060257       -0.04105118723054
H           -0.11607947015407       -1.68997123422763       -1.63069264323488
H           -1.07796556083111       -1.26979435920952       -0.17844701059123
H            0.47662808423944       -2.09612979933821        0.00341404225875
H           -4.66507744734696        2.95857268640245       -0.26967031986137
H           -3.82749685788942        2.94992199512048        2.64408835927761
H           -4.94419611497815        1.78813561256500        1.91661533221775
H           -5.40615385126107        3.49124397677463        2.04461787641069
H           -2.66136244546945        4.67408957389420        1.22728998624946
H           -3.04454456967151        4.80712871294534       -0.49534848673361
H           -4.26651357050401        5.21663865463791        0.71166925419227
H           -0.78209653048916        2.90680107658104        2.79362832350810
72
 energy: 11.670887027465 xtb: 6.6.1 (8d0f1dd)
N           -1.76846118377783        3.07319751818782        2.29612676289321
C           -1.63188659226006        2.25956585714217        1.32677024854477
C           -2.76109807545241        2.10944495619862        0.28475037736679
C           -3.30762302316373        0.69063090130072        0.33682929043536
C           -4.26496593043206        0.25868147399293       -0.58235236861483
C           -4.79156166313585       -1.01638358742670       -0.52383495881717
O           -5.74104140706505       -1.52066432031730       -1.40411580270687
C           -6.25766525804385       -0.64890281775584       -2.35886674316937
C           -4.37577285048894       -1.90675307889874        0.46912162246579
O           -4.95723316218925       -3.17026337991540        0.42968175953470
C           -4.61133909479452       -4.05977972145237        1.44141885877625
C           -3.44030092359552       -1.48853732959974        1.39733763549866
C           -2.93049536428025       -0.20381364243319        1.33284562760782
C           -2.14620419451354        2.35211442511295       -1.12762189940829
C           -1.21703707140771        1.22060153441542       -1.66074077108512
C            0.06771573397067        1.19921257513143       -0.96132885451051
N            0.60236252611635       -0.09624909996903       -0.38651578380436
C            1.96373650901317       -0.09290804840748       -0.01657436606101
C            2.91034244397001       -0.66451291208494       -1.12918082878750
C            4.33688342648493       -0.48402403684172       -0.74840149523470