72
 energy: 71.579350206963 xtb: 6.6.1 (8d0f1dd)
N           -1.64512836462058        2.92478655810384        2.27210618083663
C           -1.66935089690223        2.20102194804879        1.24904778933666
C           -2.81942364390871        2.08131081919152        0.29285077376332
C           -3.38955674714529        0.67414558649937        0.37419652528995
C           -4.35642416655636        0.26072920880555       -0.54468131249604
C           -4.90464540204020       -1.00797599217439       -0.49740274316491
O           -5.85067043321343       -1.48445657928483       -1.34859576649378
C           -6.40499403880214       -0.61569063266839       -2.30597254762727
C           -4.47134381680434       -1.92029917422999        0.49327803459631
O           -5.05156950895062       -3.14968093030980        0.45229964099319
C           -4.70520763012523       -4.08914405464101        1.43855315641179
C           -3.51276645121174       -1.50843712741265        1.40114130109855
C           -2.98253269212417       -0.22423869884206        1.34233973075382
C           -2.25946195371423        2.33066019076895       -1.13539588562474
C           -1.41742713492685        1.18159917104745       -1.73427101957875
C           -0.08575500347903        1.00434515642050       -1.08703046583716
N            0.46034433781046       -0.15100022988867       -0.66549423581315
C            1.84449371012027       -0.20198212081303       -0.24688913230561
C            2.80048063370896       -0.76346177891574       -1.34871286805159
C            4.22918345892582       -0.53161566461013       -0.98387615242660
C            4.86214124251223        0.68012137884303       -1.27227601116630
C            6.15788226775933        0.95114044341922       -0.90428606436107
C            6.98560133925406        0.02619496933547       -0.19395787779632
O            8.16720926038256        0.21887561364956        0.14222693514558
C           10.66861193228836        0.91080517862789        0.90074094268733
C            6.28741617897021       -1.23764030022100        0.09789467296035
O            7.02555892824525       -2.17095784073344        0.78794739279433
C            6.46292082363785       -3.43248758154607        1.08704840459793
C            4.98034411894338       -1.47932846078503       -0.28360717895682
C           -0.25074819297188       -1.40482033568608       -0.73853062301807
C           -3.95442920663283        3.09469746926650        0.59839124676787
C           -4.59135322828062        2.80552227490873        1.95545444026869
C           -3.48174505167413        4.54555665213445        0.55202192937008
H           -4.69285035055014        0.94913819587843       -1.30223763877479
H           -6.87292040965588        0.25419468398719       -1.83428201454797
H           -7.16530005753450       -1.19699456225450       -2.82374855616285
H           -5.65378820500721       -0.27876274533014       -3.02852710195100
H           -4.94914364833891       -3.72690929602017        2.44241892528721
H           -5.30078064163125       -4.97486055565940        1.22184973485856
H           -3.64075325529950       -4.35033679938832        1.39423093775592
H           -3.17687172890060       -2.17349538842963        2.18068295169107
H           -2.26389345306654        0.07552009529063        2.08905403215685
H           -3.09743575599918        2.50809983206786       -1.81358984705965
H           -1.64579218183867        3.23038235351135       -1.10824080608106
H           -1.99496176606796        0.25956638032439       -1.68511702104805
H           -1.26613172391771        1.42120861706355       -2.80342906032744
H           -0.79285041194726        1.61037228546297        0.90817493402271
H            0.59752914283281        1.85057429008913       -1.12249806248065
H            1.93726675390469       -0.83277281186376        0.64387535963349
H            2.16980689160404        0.81404814615848        0.00579587217945
H            2.56202646282458       -0.23150790063747       -2.27168915912210
H            2.58647417790471       -1.82660596017634       -1.48551235285086
H            4.30293724857961        1.42873389029063       -1.81167587262202
H            6.60957141456678        1.90471752486788       -1.11895512081269
H           10.27154253501864        1.75151897927640        1.42125040411273
H           10.82887736934598        1.10028295995409       -0.13574407790664
H           11.04702496953774        0.03709753669839        1.41187545152257
H            7.23691927367499       -4.00113799231892        1.60427181624325
H            5.58957606130380       -3.36122190408372        1.74769450145271
H            6.17924930633671       -3.98191716518798        0.18189510667488
H            4.51391026374373       -2.43182381396785       -0.05688584001273
H           -0.39419260496053       -1.71791162567678       -1.77654421843782
H           -1.22771711432801       -1.30530771047052       -0.26158514909958
H            0.31403546987449       -2.18054292503572       -0.21718459784306
H           -4.71791281759325        2.96254875564394       -0.17661837069151
H           -3.86184995464995        2.94766958310938        2.74279890322429
H           -4.96937815373734        1.78734099562345        2.00059153371100
H           -5.41772605083138        3.48936668980741        2.13000414125562
H           -2.70395171419658        4.70255626913164        1.28984971107722
H           -3.10823527489191        4.81302538016490       -0.43186991261535
H           -4.31381530220025        5.20527471540990        0.78700638749310
H           -0.77570023747962        2.90953704326744        2.80194750312215
