      -----------------------------------------------------------      
     |                   =====================                   |     
     |                           x T B                           |     
     |                   =====================                   |     
     |                         S. Grimme                         |     
     |          Mulliken Center for Theoretical Chemistry        |     
     |                    University of Bonn                     |     
      -----------------------------------------------------------      

   * xtb version 6.6.1 (8d0f1dd) compiled by 'conda@1efc2f54142f' on 2023-08-01

   xtb is free software: you can redistribute it and/or modify it under
   the terms of the GNU Lesser General Public License as published by
   the Free Software Foundation, either version 3 of the License, or
   (at your option) any later version.
   
   xtb is distributed in the hope that it will be useful,
   but WITHOUT ANY WARRANTY; without even the implied warranty of
   MERCHANTABILITY or FITNESS FOR A PARTICULAR PURPOSE.  See the
   GNU Lesser General Public License for more details.
   
   Cite this work as:
   * C. Bannwarth, E. Caldeweyher, S. Ehlert, A. Hansen, P. Pracht,
     J. Seibert, S. Spicher, S. Grimme, WIREs Comput. Mol. Sci., 2020, 11,
     e01493. DOI: 10.1002/wcms.1493
   
   for GFN2-xTB:
   * C. Bannwarth, S. Ehlert and S. Grimme., J. Chem. Theory Comput., 2019,
     15, 1652-1671. DOI: 10.1021/acs.jctc.8b01176
   for GFN1-xTB:
   * S. Grimme, C. Bannwarth, P. Shushkov, J. Chem. Theory Comput., 2017,
     13, 1989-2009. DOI: 10.1021/acs.jctc.7b00118
   for GFN0-xTB:
   * P. Pracht, E. Caldeweyher, S. Ehlert, S. Grimme, ChemRxiv, 2019, preprint.
     DOI: 10.26434/chemrxiv.8326202.v1
   for GFN-FF:
   * S. Spicher and S. Grimme, Angew. Chem. Int. Ed., 2020, 59, 15665-15673.
     DOI: 10.1002/anie.202004239
   
   for ALPB and GBSA implicit solvation:
   * S. Ehlert, M. Stahn, S. Spicher, S. Grimme, J. Chem. Theory Comput.,
     2021, 17, 4250-4261. DOI: 10.1021/acs.jctc.1c00471
   
   for DFT-D4:
   * E. Caldeweyher, C. Bannwarth and S. Grimme, J. Chem. Phys., 2017,
     147, 034112. DOI: 10.1063/1.4993215
   * E. Caldeweyher, S. Ehlert, A. Hansen, H. Neugebauer, S. Spicher,
     C. Bannwarth and S. Grimme, J. Chem. Phys., 2019, 150, 154122.
     DOI: 10.1063/1.5090222
   * E. Caldeweyher, J.-M. Mewes, S. Ehlert and S. Grimme, Phys. Chem. Chem. Phys.
     2020, 22, 8499-8512. DOI: 10.1039/D0CP00502A
   
   for sTDA-xTB:
   * S. Grimme and C. Bannwarth, J. Chem. Phys., 2016, 145, 054103.
     DOI: 10.1063/1.4959605
   
   in the mass-spec context:
   * V. Asgeirsson, C. Bauer and S. Grimme, Chem. Sci., 2017, 8, 4879.
     DOI: 10.1039/c7sc00601b
   * J. Koopman and S. Grimme, ACS Omega 2019, 4, 12, 15120-15133.
     DOI: 10.1021/acsomega.9b02011
   
   for metadynamics refer to:
   * S. Grimme, J. Chem. Theory Comput., 2019, 155, 2847-2862
     DOI: 10.1021/acs.jctc.9b00143
   
   for SPH calculations refer to:
   * S. Spicher and S. Grimme, J. Chem. Theory Comput., 2021, 17, 1701-1714
     DOI: 10.1021/acs.jctc.0c01306
   
   with help from (in alphabetical order)
   P. Atkinson, C. Bannwarth, F. Bohle, G. Brandenburg, E. Caldeweyher
   M. Checinski, S. Dohm, S. Ehlert, S. Ehrlich, I. Gerasimov, C. Hölzer
   A. Katbashev, J. Koopman, C. Lavigne, S. Lehtola, F. März, M. Müller,
   F. Musil, H. Neugebauer, J. Pisarek, C. Plett, P. Pracht, F. Pultar,
   J. Seibert, P. Shushkov, S. Spicher, M. Stahn, M. Steiner, T. Strunk,
   J. Stückrath, T. Rose, and J. Unsleber
   
 * started run on 2024/06/05 at 19:59:18.113     

           -------------------------------------------------
          |                Calculation Setup                |
           -------------------------------------------------

          program call               : xtb struc.xyz --opt loose --input .xc1 --gfn2
          hostname                   : n-62-31-11
          coordinate file            : struc.xyz
          omp threads                :                     1

   ID    Z sym.   atoms
    1    6 C      1, 3, 5-7, 10, 11, 14
    2    7 N      2, 4, 9, 13
    3    8 O      8, 12
    4    1 H      15-25
constraining bond 11 24 to    5.1400000 Å, actual value:    2.4695195 Å

           -------------------------------------------------
          |                 G F N 2 - x T B                 |
           -------------------------------------------------

        Reference                      10.1021/acs.jctc.8b01176
      * Hamiltonian:
        H0-scaling (s, p, d)           1.850000    2.230000    2.230000
        zeta-weighting                 0.500000
      * Dispersion:
        s8                             2.700000
        a1                             0.520000
        a2                             5.000000
        s9                             5.000000
      * Repulsion:
        kExp                           1.500000    1.000000
        rExp                           1.000000
      * Coulomb:
        alpha                          2.000000
        third order                    shell-resolved
        anisotropic                    true
        a3                             3.000000
        a5                             4.000000
        cn-shift                       1.200000
        cn-exp                         4.000000
        max-rad                        5.000000


          ...................................................
          :                      SETUP                      :
          :.................................................:
          :  # basis functions                  67          :
          :  # atomic orbitals                  67          :
          :  # shells                           39          :
          :  # electrons                        74          :
          :  max. iterations                   250          :
          :  Hamiltonian                  GFN2-xTB          :
          :  restarted?                      false          :
          :  GBSA solvation                  false          :
          :  PC potential                    false          :
          :  electronic temp.         5000.0000000     K    :
          :  accuracy                    1.0000000          :
          :  -> integral cutoff          0.2500000E+02      :
          :  -> integral neglect         0.1000000E-07      :
          :  -> SCF convergence          0.1000000E-05 Eh   :
          :  -> wf. convergence          0.1000000E-03 e    :
          :  Broyden damping             0.4000000          :
          ...................................................

 iter      E             dE          RMSdq      gap      omega  full diag
   1    -42.5894031 -0.425894E+02  0.445E+00    3.52       0.0  T
   2    -42.7683054 -0.178902E+00  0.251E+00    3.36       1.0  T
   3    -42.7759211 -0.761567E-02  0.147E+00    3.35       1.0  T
   4    -42.7728404  0.308066E-02  0.553E-01    3.33       1.0  T
   5    -42.7789548 -0.611444E-02  0.112E-01    3.35       1.0  T
   6    -42.7790473 -0.924914E-04  0.614E-02    3.33       1.0  T
   7    -42.7790721 -0.247928E-04  0.258E-02    3.34       1.0  T
   8    -42.7790772 -0.508996E-05  0.938E-03    3.34       2.1  T
   9    -42.7790779 -0.669422E-06  0.448E-03    3.34       4.5  T
  10    -42.7790780 -0.821510E-07  0.115E-03    3.34      17.4  T
  11    -42.7790780 -0.322663E-08  0.553E-04    3.34      36.2  T
  12    -42.7790780 -0.287051E-08  0.180E-04    3.34     111.1  T

   *** convergence criteria satisfied after 12 iterations ***

         #    Occupation            Energy/Eh            Energy/eV
      -------------------------------------------------------------
         1        2.0000           -0.9185990             -24.9964
       ...           ...                  ...                  ...
        31        1.9996           -0.6230278             -16.9534
        32        1.9995           -0.6194601             -16.8564
        33        1.9979           -0.5974976             -16.2587
        34        1.9932           -0.5789629             -15.7544
        35        1.9817           -0.5631863             -15.3251
        36        1.9779           -0.5602245             -15.2445
        37        1.9748           -0.5581234             -15.1873 (HOMO)
        38        0.0652           -0.4353579             -11.8467 (LUMO)
        39        0.0099           -0.4050467             -11.0219
        40        0.0013           -0.3732218             -10.1559
        41        0.0000           -0.2886859              -7.8555
        42                         -0.2065804              -5.6213
       ...                                ...                  ...
        67                          0.5625656              15.3082
      -------------------------------------------------------------
                  HL-Gap            0.1227656 Eh            3.3406 eV
             Fermi-level           -0.4890455 Eh          -13.3076 eV

 SCC (total)                   0 d,  0 h,  0 min,  0.037 sec
 SCC setup                      ...        0 min,  0.000 sec (  0.869%)
 Dispersion                     ...        0 min,  0.000 sec (  1.041%)
 classical contributions        ...        0 min,  0.000 sec (  0.284%)
 integral evaluation            ...        0 min,  0.006 sec ( 16.536%)
 iterations                     ...        0 min,  0.017 sec ( 44.989%)
 molecular gradient             ...        0 min,  0.013 sec ( 35.837%)
 printout                       ...        0 min,  0.000 sec (  0.411%)

         :::::::::::::::::::::::::::::::::::::::::::::::::::::
         ::                     SUMMARY                     ::
         :::::::::::::::::::::::::::::::::::::::::::::::::::::
         :: total energy             -16.780935722691 Eh    ::
         :: gradient norm             14.273635245576 Eh/a0 ::
         :: HOMO-LUMO gap              3.340621582928 eV    ::
         ::.................................................::
         :: SCC energy               -42.779077977399 Eh    ::
         :: -> isotropic ES            0.141123876439 Eh    ::
         :: -> anisotropic ES         -0.005230418907 Eh    ::
         :: -> anisotropic XC          0.011966818540 Eh    ::
         :: -> dispersion             -0.022657731803 Eh    ::
         :: repulsion energy           0.531105277918 Eh    ::
         :: add. restraining          25.466922817780 Eh    ::
         :: total charge               1.000000000002 e     ::
         :::::::::::::::::::::::::::::::::::::::::::::::::::::

      ----------------------------------------------------------- 
     |                   =====================                   |
     |                        A N C O P T                        |
     |                   =====================                   |
     |               Approximate Normal Coordinate               |
     |                Rational Function Optimizer                |
      ----------------------------------------------------------- 

          ...................................................
          :                      SETUP                      :
          :.................................................:
          :   optimization level             loose          :
          :   max. optcycles                   200          :
          :   ANC micro-cycles                  20          :
          :   degrees of freedom                69          :
          :.................................................:
          :   RF solver                   davidson          :
          :   write xtbopt.log                true          :
          :   linear?                        false          :
          :   energy convergence         0.5000000E-04 Eh   :
          :   grad. convergence          0.4000000E-02 Eh/α :
          :   maxmium RF displ.          1.0000000          :
          :   Hlow (freq-cutoff)         0.1000000E-01      :
          :   Hmax (freq-cutoff)         5.0000000          :
          :   S6 in model hess.         20.0000000          :
          ...................................................

generating ANC from model Hessian ...
Using Lindh-Hessian (1995)
 Shifting diagonal of input Hessian by    4.0912235482014783     
 Lowest  eigenvalues of input Hessian
    0.010000    0.619314    0.000000    0.000000    0.000000    0.000000
    0.000000    0.000000    4.094330    4.095662    4.097789    4.100026
    4.102068    4.104330    4.109500    4.113621    4.115926    4.129501
 Highest eigenvalues
    6.188124    6.247803    6.311570    6.442462    6.518742    9.039979


........................................................................
.............................. CYCLE    1 ..............................
........................................................................

 iter      E             dE          RMSdq      gap      omega  full diag
   1    -42.7790780 -0.427791E+02  0.626E-05    3.34       0.0  T
   2    -42.7790780 -0.124416E-10  0.329E-05    3.34     607.4  T
   3    -42.7790780  0.127898E-12  0.193E-05    3.34    1034.2  T
     SCC iter.                  ...        0 min,  0.005 sec
     gradient                   ...        0 min,  0.014 sec
 * total energy  :   -16.7809357 Eh     change       -0.6650680E-10 Eh
   gradient norm :    14.2736354 Eh/α   predicted     0.0000000E+00 (-100.00%)
   displ. norm   :     0.8401562 α      lambda       -0.1199187E+02
   maximum displ.:     0.8122625 α      in ANC's #49, #61, #51, ...

........................................................................
.............................. CYCLE    2 ..............................
........................................................................

 iter      E             dE          RMSdq      gap      omega  full diag
   1    -42.6751743 -0.426752E+02  0.132E+00    3.02       0.0  T
   2    -42.6936931 -0.185189E-01  0.991E-01    2.01       1.0  T
   3    -42.7060005 -0.123074E-01  0.473E-01    2.76       1.0  T
   4    -42.7062641 -0.263593E-03  0.272E-01    2.39       1.0  T
   5    -42.7071164 -0.852296E-03  0.614E-02    2.54       1.0  T
   6    -42.7071794 -0.630207E-04  0.215E-02    2.54       1.0  T
   7    -42.7071850 -0.556766E-05  0.101E-02    2.55       2.0  T
   8    -42.7071858 -0.841962E-06  0.279E-03    2.55       7.2  T
   9    -42.7071860 -0.146871E-06  0.990E-04    2.55      20.2  T
  10    -42.7071860 -0.105152E-07  0.373E-04    2.55      53.6  T
     SCC iter.                  ...        0 min,  0.013 sec
     gradient                   ...        0 min,  0.014 sec
 * total energy  :   -27.1915923 Eh     change       -0.1041066E+02 Eh
   gradient norm :    10.4220560 Eh/α   predicted    -0.1022835E+02 (  -1.75%)
   displ. norm   :     0.8105690 α      lambda       -0.8431871E+01
   maximum displ.:     0.7535209 α      in ANC's #49, #61, #51, ...

........................................................................
.............................. CYCLE    3 ..............................
........................................................................

 iter      E             dE          RMSdq      gap      omega  full diag
   1    -42.5493623 -0.425494E+02  0.128E+00    2.11       0.0  T
   2    -42.5472979  0.206439E-02  0.135E+00    1.30       1.0  T
   3    -42.5790394 -0.317416E-01  0.608E-01    2.08       1.0  T
   4    -42.5753559  0.368349E-02  0.507E-01    1.54       1.0  T
   5    -42.5810061 -0.565014E-02  0.180E-01    1.88       1.0  T
   6    -42.5815456 -0.539514E-03  0.422E-02    1.86       1.0  T
   7    -42.5815784 -0.327858E-04  0.151E-02    1.85       1.3  T
   8    -42.5815806 -0.216272E-05  0.732E-03    1.85       2.7  T
   9    -42.5815811 -0.581559E-06  0.173E-03    1.85      11.6  T
  10    -42.5815812 -0.413947E-07  0.675E-04    1.85      29.6  T
  11    -42.5815812 -0.247100E-08  0.299E-04    1.85      67.0  T
     SCC iter.                  ...        0 min,  0.015 sec
     gradient                   ...        0 min,  0.014 sec
 * total energy  :   -33.9650663 Eh     change       -0.6773474E+01 Eh
   gradient norm :     6.5439711 Eh/α   predicted    -0.6985903E+01 (   3.14%)
   displ. norm   :     0.8122125 α      lambda       -0.5265513E+01
   maximum displ.:     0.5359964 α      in ANC's #49, #61, #60, ...

........................................................................
.............................. CYCLE    4 ..............................
........................................................................

 iter      E             dE          RMSdq      gap      omega  full diag
   1    -42.4391206 -0.424391E+02  0.101E+00    1.54       0.0  T
   2    -42.4400130 -0.892410E-03  0.689E-01    2.23       1.0  T
   3    -42.4492685 -0.925543E-02  0.436E-01    1.71       1.0  T
   4    -42.4505415 -0.127304E-02  0.182E-01    1.91       1.0  T
   5    -42.4514290 -0.887507E-03  0.743E-02    1.82       1.0  T
   6    -42.4515274 -0.983883E-04  0.244E-02    1.85       1.0  T
   7    -42.4515361 -0.871678E-05  0.846E-03    1.85       2.4  T
   8    -42.4515366 -0.482866E-06  0.379E-03    1.85       5.3  T
   9    -42.4515368 -0.186270E-06  0.179E-03    1.85      11.2  T
  10    -42.4515368 -0.225386E-07  0.949E-04    1.85      21.1  T
  11    -42.4515368 -0.657104E-08  0.379E-04    1.85      52.8  T
     SCC iter.                  ...        0 min,  0.014 sec
     gradient                   ...        0 min,  0.014 sec
 * total energy  :   -38.2935546 Eh     change       -0.4328488E+01 Eh
   gradient norm :     4.2390447 Eh/α   predicted    -0.4369670E+01 (   0.95%)
   displ. norm   :     0.7252684 α      lambda       -0.3041972E+01
   maximum displ.:     0.4973511 α      in ANC's #49, #61, #2, ...

........................................................................
.............................. CYCLE    5 ..............................
........................................................................

 iter      E             dE          RMSdq      gap      omega  full diag
   1    -42.3314408 -0.423314E+02  0.980E-01    1.41       0.0  T
   2    -42.3336155 -0.217474E-02  0.557E-01    1.61       1.0  T
   3    -42.3351640 -0.154846E-02  0.527E-01    1.34       1.0  T
   4    -42.3379411 -0.277712E-02  0.217E-01    1.58       1.0  T
   5    -42.3397060 -0.176489E-02  0.851E-02    1.47       1.0  T
   6    -42.3397969 -0.908780E-04  0.375E-02    1.48       1.0  T
   7    -42.3398208 -0.239441E-04  0.122E-02    1.48       1.6  T
   8    -42.3398220 -0.116214E-05  0.525E-03    1.48       3.8  T
   9    -42.3398223 -0.359496E-06  0.204E-03    1.48       9.8  T
  10    -42.3398224 -0.112766E-07  0.116E-03    1.48      17.2  T
  11    -42.3398224 -0.125872E-07  0.552E-04    1.48      36.2  T
  12    -42.3398224 -0.346097E-08  0.201E-04    1.48      99.6  T
     SCC iter.                  ...        0 min,  0.016 sec
     gradient                   ...        0 min,  0.013 sec
 * total energy  :   -40.6107431 Eh     change       -0.2317188E+01 Eh
   gradient norm :     2.2032983 Eh/α   predicted    -0.2321047E+01 (   0.17%)
   displ. norm   :     0.6042955 α      lambda       -0.1289830E+01
   maximum displ.:     0.3363750 α      in ANC's #49, #2, #61, ...

........................................................................
.............................. CYCLE    6 ..............................
........................................................................

 iter      E             dE          RMSdq      gap      omega  full diag
   1    -42.2639089 -0.422639E+02  0.109E+00    0.97       0.0  T
   2    -42.2365275  0.273814E-01  0.112E+00    1.53       1.0  T
   3    -42.2722892 -0.357617E-01  0.662E-01    0.93       1.0  T
   4    -42.2794757 -0.718655E-02  0.302E-01    1.14       1.0  T
   5    -42.2810758 -0.160003E-02  0.109E-01    1.16       1.0  T
   6    -42.2812832 -0.207449E-03  0.438E-02    1.10       1.0  T
   7    -42.2813314 -0.481509E-04  0.163E-02    1.12       1.2  T
   8    -42.2813352 -0.386097E-05  0.920E-03    1.12       2.2  T
   9    -42.2813367 -0.145511E-05  0.270E-03    1.12       7.4  T
  10    -42.2813367 -0.462948E-07  0.147E-03    1.12      13.6  T
  11    -42.2813367 -0.160508E-07  0.738E-04    1.12      27.1  T
  12    -42.2813368 -0.776001E-08  0.353E-04    1.12      56.6  T
     SCC iter.                  ...        0 min,  0.016 sec
     gradient                   ...        0 min,  0.014 sec
 * total energy  :   -41.4762214 Eh     change       -0.8654783E+00 Eh
   gradient norm :     0.8073717 Eh/α   predicted    -0.8804208E+00 (   1.73%)
   displ. norm   :     0.3805670 α      lambda       -0.2718725E+00
   maximum displ.:     0.2736362 α      in ANC's #2, #49, #63, ...

........................................................................
.............................. CYCLE    7 ..............................
........................................................................

 iter      E             dE          RMSdq      gap      omega  full diag
   1    -42.2695257 -0.422695E+02  0.685E-01    0.98       0.0  T
   2    -42.2577274  0.117983E-01  0.811E-01    1.28       1.0  T
   3    -42.2752149 -0.174875E-01  0.413E-01    0.92       1.0  T
   4    -42.2778466 -0.263167E-02  0.225E-01    1.09       1.0  T
   5    -42.2785456 -0.698984E-03  0.102E-01    1.05       1.0  T
   6    -42.2785908 -0.452502E-04  0.525E-02    1.02       1.0  T
   7    -42.2786685 -0.777093E-04  0.190E-02    1.05       1.1  T
   8    -42.2786802 -0.116862E-04  0.717E-03    1.04       2.8  T
   9    -42.2786808 -0.629978E-06  0.206E-03    1.04       9.7  T
  10    -42.2786809 -0.693505E-07  0.840E-04    1.04      23.8  T
  11    -42.2786809 -0.530937E-08  0.405E-04    1.04      49.3  T
     SCC iter.                  ...        0 min,  0.015 sec
     gradient                   ...        0 min,  0.013 sec
 * total energy  :   -41.6499989 Eh     change       -0.1737776E+00 Eh
   gradient norm :     0.5538264 Eh/α   predicted    -0.1556297E+00 ( -10.44%)
   displ. norm   :     0.2501211 α      lambda       -0.9365766E-01
   maximum displ.:     0.1808186 α      in ANC's #2, #41, #63, ...

........................................................................
.............................. CYCLE    8 ..............................
........................................................................

 iter      E             dE          RMSdq      gap      omega  full diag
   1    -42.2966699 -0.422967E+02  0.610E-01    1.13       0.0  T
   2    -42.2985449 -0.187499E-02  0.551E-01    1.03       1.0  T
   3    -42.3041669 -0.562199E-02  0.289E-01    1.01       1.0  T
   4    -42.3047959 -0.629011E-03  0.209E-01    1.09       1.0  T
   5    -42.3053092 -0.513272E-03  0.906E-02    1.03       1.0  T
   6    -42.3054400 -0.130837E-03  0.517E-02    1.08       1.0  T
   7    -42.3055284 -0.883298E-04  0.193E-02    1.05       1.0  T
   8    -42.3055423 -0.139395E-04  0.435E-03    1.06       4.6  T
   9    -42.3055424 -0.702824E-07  0.203E-03    1.06       9.9  T
  10    -42.3055425 -0.848253E-07  0.648E-04    1.06      30.9  T
  11    -42.3055425 -0.103416E-07  0.295E-04    1.06      67.8  T
     SCC iter.                  ...        0 min,  0.015 sec
     gradient                   ...        0 min,  0.014 sec
 * total energy  :   -41.7271422 Eh     change       -0.7714324E-01 Eh
   gradient norm :     0.5475244 Eh/α   predicted    -0.4975853E-01 ( -35.50%)
   displ. norm   :     0.4450182 α      lambda       -0.1656724E+00
   maximum displ.:     0.2439135 α      in ANC's #2, #41, #51, ...

........................................................................
.............................. CYCLE    9 ..............................
........................................................................

 iter      E             dE          RMSdq      gap      omega  full diag
   1    -42.3294218 -0.423294E+02  0.138E+00    1.00       0.0  T
   2    -42.3473344 -0.179126E-01  0.127E+00    0.84       1.0  T
   3    -42.3784377 -0.311033E-01  0.614E-01    1.03       1.0  T
   4    -42.3840541 -0.561636E-02  0.300E-01    0.98       1.0  T
   5    -42.3823179  0.173617E-02  0.287E-01    1.01       1.0  T
   6    -42.3839855 -0.166761E-02  0.117E-01    0.98       1.0  T
   7    -42.3844446 -0.459078E-03  0.285E-02    0.99       1.0  T
   8    -42.3844722 -0.276368E-04  0.851E-03    0.99       2.4  T
   9    -42.3844723 -0.105739E-06  0.534E-03    0.99       3.7  T
  10    -42.3844729 -0.556450E-06  0.151E-03    0.99      13.3  T
  11    -42.3844729 -0.159482E-07  0.826E-04    0.99      24.2  T
  12    -42.3844729 -0.773144E-08  0.279E-04    0.99      71.6  T
     SCC iter.                  ...        0 min,  0.016 sec
     gradient                   ...        0 min,  0.013 sec
 * total energy  :   -41.8473139 Eh     change       -0.1201717E+00 Eh
   gradient norm :     0.3571937 Eh/α   predicted    -0.9924166E-01 ( -17.42%)
   displ. norm   :     0.2748445 α      lambda       -0.6537803E-01
   maximum displ.:     0.1140092 α      in ANC's #41, #48, #49, ...

........................................................................
.............................. CYCLE   10 ..............................
........................................................................

 iter      E             dE          RMSdq      gap      omega  full diag
   1    -42.4161814 -0.424162E+02  0.994E-01    0.91       0.0  T
   2    -42.4310763 -0.148949E-01  0.856E-01    0.92       1.0  T
   3    -42.4411705 -0.100941E-01  0.520E-01    0.96       1.0  T
   4    -42.4457231 -0.455258E-02  0.256E-01    0.88       1.0  T
   5    -42.4457312 -0.810494E-05  0.160E-01    0.90       1.0  T
   6    -42.4460953 -0.364134E-03  0.881E-02    0.89       1.0  T
   7    -42.4463119 -0.216549E-03  0.212E-02    0.89       1.0  T
   8    -42.4463259 -0.140369E-04  0.578E-03    0.89       3.5  T
   9    -42.4463263 -0.421831E-06  0.215E-03    0.89       9.3  T
  10    -42.4463263 -0.216713E-07  0.962E-04    0.89      20.8  T
  11    -42.4463264 -0.796859E-08  0.442E-04    0.89      45.2  T
     SCC iter.                  ...        0 min,  0.015 sec
     gradient                   ...        0 min,  0.014 sec
 * total energy  :   -41.8743779 Eh     change       -0.2706401E-01 Eh
   gradient norm :     0.3046944 Eh/α   predicted    -0.3515890E-01 (  29.91%)
   displ. norm   :     0.1162741 α      lambda       -0.2169928E-01
   maximum displ.:     0.0968546 α      in ANC's #2, #64, #63, ...

........................................................................
.............................. CYCLE   11 ..............................
........................................................................

 iter      E             dE          RMSdq      gap      omega  full diag
   1    -42.4406851 -0.424407E+02  0.416E-01    0.91       0.0  T
   2    -42.4432929 -0.260784E-02  0.326E-01    0.91       1.0  T
   3    -42.4455547 -0.226174E-02  0.112E-01    0.91       1.0  T
   4    -42.4456285 -0.738858E-04  0.771E-02    0.92       1.0  T
   5    -42.4456365 -0.795365E-05  0.615E-02    0.91       1.0  T
   6    -42.4456703 -0.338370E-04  0.316E-02    0.92       1.0  T
   7    -42.4457032 -0.328738E-04  0.421E-03    0.91       4.7  T
   8    -42.4457037 -0.526061E-06  0.168E-03    0.91      11.9  T
   9    -42.4457038 -0.243466E-07  0.583E-04    0.91      34.3  T
  10    -42.4457038 -0.666219E-08  0.204E-04    0.91      98.1  T
     SCC iter.                  ...        0 min,  0.013 sec
     gradient                   ...        0 min,  0.013 sec
 * total energy  :   -41.8896718 Eh     change       -0.1529394E-01 Eh
   gradient norm :     0.2075130 Eh/α   predicted    -0.1099729E-01 ( -28.09%)
   displ. norm   :     0.1774450 α      lambda       -0.2436657E-01
   maximum displ.:     0.1408094 α      in ANC's #2, #46, #14, ...

........................................................................
.............................. CYCLE   12 ..............................
........................................................................

 iter      E             dE          RMSdq      gap      omega  full diag
   1    -42.4670026 -0.424670E+02  0.336E-01    0.88       0.0  T
   2    -42.4671673 -0.164664E-03  0.288E-01    0.87       1.0  T
   3    -42.4680813 -0.913957E-03  0.197E-01    0.90       1.0  T
   4    -42.4685996 -0.518370E-03  0.109E-01    0.87       1.0  T
   5    -42.4685020  0.976078E-04  0.842E-02    0.88       1.0  T
   6    -42.4687899 -0.287917E-03  0.141E-02    0.88       1.4  T
   7    -42.4687939 -0.395987E-05  0.569E-03    0.88       3.5  T
   8    -42.4687941 -0.206919E-06  0.209E-03    0.88       9.6  T
   9    -42.4687941 -0.325301E-07  0.876E-04    0.88      22.8  T
  10    -42.4687942 -0.709318E-08  0.429E-04    0.88      46.6  T
     SCC iter.                  ...        0 min,  0.013 sec
     gradient                   ...        0 min,  0.013 sec
 * total energy  :   -41.9083559 Eh     change       -0.1868408E-01 Eh
   gradient norm :     0.1627586 Eh/α   predicted    -0.1256703E-01 ( -32.74%)
   displ. norm   :     0.2651150 α      lambda       -0.2708992E-01
   maximum displ.:     0.1646882 α      in ANC's #2, #41, #46, ...

........................................................................
.............................. CYCLE   13 ..............................
........................................................................

 iter      E             dE          RMSdq      gap      omega  full diag
   1    -42.5022770 -0.425023E+02  0.445E-01    0.80       0.0  T
   2    -42.4974589  0.481807E-02  0.561E-01    0.76       1.0  T
   3    -42.5042919 -0.683296E-02  0.240E-01    0.80       1.0  T
   4    -42.5046016 -0.309738E-03  0.158E-01    0.76       1.0  T
   5    -42.5049274 -0.325716E-03  0.792E-02    0.78       1.0  T
   6    -42.5051681 -0.240709E-03  0.190E-02    0.78       1.1  T
   7    -42.5051755 -0.739929E-05  0.796E-03    0.78       2.5  T
   8    -42.5051758 -0.334601E-06  0.330E-03    0.78       6.1  T
   9    -42.5051760 -0.156281E-06  0.140E-03    0.78      14.3  T
  10    -42.5051760 -0.223209E-07  0.559E-04    0.78      35.8  T
  11    -42.5051760 -0.126278E-08  0.225E-04    0.78      88.9  T
     SCC iter.                  ...        0 min,  0.015 sec
     gradient                   ...        0 min,  0.013 sec
 * total energy  :   -41.9261698 Eh     change       -0.1781391E-01 Eh
   gradient norm :     0.1639566 Eh/α   predicted    -0.1449701E-01 ( -18.62%)
   displ. norm   :     0.1839580 α      lambda       -0.1421465E-01
   maximum displ.:     0.0687197 α      in ANC's #41, #2, #46, ...

........................................................................
.............................. CYCLE   14 ..............................
........................................................................

 iter      E             dE          RMSdq      gap      omega  full diag
   1    -42.5282055 -0.425282E+02  0.290E-01    0.72       0.0  T
   2    -42.5244282  0.377730E-02  0.471E-01    0.66       1.0  T
   3    -42.5296088 -0.518056E-02  0.144E-01    0.71       1.0  T
   4    -42.5298046 -0.195755E-03  0.763E-02    0.69       1.0  T
   5    -42.5297306  0.739393E-04  0.530E-02    0.69       1.0  T
   6    -42.5298461 -0.115515E-03  0.156E-02    0.69       1.3  T
   7    -42.5298524 -0.624235E-05  0.514E-03    0.69       3.9  T
   8    -42.5298525 -0.149416E-06  0.168E-03    0.69      11.9  T
   9    -42.5298526 -0.399366E-07  0.731E-04    0.69      27.4  T
  10    -42.5298526 -0.281969E-08  0.312E-04    0.69      64.1  T
     SCC iter.                  ...        0 min,  0.013 sec
     gradient                   ...        0 min,  0.013 sec
 * total energy  :   -41.9372221 Eh     change       -0.1105226E-01 Eh
   gradient norm :     0.1755815 Eh/α   predicted    -0.7348255E-02 ( -33.51%)
   displ. norm   :     0.2415603 α      lambda       -0.1693958E-01
   maximum displ.:     0.0896321 α      in ANC's #41, #46, #44, ...

........................................................................
.............................. CYCLE   15 ..............................
........................................................................

 iter      E             dE          RMSdq      gap      omega  full diag
   1    -42.5502248 -0.425502E+02  0.351E-01    0.64       0.0  T
   2    -42.5451315  0.509328E-02  0.572E-01    0.55       1.0  T
   3    -42.5527681 -0.763667E-02  0.192E-01    0.62       1.0  T
   4    -42.5531727 -0.404538E-03  0.911E-02    0.59       1.0  T
   5    -42.5531152  0.574686E-04  0.556E-02    0.59       1.0  T
   6    -42.5532031 -0.878567E-04  0.176E-02    0.59       1.1  T
   7    -42.5532112 -0.815557E-05  0.786E-03    0.59       2.5  T
   8    -42.5532120 -0.732302E-06  0.299E-03    0.59       6.7  T
   9    -42.5532121 -0.126320E-06  0.104E-03    0.59      19.3  T
  10    -42.5532121 -0.105264E-07  0.486E-04    0.59      41.2  T
  11    -42.5532121 -0.203519E-08  0.159E-04    0.59     126.1  T
     SCC iter.                  ...        0 min,  0.015 sec
     gradient                   ...        0 min,  0.013 sec
 * total energy  :   -41.9487245 Eh     change       -0.1150244E-01 Eh
   gradient norm :     0.1784437 Eh/α   predicted    -0.8964436E-02 ( -22.06%)
   displ. norm   :     0.2273665 α      lambda       -0.1168626E-01
   maximum displ.:     0.0830282 α      in ANC's #2, #46, #14, ...

........................................................................
.............................. CYCLE   16 ..............................
........................................................................

 iter      E             dE          RMSdq      gap      omega  full diag
   1    -42.5595965 -0.425596E+02  0.222E-01    0.53       0.0  T
   2    -42.5586830  0.913468E-03  0.278E-01    0.49       1.0  T
   3    -42.5602375 -0.155449E-02  0.141E-01    0.54       1.0  T
   4    -42.5602534 -0.159150E-04  0.942E-02    0.51       1.0  T
   5    -42.5603209 -0.674404E-04  0.622E-02    0.53       1.0  T
   6    -42.5604493 -0.128470E-03  0.128E-02    0.52       1.6  T
   7    -42.5604515 -0.215607E-05  0.604E-03    0.52       3.3  T
   8    -42.5604519 -0.425830E-06  0.255E-03    0.52       7.9  T
   9    -42.5604519 -0.292762E-07  0.634E-04    0.52      31.5  T
  10    -42.5604519 -0.537229E-08  0.306E-04    0.52      65.3  T
     SCC iter.                  ...        0 min,  0.014 sec
     gradient                   ...        0 min,  0.014 sec
 * total energy  :   -41.9588715 Eh     change       -0.1014696E-01 Eh
   gradient norm :     0.2064232 Eh/α   predicted    -0.6145266E-02 ( -39.44%)
   displ. norm   :     0.5256103 α      lambda       -0.3228219E-01
   maximum displ.:     0.2074216 α      in ANC's #2, #46, #14, ...

........................................................................
.............................. CYCLE   17 ..............................
........................................................................

 iter      E             dE          RMSdq      gap      omega  full diag
   1    -42.5215347 -0.425215E+02  0.876E-01    0.36       0.0  T
   2    -42.5166238  0.491096E-02  0.996E-01    0.66       1.0  T
   3    -42.5370935 -0.204698E-01  0.535E-01    0.35       1.0  T
   4    -42.5411924 -0.409887E-02  0.329E-01    0.43       1.0  T
   5    -42.5420603 -0.867881E-03  0.183E-01    0.37       1.0  T
   6    -42.5428584 -0.798136E-03  0.599E-02    0.37       1.0  T
   7    -42.5429860 -0.127536E-03  0.160E-02    0.37       1.3  T
   8    -42.5429917 -0.573263E-05  0.713E-03    0.37       2.8  T
   9    -42.5429916  0.805338E-07  0.450E-03    0.37       4.4  T
  10    -42.5429920 -0.429116E-06  0.141E-03    0.37      14.2  T
  11    -42.5429921 -0.324683E-07  0.486E-04    0.37      41.1  T
  12    -42.5429921 -0.127035E-08  0.259E-04    0.37      77.3  T
     SCC iter.                  ...        0 min,  0.016 sec
     gradient                   ...        0 min,  0.013 sec
 * total energy  :   -41.9830854 Eh     change       -0.2421395E-01 Eh
   gradient norm :     0.2198559 Eh/α   predicted    -0.2060079E-01 ( -14.92%)
   displ. norm   :     0.3097555 α      lambda       -0.2032034E-01
   maximum displ.:     0.1112297 α      in ANC's #2, #14, #46, ...

........................................................................
.............................. CYCLE   18 ..............................
........................................................................

 iter      E             dE          RMSdq      gap      omega  full diag
   1    -42.5001702 -0.425002E+02  0.737E-01    0.39       0.0  T
   2    -42.4760858  0.240843E-01  0.118E+00    0.73       1.0  T
   3    -42.5098683 -0.337825E-01  0.451E-01    0.32       1.0  T
   4    -42.5139028 -0.403447E-02  0.179E-01    0.32       1.0  T
   5    -42.5138290  0.738091E-04  0.115E-01    0.31       1.0  T
   6    -42.5142016 -0.372600E-03  0.343E-02    0.31       1.0  T
   7    -42.5142451 -0.435242E-04  0.780E-03    0.31       2.6  T
   8    -42.5142465 -0.142210E-05  0.352E-03    0.31       5.7  T
   9    -42.5142466 -0.543933E-07  0.186E-03    0.31      10.8  T
  10    -42.5142467 -0.679734E-07  0.556E-04    0.31      36.0  T
  11    -42.5142467 -0.461844E-08  0.233E-04    0.31      86.0  T
     SCC iter.                  ...        0 min,  0.015 sec
     gradient                   ...        0 min,  0.013 sec
 * total energy  :   -41.9960293 Eh     change       -0.1294392E-01 Eh
   gradient norm :     0.1559231 Eh/α   predicted    -0.1113526E-01 ( -13.97%)
   displ. norm   :     0.1094761 α      lambda       -0.1162586E-01
   maximum displ.:     0.0452306 α      in ANC's #61, #41, #49, ...

........................................................................
.............................. CYCLE   19 ..............................
........................................................................

 iter      E             dE          RMSdq      gap      omega  full diag
   1    -42.5104663 -0.425105E+02  0.268E-01    0.34       0.0  T
   2    -42.5043398  0.612650E-02  0.526E-01    0.43       1.0  T
   3    -42.5115006 -0.716081E-02  0.113E-01    0.34       1.0  T
   4    -42.5115855 -0.848757E-04  0.497E-02    0.34       1.0  T
   5    -42.5115798  0.563189E-05  0.361E-02    0.34       1.0  T
   6    -42.5116286 -0.488045E-04  0.639E-03    0.34       3.1  T
   7    -42.5116292 -0.559523E-06  0.288E-03    0.34       6.9  T
   8    -42.5116292 -0.157431E-07  0.121E-03    0.34      16.5  T
   9    -42.5116292 -0.285756E-07  0.443E-04    0.34      45.1  T
  10    -42.5116292 -0.168244E-08  0.227E-04    0.34      88.3  T
     SCC iter.                  ...        0 min,  0.014 sec
     gradient                   ...        0 min,  0.013 sec
 * total energy  :   -42.0038815 Eh     change       -0.7852146E-02 Eh
   gradient norm :     0.1158364 Eh/α   predicted    -0.5882614E-02 ( -25.08%)
   displ. norm   :     0.1195576 α      lambda       -0.7425759E-02
   maximum displ.:     0.0589926 α      in ANC's #1, #61, #41, ...

........................................................................
.............................. CYCLE   20 ..............................
........................................................................

 iter      E             dE          RMSdq      gap      omega  full diag
   1    -42.5070494 -0.425070E+02  0.279E-01    0.37       0.0  T
   2    -42.4996028  0.744661E-02  0.583E-01    0.44       1.0  T
   3    -42.5083965 -0.879368E-02  0.123E-01    0.35       1.0  T
   4    -42.5085246 -0.128086E-03  0.602E-02    0.35       1.0  T
   5    -42.5085499 -0.253217E-04  0.203E-02    0.35       1.0  T
   6    -42.5085609 -0.109771E-04  0.588E-03    0.35       3.4  T
   7    -42.5085617 -0.764066E-06  0.361E-03    0.35       5.5  T
   8    -42.5085619 -0.222107E-06  0.122E-03    0.35      16.5  T
   9    -42.5085619 -0.139904E-07  0.448E-04    0.35      44.6  T
  10    -42.5085619 -0.308934E-08  0.214E-04    0.35      93.3  T
     SCC iter.                  ...        0 min,  0.014 sec
     gradient                   ...        0 min,  0.014 sec
 * total energy  :   -42.0094695 Eh     change       -0.5588075E-02 Eh
   gradient norm :     0.1230020 Eh/α   predicted    -0.3766495E-02 ( -32.60%)
   displ. norm   :     0.2818630 α      lambda       -0.1048447E-01
   maximum displ.:     0.2293364 α      in ANC's #1, #61, #35, ...
 * RMSD in coord.:     0.9371008 α      energy gain  -0.2522853E+02 Eh

generating ANC from model Hessian ...
Using Lindh-Hessian (1995)
 Shifting diagonal of input Hessian by    1.5768795177288231E-002
 Lowest  eigenvalues of input Hessian
    0.010000    0.010655    0.000000    0.000000    0.000000    0.000000
    0.000000    0.000000    0.017634    0.017940    0.019109    0.023209
    0.023568    0.025150    0.025280    0.027297    0.031243    0.036785
 Highest eigenvalues
    2.046893    2.133220    2.195758    2.333312    2.399111    4.735049


........................................................................
.............................. CYCLE   21 ..............................
........................................................................

 iter      E             dE          RMSdq      gap      omega  full diag
   1    -42.5064590 -0.425065E+02  0.394E-01    0.40       0.0  T
   2    -42.4953502  0.111088E-01  0.733E-01    0.46       1.0  T
   3    -42.5084449 -0.130948E-01  0.213E-01    0.38       1.0  T
   4    -42.5089452 -0.500259E-03  0.100E-01    0.36       1.0  T
   5    -42.5090209 -0.757735E-04  0.358E-02    0.37       1.0  T
   6    -42.5090576 -0.367011E-04  0.992E-03    0.37       2.0  T
   7    -42.5090597 -0.200305E-05  0.570E-03    0.37       3.5  T
   8    -42.5090601 -0.464711E-06  0.182E-03    0.37      11.0  T
   9    -42.5090601 -0.287140E-07  0.732E-04    0.37      27.3  T
  10    -42.5090602 -0.663788E-08  0.364E-04    0.37      55.0  T
     SCC iter.                  ...        0 min,  0.013 sec
     gradient                   ...        0 min,  0.013 sec
 * total energy  :   -42.0150491 Eh     change       -0.5579556E-02 Eh
   gradient norm :     0.1285348 Eh/α   predicted     0.0000000E+00 (-100.00%)
   displ. norm   :     0.4316383 α      lambda       -0.3313797E-01
   maximum displ.:     0.1834014 α      in ANC's #14, #13, #36, ...

........................................................................
.............................. CYCLE   22 ..............................
........................................................................

 iter      E             dE          RMSdq      gap      omega  full diag
   1    -42.5593964 -0.425594E+02  0.374E-01    0.29       0.0  T
   2    -42.5591481  0.248205E-03  0.314E-01    0.32       1.0  T
   3    -42.5576502  0.149796E-02  0.347E-01    0.32       1.0  T
   4    -42.5598486 -0.219842E-02  0.191E-01    0.31       1.0  T
   5    -42.5605369 -0.688302E-03  0.301E-02    0.30       1.0  T
   6    -42.5605641 -0.272206E-04  0.113E-02    0.30       1.8  T
   7    -42.5605656 -0.149227E-05  0.614E-03    0.30       3.3  T
   8    -42.5605660 -0.327396E-06  0.137E-03    0.30      14.6  T
   9    -42.5605660 -0.686620E-08  0.710E-04    0.30      28.2  T
  10    -42.5605660 -0.961428E-09  0.221E-04    0.30      90.7  T
     SCC iter.                  ...        0 min,  0.013 sec
     gradient                   ...        0 min,  0.013 sec
 * total energy  :   -42.0403775 Eh     change       -0.2532836E-01 Eh
   gradient norm :     0.0596491 Eh/α   predicted    -0.1969228E-01 ( -22.25%)
   displ. norm   :     0.6153840 α      lambda       -0.2473490E-01
   maximum displ.:     0.3793207 α      in ANC's #14, #7, #13, ...

........................................................................
.............................. CYCLE   23 ..............................
........................................................................

 iter      E             dE          RMSdq      gap      omega  full diag
   1    -42.5916539 -0.425917E+02  0.547E-01    0.23       0.0  T
   2    -42.5930217 -0.136775E-02  0.349E-01    0.21       1.0  T
   3    -42.5882859  0.473577E-02  0.520E-01    0.34       1.0  T
   4    -42.5939957 -0.570978E-02  0.164E-01    0.21       1.0  T
   5    -42.5944531 -0.457447E-03  0.486E-02    0.22       1.0  T
   6    -42.5944995 -0.463907E-04  0.139E-02    0.22       1.4  T
   7    -42.5945022 -0.270028E-05  0.701E-03    0.22       2.9  T
   8    -42.5945028 -0.624483E-06  0.274E-03    0.22       7.3  T
   9    -42.5945029 -0.729451E-07  0.837E-04    0.22      23.9  T
  10    -42.5945029 -0.373077E-08  0.484E-04    0.22      41.3  T
     SCC iter.                  ...        0 min,  0.014 sec
     gradient                   ...        0 min,  0.014 sec
 * total energy  :   -42.0595775 Eh     change       -0.1920007E-01 Eh
   gradient norm :     0.0918423 Eh/α   predicted    -0.1705098E-01 ( -11.19%)
   displ. norm   :     0.6231613 α      lambda       -0.1884908E-01
   maximum displ.:     0.4171222 α      in ANC's #14, #7, #18, ...

........................................................................
.............................. CYCLE   24 ..............................
........................................................................

 iter      E             dE          RMSdq      gap      omega  full diag
   1    -42.5995651 -0.425996E+02  0.619E-01    0.22       0.0  T
   2    -42.6005249 -0.959825E-03  0.459E-01    0.17       1.0  T
   3    -42.5895030  0.110220E-01  0.785E-01    0.45       1.0  T
   4    -42.6045263 -0.150233E-01  0.148E-01    0.17       1.0  T
   5    -42.6044808  0.455045E-04  0.620E-02    0.18       1.0  T
   6    -42.6045505 -0.697267E-04  0.130E-02    0.17       1.5  T
   7    -42.6045524 -0.190160E-05  0.713E-03    0.17       2.8  T
   8    -42.6045530 -0.602764E-06  0.264E-03    0.17       7.6  T
   9    -42.6045531 -0.748509E-07  0.116E-03    0.17      17.2  T
  10    -42.6045531 -0.173555E-07  0.524E-04    0.17      38.1  T
  11    -42.6045531 -0.111919E-08  0.199E-04    0.17     100.3  T
     SCC iter.                  ...        0 min,  0.015 sec
     gradient                   ...        0 min,  0.013 sec
 * total energy  :   -42.0713788 Eh     change       -0.1180122E-01 Eh
   gradient norm :     0.0872561 Eh/α   predicted    -0.1308462E-01 (  10.88%)
   displ. norm   :     0.2060248 α      lambda       -0.5996456E-02
   maximum displ.:     0.1397728 α      in ANC's #7, #14, #6, ...

........................................................................
.............................. CYCLE   25 ..............................
........................................................................

 iter      E             dE          RMSdq      gap      omega  full diag
   1    -42.6016881 -0.426017E+02  0.166E-01    0.18       0.0  T
   2    -42.6009275  0.760681E-03  0.192E-01    0.14       1.0  T
   3    -42.6009281 -0.627915E-06  0.198E-01    0.23       1.0  T
   4    -42.6018049 -0.876850E-03  0.268E-02    0.17       1.0  T
   5    -42.6018133 -0.837201E-05  0.508E-03    0.17       3.9  T
   6    -42.6018136 -0.348407E-06  0.276E-03    0.17       7.2  T
   7    -42.6018137 -0.629254E-07  0.141E-03    0.17      14.2  T
   8    -42.6018137 -0.257891E-07  0.425E-04    0.17      47.0  T
   9    -42.6018137 -0.335530E-08  0.199E-04    0.17     100.4  T
     SCC iter.                  ...        0 min,  0.012 sec
     gradient                   ...        0 min,  0.014 sec
 * total energy  :   -42.0757512 Eh     change       -0.4372429E-02 Eh
   gradient norm :     0.0405984 Eh/α   predicted    -0.3125634E-02 ( -28.51%)
   displ. norm   :     0.2480185 α      lambda       -0.3807370E-02
   maximum displ.:     0.1917358 α      in ANC's #7, #6, #2, ...

........................................................................
.............................. CYCLE   26 ..............................
........................................................................

 iter      E             dE          RMSdq      gap      omega  full diag
   1    -42.5966967 -0.425967E+02  0.191E-01    0.19       0.0  T
   2    -42.5957277  0.968936E-03  0.218E-01    0.14       1.0  T
   3    -42.5956999  0.278290E-04  0.224E-01    0.24       1.0  T
   4    -42.5968211 -0.112116E-02  0.350E-02    0.17       1.0  T
   5    -42.5968440 -0.228923E-04  0.683E-03    0.17       2.9  T
   6    -42.5968453 -0.135121E-05  0.326E-03    0.17       6.1  T
   7    -42.5968455 -0.162537E-06  0.133E-03    0.17      15.0  T
   8    -42.5968455 -0.574092E-08  0.404E-04    0.17      49.5  T
   9    -42.5968455 -0.309441E-08  0.139E-04    0.17     143.7  T
     SCC iter.                  ...        0 min,  0.012 sec
     gradient                   ...        0 min,  0.014 sec
 * total energy  :   -42.0778860 Eh     change       -0.2134840E-02 Eh
   gradient norm :     0.0153590 Eh/α   predicted    -0.2020793E-02 (  -5.34%)
   displ. norm   :     0.1835274 α      lambda       -0.8882909E-03
   maximum displ.:     0.1588696 α      in ANC's #7, #6, #8, ...

........................................................................
.............................. CYCLE   27 ..............................
........................................................................

 iter      E             dE          RMSdq      gap      omega  full diag
   1    -42.5950084 -0.425950E+02  0.128E-01    0.18       0.0  T
   2    -42.5945024  0.506029E-03  0.149E-01    0.13       1.0  T
   3    -42.5944765  0.259095E-04  0.161E-01    0.21       1.0  T
   4    -42.5950684 -0.591878E-03  0.118E-02    0.17       1.7  T
   5    -42.5950707 -0.231989E-05  0.289E-03    0.17       6.9  T
   6    -42.5950708 -0.949145E-07  0.150E-03    0.17      13.4  T
   7    -42.5950708 -0.108725E-07  0.927E-04    0.17      21.6  T
   8    -42.5950708 -0.168982E-07  0.185E-04    0.17     108.2  T
     SCC iter.                  ...        0 min,  0.011 sec
     gradient                   ...        0 min,  0.014 sec
 * total energy  :   -42.0784053 Eh     change       -0.5192784E-03 Eh
   gradient norm :     0.0144116 Eh/α   predicted    -0.4591103E-03 ( -11.59%)
   displ. norm   :     0.1696731 α      lambda       -0.5426665E-03
   maximum displ.:     0.1349408 α      in ANC's #7, #2, #6, ...

........................................................................
.............................. CYCLE   28 ..............................
........................................................................

 iter      E             dE          RMSdq      gap      omega  full diag
   1    -42.5950396 -0.425950E+02  0.104E-01    0.18       0.0  T
   2    -42.5945505  0.489094E-03  0.141E-01    0.13       1.0  T
   3    -42.5947999 -0.249311E-03  0.114E-01    0.20       1.0  T
   4    -42.5950808 -0.280993E-03  0.862E-03    0.17       2.3  T
   5    -42.5950825 -0.160708E-05  0.344E-03    0.16       5.8  T
   6    -42.5950828 -0.374301E-06  0.148E-03    0.16      13.6  T
   7    -42.5950829 -0.294336E-07  0.429E-04    0.16      46.7  T
   8    -42.5950829 -0.222748E-08  0.153E-04    0.16     130.9  T
     SCC iter.                  ...        0 min,  0.011 sec
     gradient                   ...        0 min,  0.014 sec
 * total energy  :   -42.0788009 Eh     change       -0.3956028E-03 Eh
   gradient norm :     0.0108375 Eh/α   predicted    -0.2791462E-03 ( -29.44%)
   displ. norm   :     0.2039124 α      lambda       -0.5049185E-03
   maximum displ.:     0.1509126 α      in ANC's #7, #2, #8, ...

........................................................................
.............................. CYCLE   29 ..............................
........................................................................

 iter      E             dE          RMSdq      gap      omega  full diag
   1    -42.5961464 -0.425961E+02  0.131E-01    0.19       0.0  T
   2    -42.5947221  0.142431E-02  0.227E-01    0.12       1.0  T
   3    -42.5958907 -0.116863E-02  0.132E-01    0.21       1.0  T
   4    -42.5962571 -0.366406E-03  0.892E-03    0.17       2.2  T
   5    -42.5962585 -0.133999E-05  0.218E-03    0.17       9.2  T
   6    -42.5962585 -0.442665E-07  0.121E-03    0.17      16.6  T
   7    -42.5962585 -0.910222E-08  0.475E-04    0.17      42.1  T
   8    -42.5962585 -0.285738E-08  0.180E-04    0.17     111.2  T
     SCC iter.                  ...        0 min,  0.011 sec
     gradient                   ...        0 min,  0.013 sec
 * total energy  :   -42.0791096 Eh     change       -0.3086979E-03 Eh
   gradient norm :     0.0077334 Eh/α   predicted    -0.2629618E-03 ( -14.82%)
   displ. norm   :     0.1150543 α      lambda       -0.2049910E-03
   maximum displ.:     0.0807801 α      in ANC's #7, #2, #8, ...

........................................................................
.............................. CYCLE   30 ..............................
........................................................................

 iter      E             dE          RMSdq      gap      omega  full diag
   1    -42.5979310 -0.425979E+02  0.830E-02    0.18       0.0  T
   2    -42.5972952  0.635837E-03  0.150E-01    0.12       1.0  T
   3    -42.5978330 -0.537869E-03  0.839E-02    0.19       1.0  T
   4    -42.5979811 -0.148064E-03  0.811E-03    0.17       2.5  T
   5    -42.5979823 -0.118910E-05  0.140E-03    0.17      14.3  T
   6    -42.5979823 -0.196006E-07  0.794E-04    0.17      25.2  T
   7    -42.5979823 -0.444595E-08  0.376E-04    0.17      53.1  T
     SCC iter.                  ...        0 min,  0.010 sec
     gradient                   ...        0 min,  0.013 sec
 * total energy  :   -42.0792394 Eh     change       -0.1297854E-03 Eh
   gradient norm :     0.0079685 Eh/α   predicted    -0.1038545E-03 ( -19.98%)
   displ. norm   :     0.0980277 α      lambda       -0.1429251E-03
   maximum displ.:     0.0564682 α      in ANC's #2, #7, #8, ...

........................................................................
.............................. CYCLE   31 ..............................
........................................................................

 iter      E             dE          RMSdq      gap      omega  full diag
   1    -42.5981247 -0.425981E+02  0.763E-02    0.18       0.0  T
   2    -42.5973538  0.770932E-03  0.164E-01    0.12       1.0  T
   3    -42.5981026 -0.748819E-03  0.640E-02    0.19       1.0  T
   4    -42.5981838 -0.812523E-04  0.728E-03    0.17       2.7  T
   5    -42.5981848 -0.908433E-06  0.148E-03    0.17      13.5  T
   6    -42.5981848 -0.403819E-07  0.595E-04    0.17      33.6  T
   7    -42.5981848 -0.196342E-08  0.307E-04    0.17      65.1  T
     SCC iter.                  ...        0 min,  0.010 sec
     gradient                   ...        0 min,  0.013 sec
 * total energy  :   -42.0793260 Eh     change       -0.8659892E-04 Eh
   gradient norm :     0.0058289 Eh/α   predicted    -0.7215767E-04 ( -16.68%)
   displ. norm   :     0.1029825 α      lambda       -0.1187412E-03
   maximum displ.:     0.0687261 α      in ANC's #2, #8, #7, ...

........................................................................
.............................. CYCLE   32 ..............................
........................................................................

 iter      E             dE          RMSdq      gap      omega  full diag
   1    -42.5996918 -0.425997E+02  0.704E-02    0.18       0.0  T
   2    -42.5992913  0.400507E-03  0.120E-01    0.13       1.0  T
   3    -42.5995962 -0.304887E-03  0.786E-02    0.20       1.0  T
   4    -42.5997365 -0.140264E-03  0.190E-02    0.17       1.1  T
   5    -42.5997400 -0.354195E-05  0.554E-03    0.17       3.6  T
   6    -42.5997409 -0.891716E-06  0.111E-03    0.17      18.0  T
   7    -42.5997409 -0.198884E-07  0.541E-04    0.17      36.9  T
   8    -42.5997409 -0.207651E-08  0.139E-04    0.17     143.9  T
     SCC iter.                  ...        0 min,  0.011 sec
     gradient                   ...        0 min,  0.013 sec
 * total energy  :   -42.0793558 Eh     change       -0.2981184E-04 Eh
   gradient norm :     0.0098520 Eh/α   predicted    -0.6000063E-04 ( 101.26%)
   displ. norm   :     0.0272183 α      lambda       -0.7052399E-04
   maximum displ.:     0.0167939 α      in ANC's #6, #7, #13, ...

........................................................................
.............................. CYCLE   33 ..............................
........................................................................

 iter      E             dE          RMSdq      gap      omega  full diag
   1    -42.5986194 -0.425986E+02  0.231E-02    0.17       0.0  T
   2    -42.5986221 -0.268254E-05  0.135E-02    0.17       1.5  T
   3    -42.5986222 -0.105424E-06  0.661E-03    0.17       3.0  T
   4    -42.5986195  0.270940E-05  0.102E-02    0.17       2.0  T
   5    -42.5986224 -0.284636E-05  0.164E-03    0.17      12.2  T
   6    -42.5986224 -0.636942E-07  0.649E-04    0.17      30.8  T
   7    -42.5986224 -0.369766E-08  0.348E-04    0.17      57.4  T
     SCC iter.                  ...        0 min,  0.010 sec
     gradient                   ...        0 min,  0.013 sec
 * total energy  :   -42.0793984 Eh     change       -0.4259360E-04 Eh
   gradient norm :     0.0037163 Eh/α   predicted    -0.3528886E-04 ( -17.15%)
   displ. norm   :     0.0486499 α      lambda       -0.4452955E-04
   maximum displ.:     0.0363807 α      in ANC's #2, #6, #5, ...

   *** GEOMETRY OPTIMIZATION CONVERGED AFTER 33 ITERATIONS ***

------------------------------------------------------------------------
 total energy gain   :       -25.2984627 Eh   -15875.0250 kcal/mol
 total RMSD          :         1.0488918 a0        0.5550 Å
 total power (kW/mol):     -2012.7607468 (step)********** (real)
------------------------------------------------------------------------

 ANCopt (total)                0 d,  0 h,  0 min,  1.069 sec
 optimizer setup                ...        0 min,  0.000 sec (  0.043%)
 model hessian                  ...        0 min,  0.012 sec (  1.111%)
 ANC generation                 ...        0 min,  0.002 sec (  0.145%)
 coordinate transformation      ...        0 min,  0.000 sec (  0.029%)
 single point calculation       ...        0 min,  1.047 sec ( 97.859%)
 optimization log               ...        0 min,  0.003 sec (  0.313%)
 hessian update                 ...        0 min,  0.000 sec (  0.042%)
 rational function              ...        0 min,  0.003 sec (  0.303%)

================
 final structure:
================
25
 xtb: 6.6.1 (8d0f1dd)
C            3.31004188014141        1.23059980504541        0.01133329885246
N            2.36229253884854        0.14732461844547       -0.00020602705208
C            2.63574061348052       -1.14864464890241       -0.00456946744485
N            1.48825178487433       -1.86130388423578        0.00343359630538
C            0.44811702792259       -0.97931018154983        0.01340588020657
C            0.99694273363722        0.29261562037102        0.01227001424761
C            0.16079192742185        1.48185625039978       -0.00156425336914
O            0.55979075208999        2.62077496661918       -0.02058716623569
N           -1.19034310052382        1.14497379700115        0.00474647923253
C           -2.15029466655132        2.24247920814891        0.00019774417451
C           -1.76380260664401       -0.11467533684940        0.00656304336920
O           -2.94591023396357       -0.29361186797118        0.00638816956850
N           -0.87077892575767       -1.22696051763692        0.01361722977788
C           -1.38362394192815       -2.53923646691665        0.01069390875152
H            3.80970374779615        1.28502756968984        0.97961814462624
H            4.06167157132288        1.08440637335530       -0.76320744332617
H            2.77713814837857        2.16501405741555       -0.16181241794615
H            3.61941474002343       -1.57637410979188       -0.01581470630212
H           -1.59280158542345        3.17572305330841        0.00585012865182
H           -2.77745747881932        2.18146430646926       -0.88831803285576
H           -2.78937538021719        2.17735210060587        0.87959210390485
H           -1.72662125076718       -2.94103226949520        0.94424704092943
H           -1.79793920389529       -2.90557274120376       -0.91336642652524
H           -3.48976429226538       -4.95525812206605       -0.08786881569099
H            1.40924671491882       -2.86939303865607       -0.00347040795028

 Bond Distances (Angstroems)
 ---------------------------
C1-N2=1.4394         C1-H15=1.0910        C1-H16=1.0891        C1-H17=1.0895        N2-C1=1.4394         N2-C3=1.3245         
N2-C6=1.3731         C3-N2=1.3245         C3-N4=1.3508         C3-H18=1.0727        N4-C3=1.3508         N4-C5=1.3638         
N4-H25=1.0112        C5-N4=1.3638         C5-C6=1.3853         C5-N13=1.3419        C6-N2=1.3731         C6-C5=1.3853         
C6-C7=1.4538         C7-C6=1.4538         C7-O8=1.2069         C7-N9=1.3925         O8-C7=1.2069         N9-C7=1.3925         
N9-C10=1.4581        N9-C11=1.3840        C10-N9=1.4581        C10-H19=1.0871       C10-H20=1.0893       C10-H21=1.0890       
C11-N9=1.3840        C11-O12=1.1956       C11-N13=1.4264       O12-C11=1.1956       N13-C5=1.3419        N13-C11=1.4264       
N13-C14=1.4089       C14-N13=1.4089       C14-H22=1.0727       C14-H23=1.0769       H15-C1=1.0910        H16-C1=1.0891        
H17-C1=1.0895        H18-C3=1.0727        H19-C10=1.0871       H20-C10=1.0893       H21-C10=1.0890       H22-C14=1.0727       
H23-C14=1.0769       H25-N4=1.0112        
 C  H  Rav=1.0841 sigma=0.0073  Rmin=1.0727  Rmax=1.0910     9
 C  C  Rav=1.4196 sigma=0.0343  Rmin=1.3853  Rmax=1.4538     2
 N  H  Rav=1.0112 sigma=0.0000  Rmin=1.0112  Rmax=1.0112     1
 N  C  Rav=1.3876 sigma=0.0403  Rmin=1.3245  Rmax=1.4581    11
 O  C  Rav=1.2013 sigma=0.0057  Rmin=1.1956  Rmax=1.2069     2

 selected bond angles (degree)
 --------------------
H15-C1-N2=110.26               H16-C1-N2=110.35               H16-C1-H15=108.77              H17-C1-N2=108.79               
H17-C1-H15=108.80              H17-C1-H16=109.86              C3-N2-C1=126.90                C6-N2-C1=125.10                
C6-N2-C3=107.99                N4-C3-N2=109.93                H18-C3-N2=125.42               H18-C3-N4=124.66               
C5-N4-C3=107.86                H25-N4-C3=126.32               H25-N4-C5=125.82               C6-C5-N4=106.96                
N13-C5-N4=129.07               N13-C5-C6=123.97               C5-C6-N2=107.27                C7-C6-N2=131.17                
C7-C6-C5=121.55                O8-C7-C6=125.59                N9-C7-C6=111.11                N9-C7-O8=123.31                
C10-N9-C7=117.17               C11-N9-C7=128.48               C11-N9-C10=114.35              H19-C10-N9=107.97              
H20-C10-N9=109.84              H20-C10-H19=110.34             H21-C10-N9=109.80              H21-C10-H19=110.37             
H21-C10-H20=108.51             

 selected dihedral angles (degree)
 ---------------------------------
C3-N2-C1-H15=289.52           C3-N2-C1-H16= 49.70           C3-N2-C1-H17=170.29           C6-N2-C1-H15=108.46           
C6-N2-C1-H16=228.63           C6-N2-C1-H17=349.22           N4-C3-N2-C1=179.14            N4-C3-N2-C6=  0.06            
H18-C3-N2-C1=358.96           H18-C3-N2-C6=179.88           C5-N4-C3-N2=  0.00            C5-N4-C3-H18=180.16           
H25-N4-C3-N2=179.59           H25-N4-C3-H18=359.76          C6-C5-N4-C3=359.96            C6-C5-N4-H25=180.36           
N13-C5-N4-C3=179.45           N13-C5-N4-H25=359.85          C5-C6-N2-C1=180.81            C5-C6-N2-C3=359.92            
C7-C6-N2-C1=  2.11            C7-C6-N2-C3=181.21            N2-C6-C5-N4=  0.08            N2-C6-C5-N13=180.55           
C7-C6-C5-N4=178.94            C7-C6-C5-N13=359.41           O8-C7-C6-N2=359.55            O8-C7-C6-C5=181.00            
N9-C7-C6-N2=179.32            N9-C7-C6-C5=  0.77            C10-N9-C7-C6=179.65           C10-N9-C7-O8=359.42           
C11-N9-C7-C6=359.21           C11-N9-C7-O8=178.98           H19-C10-N9-C7=359.25          H19-C10-N9-C11=179.63         
H20-C10-N9-C7=119.61          H20-C10-N9-C11=299.99         H21-C10-N9-C7=238.86          H21-C10-N9-C11= 59.25         
           -------------------------------------------------
          |                Final Singlepoint                |
           -------------------------------------------------

          ...................................................
          :                      SETUP                      :
          :.................................................:
          :  # basis functions                  67          :
          :  # atomic orbitals                  67          :
          :  # shells                           39          :
          :  # electrons                        74          :
          :  max. iterations                   250          :
          :  Hamiltonian                  GFN2-xTB          :
          :  restarted?                      false          :
          :  GBSA solvation                  false          :
          :  PC potential                    false          :
          :  electronic temp.         5000.0000000     K    :
          :  accuracy                    1.0000000          :
          :  -> integral cutoff          0.2500000E+02      :
          :  -> integral neglect         0.1000000E-07      :
          :  -> SCF convergence          0.1000000E-05 Eh   :
          :  -> wf. convergence          0.1000000E-03 e    :
          :  Broyden damping             0.4000000          :
          ...................................................

 iter      E             dE          RMSdq      gap      omega  full diag
   1    -42.5986224 -0.425986E+02  0.755E-05    0.17       0.0  T
   2    -42.5986224  0.242622E-09  0.106E-04    0.17     188.9  T
   3    -42.5986224 -0.156554E-09  0.828E-05    0.17     241.5  T

   *** convergence criteria satisfied after 3 iterations ***

         #    Occupation            Energy/Eh            Energy/eV
      -------------------------------------------------------------
         1        2.0000           -0.9186194             -24.9969
       ...           ...                  ...                  ...
        31        1.9992           -0.6184350             -16.8285
        32        1.9973           -0.5992470             -16.3063
        33        1.9910           -0.5800392             -15.7837
        34        1.9767           -0.5647797             -15.3684
        35        1.9712           -0.5614040             -15.2766
        36        1.9611           -0.5565486             -15.1445
        37        1.1196           -0.4982937             -13.5593 (HOMO)
        38        0.9238           -0.4920714             -13.3899 (LUMO)
        39        0.0533           -0.4375181             -11.9055
        40        0.0073           -0.4056319             -11.0378
        41        0.0010           -0.3746395             -10.1945
        42        0.0000           -0.2903389              -7.9005
       ...           ...                  ...                  ...
        67                          0.5599695              15.2375
      -------------------------------------------------------------
                  HL-Gap            0.0062223 Eh            0.1693 eV
             Fermi-level           -0.4944888 Eh          -13.4557 eV

 SCC (total)                   0 d,  0 h,  0 min,  0.023 sec
 SCC setup                      ...        0 min,  0.000 sec (  0.844%)
 Dispersion                     ...        0 min,  0.000 sec (  0.770%)
 classical contributions        ...        0 min,  0.000 sec (  0.309%)
 integral evaluation            ...        0 min,  0.005 sec ( 19.923%)
 iterations                     ...        0 min,  0.005 sec ( 19.942%)
 molecular gradient             ...        0 min,  0.014 sec ( 57.644%)
 printout                       ...        0 min,  0.000 sec (  0.522%)

         :::::::::::::::::::::::::::::::::::::::::::::::::::::
         ::                     SUMMARY                     ::
         :::::::::::::::::::::::::::::::::::::::::::::::::::::
         :: total energy             -42.079398396298 Eh    ::
         :: gradient norm              0.003715385775 Eh/a0 ::
         :: HOMO-LUMO gap              0.169318125627 eV    ::
         ::.................................................::
         :: SCC energy               -42.598622443056 Eh    ::
         :: -> isotropic ES            0.139710643358 Eh    ::
         :: -> anisotropic ES         -0.005374007960 Eh    ::
         :: -> anisotropic XC          0.012787312403 Eh    ::
         :: -> dispersion             -0.022612919026 Eh    ::
         :: repulsion energy           0.519145708591 Eh    ::
         :: add. restraining           0.000000008189 Eh    ::
         :: total charge               1.000000000066 e     ::
         :::::::::::::::::::::::::::::::::::::::::::::::::::::

           -------------------------------------------------
          |                Property Printout                |
           -------------------------------------------------

    * Orbital Energies and Occupations

         #    Occupation            Energy/Eh            Energy/eV
      -------------------------------------------------------------
         1        2.0000           -0.9186194             -24.9969
       ...           ...                  ...                  ...
        25        2.0000           -0.6667926             -18.1443
        26        2.0000           -0.6648860             -18.0925
        27        1.9999           -0.6572450             -17.8845
        28        1.9998           -0.6368830             -17.3305
        29        1.9996           -0.6293363             -17.1251
        30        1.9994           -0.6219626             -16.9245
        31        1.9992           -0.6184350             -16.8285
        32        1.9973           -0.5992470             -16.3063
        33        1.9910           -0.5800392             -15.7837
        34        1.9767           -0.5647797             -15.3684
        35        1.9712           -0.5614040             -15.2766
        36        1.9611           -0.5565486             -15.1445
        37        1.1196           -0.4982937             -13.5593 (HOMO)
        38        0.9238           -0.4920714             -13.3899 (LUMO)
        39        0.0533           -0.4375181             -11.9055
        40        0.0073           -0.4056319             -11.0378
        41        0.0010           -0.3746395             -10.1945
        42        0.0000           -0.2903389              -7.9005
        43                         -0.2018255              -5.4920
        44                         -0.1989363              -5.4133
        45                         -0.1341484              -3.6504
        46                         -0.1308889              -3.5617
        47                         -0.0737980              -2.0081
        48                         -0.0418049              -1.1376
       ...                                ...                  ...
        67                          0.5599695              15.2375
      -------------------------------------------------------------
                  HL-Gap            0.0062223 Eh            0.1693 eV
             Fermi-level           -0.4944888 Eh          -13.4557 eV

     #   Z          covCN         q      C6AA      α(0)
     1   6 C        3.692    -0.096    22.533     6.792
     2   7 N        2.836     0.090    19.675     6.588
     3   6 C        3.064     0.055    26.704     8.474
     4   7 N        2.797    -0.055    22.297     7.013
     5   6 C        3.054     0.120    25.317     8.252
     6   6 C        3.126    -0.024    28.418     8.729
     7   6 C        2.764     0.275    22.346     7.742
     8   8 O        0.858    -0.361    20.912     6.131
     9   7 N        2.745    -0.083    22.850     7.100
    10   6 C        3.711    -0.062    21.838     6.678
    11   6 C        2.727     0.319    21.578     7.605
    12   8 O        0.859    -0.343    20.581     6.082
    13   7 N        2.738    -0.044    22.084     6.980
    14   6 C        2.784    -0.073    29.802     8.942
    15   1 H        0.924     0.112     1.679     2.026
    16   1 H        0.925     0.108     1.714     2.048
    17   1 H        0.925     0.139     1.470     1.896
    18   1 H        0.926     0.130     1.538     1.940
    19   1 H        0.925     0.115     1.651     2.010
    20   1 H        0.925     0.100     1.781     2.087
    21   1 H        0.925     0.101     1.779     2.086
    22   1 H        0.926     0.095     1.830     2.115
    23   1 H        0.926     0.095     1.831     2.116
    24   1 H        0.000     0.053     5.694     4.363
    25   1 H        0.860     0.234     0.948     1.525

 Mol. C6AA /au·bohr⁶  :       6786.175965
 Mol. C8AA /au·bohr⁸  :     155108.447517
 Mol. α(0) /au        :        127.318490


Wiberg/Mayer (AO) data.
largest (>0.10) Wiberg bond orders for each atom

 ---------------------------------------------------------------------------
     #   Z sym  total        # sym  WBO       # sym  WBO       # sym  WBO
 ---------------------------------------------------------------------------
     1   6 C    3.911 --     2 N    0.983    16 H    0.963    17 H    0.960
                            15 H    0.954
     2   7 N    3.703 --     3 C    1.408     6 C    1.167     1 C    0.983
     3   6 C    3.880 --     2 N    1.408     4 N    1.280    18 H    0.951
     4   7 N    3.599 --     3 C    1.280     5 C    1.190    25 H    0.916
     5   6 C    3.936 --     6 C    1.349    13 N    1.213     4 N    1.190
     6   6 C    3.909 --     5 C    1.349     2 N    1.167     7 C    1.060
     7   6 C    3.954 --     8 O    1.692     9 N    1.109     6 C    1.060
     8   8 O    2.039 --     7 C    1.692     9 N    0.150
     9   7 N    3.547 --    11 C    1.119     7 C    1.109    10 C    0.966
                             8 O    0.150    12 O    0.136
    10   6 C    3.904 --     9 N    0.966    19 H    0.966    21 H    0.962
                            20 H    0.962
    11   6 C    3.927 --    12 O    1.730     9 N    1.119    13 N    0.993
    12   8 O    2.067 --    11 C    1.730     9 N    0.136    13 N    0.119
    13   7 N    3.550 --     5 C    1.213    14 C    1.018    11 C    0.993
                            12 O    0.119
    14   6 C    2.983 --    13 N    1.018    23 H    0.958    22 H    0.958
    15   1 H    0.985 --     1 C    0.954
    16   1 H    0.986 --     1 C    0.963
    17   1 H    0.980 --     1 C    0.960
    18   1 H    0.982 --     3 C    0.951
    19   1 H    0.984 --    10 C    0.966
    20   1 H    0.982 --    10 C    0.962
    21   1 H    0.982 --    10 C    0.962
    22   1 H    0.981 --    14 C    0.958
    23   1 H    0.982 --    14 C    0.958
    24   1 H    0.006
    25   1 H    0.944 --     4 N    0.916
 ---------------------------------------------------------------------------

Topologies differ in total number of bonds
Writing topology from bond orders to xtbtopo.mol

molecular dipole:
                 x           y           z       tot (Debye)
 q only:        2.716      -1.865       0.010
   full:        2.881      -2.329       0.020       9.417
molecular quadrupole (traceless):
                xx          xy          yy          xz          yz          zz
 q only:       13.898      -4.062       5.776       0.184       0.210     -19.674
  q+dip:       11.868      -6.101       4.101       0.260       0.222     -15.969
   full:       11.355      -6.286       3.385       0.233       0.255     -14.740

           -------------------------------------------------
          |                Geometry Summary                 |
           -------------------------------------------------

      molecular mass/u    :      195.1988581
   center of mass at/Å    :        0.0792716       0.0741141       0.0032325
  moments of inertia/u·Å² :        0.4935243E+03   0.7246686E+03   0.1208358E+04
rotational constants/cm⁻¹ :        0.3415765E-01   0.2326254E-01   0.1395086E-01

 * 24 selected distances

     #   Z          #   Z                                           value/Å
     1   6 C        2   7 N                                       1.4393914
     2   7 N        3   6 C                                       1.3245111
     3   6 C        4   7 N                                       1.3508065
     4   7 N        5   6 C                                       1.3637789
     2   7 N        6   6 C                                       1.3731153
     5   6 C        6   6 C                                       1.3852821
     7   6 C        8   8 O                                       1.2069375
     7   6 C        9   7 N                                       1.3925142
     9   7 N       10   6 C                                       1.4580968 (max)
     9   7 N       11   6 C                                       1.3840431
    11   6 C       12   8 O                                       1.1955739
     5   6 C       13   7 N                                       1.3419455
    11   6 C       13   7 N                                       1.4264360
    13   7 N       14   6 C                                       1.4089312
     1   6 C       15   1 H                                       1.0909629
     1   6 C       16   1 H                                       1.0891434
     1   6 C       17   1 H                                       1.0895394
     3   6 C       18   1 H                                       1.0727040
    10   6 C       19   1 H                                       1.0870947
    10   6 C       20   1 H                                       1.0892734
    10   6 C       21   1 H                                       1.0890364
    14   6 C       22   1 H                                       1.0726643
    14   6 C       23   1 H                                       1.0769156
     4   7 N       25   1 H                                       1.0112039 (min)

 * 5 distinct bonds (by element types)

   Z      Z             #   av. dist./Å        max./Å        min./Å
   1 H    6 C           9     1.0841482     1.0909629     1.0726643
   6 C    6 C           1     1.3852821     1.3852821     1.3852821
   1 H    7 N           1     1.0112039     1.0112039     1.0112039
   6 C    7 N          11     1.3875973     1.4580968     1.3245111
   6 C    8 O           2     1.2012557     1.2069375     1.1955739


optimized geometry written to: xtbopt.xyz


           -------------------------------------------------
          | TOTAL ENERGY              -42.079398396298 Eh   |
          | GRADIENT NORM               0.003715385775 Eh/α |
          | HOMO-LUMO GAP               0.169318125627 eV   |
           -------------------------------------------------

------------------------------------------------------------------------
 * finished run on 2024/06/05 at 19:59:19.279     
------------------------------------------------------------------------
 total:
 * wall-time:     0 d,  0 h,  0 min,  1.166 sec
 *  cpu-time:     0 d,  0 h,  0 min,  1.143 sec
 * ratio c/w:     0.980 speedup
 SCF:
 * wall-time:     0 d,  0 h,  0 min,  0.037 sec
 *  cpu-time:     0 d,  0 h,  0 min,  0.037 sec
 * ratio c/w:     1.000 speedup
 ANC optimizer:
 * wall-time:     0 d,  0 h,  0 min,  1.098 sec
 *  cpu-time:     0 d,  0 h,  0 min,  1.094 sec
 * ratio c/w:     0.996 speedup

