72
 energy: 41.714998215711 xtb: 6.6.1 (8d0f1dd)
N           -2.13853179605754        2.62018947452837        2.60497812023214
C           -1.98993677089587        2.34880828316286        1.38535425093124
C           -3.05014632998534        2.10961417939678        0.36478510153841
C           -3.61074328633381        0.70796095944004        0.44974251543443
C           -4.58624438176823        0.31147897117213       -0.46798598029618
C           -5.14717369728557       -0.94985789400900       -0.42078499107219
O           -6.11605139337122       -1.41060509878693       -1.26676121698189
C           -6.64233359559585       -0.53005993597754       -2.22634839500309
C           -4.71366987604755       -1.86593770081709        0.56315704715569
O           -5.32086151069673       -3.08922252882145        0.53799415731288
C           -4.95309393153261       -4.02347976539406        1.51972009287852
C           -3.73537966845067       -1.47109650849859        1.45827382932922
C           -3.18629529686229       -0.19652565101789        1.39913968113010
C           -2.46421708478819        2.28552671533533       -1.04304487646087
C           -1.67379610317262        1.08774401548774       -1.58632647588065
C           -0.38000767527230        0.77551580855320       -0.91016763092118
N            0.10110856485688       -0.36340152172199       -0.66745127066767
C            2.93341053946458       -0.28137424914066       -1.05069766379934
C            3.93237353530711       -0.71517074824482       -1.98244370507806
C            5.14876104389508       -0.49213272543645       -1.13435340190127
C            5.81258289777538        0.70808255954735       -1.19799275981025
C            7.05297473910978        0.82059453071184       -0.60630605286072
C            7.58671284521464       -0.23439710967142        0.10726097231436
O            8.82179406328354       -0.25478443846104        0.67902058404468
C            9.63102204424298        0.88050099036090        0.54706515722664
C            6.82823472103681       -1.41212029295939        0.28295905440057
O            7.44048481835967       -2.39174886005268        1.00200705587197
C            6.75993320480986       -3.60455599113857        1.20479650840023
C            5.58865625801720       -1.51540724360533       -0.30143134886377
C           -0.65835178852847       -1.57871209654149       -0.89174531443404
C           -4.18967137212955        3.13590384338606        0.58384122041996
C           -4.88839666364588        2.85576615231345        1.90877502402910
C           -3.68770405395004        4.57914021732624        0.56401911075091
H           -4.92165616425924        1.00854003541468       -1.21992883231635
H           -7.09779007247801        0.35411275033145       -1.76484022489406
H           -7.41128438520614       -1.09184448072736       -2.75537010640427
H           -5.87950761134919       -0.20941885722489       -2.94242480005501
H           -5.16863180083576       -3.65248213643576        2.52811799092974
H           -5.55790194617634       -4.90911341676498        1.32831378885637
H           -3.89176974824788       -4.28584690320594        1.45019683248583
H           -3.39569708301121       -2.14262757466620        2.22882533360565
H           -2.44143517976156        0.08958680889868        2.12232620654341
H           -3.29162831035800        2.45605239333373       -1.74831513899122
H           -1.83350751173915        3.17770558324613       -1.03345235535729
H           -2.33468337999656        0.21549679000458       -1.61012667059091
H           -1.40283570709543        1.36020923024208       -2.64318492514469
H           -1.02071258041811        2.42045176780060        0.90723427848576
H            0.24770174155686        1.63482197647286       -0.71089305459699
H            2.72596229967145       -0.88141010231932       -0.17059243187621
H            2.83953377749581        0.77581294202591       -0.90064016475557
H            3.92351643521930       -0.06759579199592       -2.83763918182651
H            3.74009495585104       -1.74976044786304       -2.19536170622710
H            5.39657882799299        1.53318042624542       -1.75454471867086
H            7.61515471818770        1.72519790397438       -0.75222842030410
H            9.17304789772948        1.76534093250791        1.00527956464353
H            9.85215854602471        1.09820870603154       -0.50496347793618
H           10.55193300730436        0.63434393762335        1.07533159365379
H            7.45111599005600       -4.22084075692753        1.77896102303269
H            5.83644951465806       -3.46762701004110        1.77801574969762
H            6.52607799210360       -4.10819044912865        0.25958491944606
H            4.98418087437494       -2.40394220983587       -0.17467132972999
H           -0.56425225868042       -1.89888458267565       -1.93501678270637
H           -1.71367301049107       -1.43512141656321       -0.65616543978713
H           -0.25007040504192       -2.37619193595230       -0.26032200535510
H           -4.91502184183385        3.01749058826607       -0.23152172083540
H           -4.16649361625063        2.91657370770109        2.71388600073358
H           -5.32293605775636        1.85938720219658        1.91269003401146
H           -5.67848986513591        3.58694484666687        2.07647714569386
H           -2.96678385387053        4.73428940645128        1.36078980958155
H           -3.23047614581665        4.83676262723521       -0.38834337701435
H           -4.52740718333315        5.25295053993691        0.73071830615918
H           -1.23938263714305        2.74727407024605        3.07696024670342
