72
 energy: 41.212013325934 xtb: 6.6.1 (8d0f1dd)
N           -1.97420973131270        2.79926761742389        2.51200956567118
C           -1.87645735382928        2.28092402485889        1.36769230763738
C           -2.95341132034098        2.09654288512177        0.34585064951310
C           -3.51813593420781        0.69150092499707        0.41375632240605
C           -4.49762064650633        0.29302045499854       -0.49971403093973
C           -5.05516258103364       -0.97107167996237       -0.45387844203917
O           -6.02413270190175       -1.43408906148457       -1.29763509128636
C           -6.56499343985127       -0.55087754715955       -2.24747746262875
C           -4.61648442847469       -1.88917725861186        0.52626991356995
O           -5.21929450232081       -3.11400972573780        0.49867329355928
C           -4.86208301210304       -4.04474830466681        1.48772891942561
C           -3.63822786268664       -1.49244628130978        1.42047711705364
C           -3.09322981289084       -0.21558960029712        1.36222991495463
C           -2.34856296955187        2.28872199133932       -1.05486906874081
C           -1.53115003413564        1.10315104378363       -1.61656364709330
C           -0.19581746519964        0.80170454589449       -0.97874645024532
N            0.37070685702836       -0.30371607028931       -0.74339318871854
C            2.52417258975604       -0.28418762186365       -0.86909687102512
C            3.59373604017110       -0.67557315982224       -1.79038377355369
C            4.89205741858051       -0.48036401312886       -1.05439366021189
C            5.58056857564531        0.70625736906379       -1.15655847273197
C            6.84395000444086        0.82337270653120       -0.60375704793375
C            7.40317717133323       -0.22864275487708        0.09421152847008
O            8.65289245844505       -0.23919653417937        0.63759885671411
C            9.45646710974494        0.89873572628051        0.47694322157358
C            6.65478009045608       -1.41043041950289        0.28045367117698
O            7.28913358886056       -2.38987484101706        0.98586194292122
C            6.62269140625390       -3.60758316399763        1.19247971475269
C            5.39434479787468       -1.51263254681706       -0.26896291488437
C           -0.40171937731694       -1.52782950850294       -0.88700857214244
C           -4.09334468068764        3.11697387493589        0.58210986851346
C           -4.76975504820075        2.83143910259320        1.91986536124012
C           -3.59870621774720        4.56183234190867        0.55598329122795
H           -4.83988124873671        0.99024092611948       -1.24832642188745
H           -7.01948676052689        0.32898242584197       -1.77724120813769
H           -7.33574188707778       -1.11315559093162       -2.77312730927846
H           -5.80974073936253       -0.22331433113427       -2.96817530882258
H           -5.07843503292905       -3.66724635183185        2.49363285362700
H           -5.47166277158831       -4.92811894461794        1.30019632255182
H           -3.80202929396332       -4.31308226192608        1.42183877503156
H           -3.29521833131692       -2.16538411580356        2.18838562641815
H           -2.34857829012973        0.07201628202395        2.08618246080374
H           -3.18573608467432        2.45118057552789       -1.74641392761779
H           -1.74264219854249        3.19803673798576       -1.04119533920673
H           -2.17506680274466        0.21902496778419       -1.59507533899942
H           -1.28581015025440        1.38198678414161       -2.68096978533404
H           -0.91936741392318        2.04990941621710        0.95925182804539
H            0.41222043557310        1.71999415482539       -0.88749555092754
H            2.53943829684532       -0.85805321456955        0.08345859198113
H            2.58438758091204        0.76554319697759       -0.63575769133496
H            3.55304700060261       -0.03169427739625       -2.65781467972034
H            3.40651680068666       -1.71184721448293       -2.02870898474114
H            5.15527864047059        1.53598059274145       -1.70016488644021
H            7.39853470288384        1.73452127864558       -0.75304746235735
H            9.01074314062089        1.78272002812709        0.94708758400542
H            9.64972353433996        1.11352556804945       -0.58068048655862
H           10.39601997998204        0.66434518351557        0.97566061890224
H            7.32613411737442       -4.22955798524316        1.74680496010776
H            5.71144687763708       -3.47570866230366        1.78507314791632
H            6.37053215963325       -4.10002421571250        0.24640275762033
H            4.80178365431622       -2.40636911440245       -0.13104480291524
H           -0.40791754712220       -1.87917001499271       -1.90897719481381
H           -1.43342382074428       -1.32095437990316       -0.59914205224046
H            0.02050339976849       -2.32200188664609       -0.25940474391317
H           -4.83194461507762        2.99556640119645       -0.21966949620453
H           -4.03824827685326        2.91562681588042        2.71220420976367
H           -5.18656990823229        1.82757278570305        1.93723656837736
H           -5.56968308880262        3.54776520742252        2.09824216547025
H           -2.85370468559645        4.70750336082086        1.33030730868381
H           -3.17279034649206        4.82520853265361       -0.40894034938936
H           -4.43158207249856        5.23511481360246        0.75436309993220
H           -1.05860668326721        2.80193569251071        2.97420543083878
