72
 energy: -99.240149135404 gnorm: 0.009809093096 xtb: 6.6.1 (8d0f1dd)
N           -2.12320512689992        2.77058943863913        2.23861017111106
C           -1.92485971542441        2.11107257773428        1.19256457864535
C           -3.03891428892469        1.75451301589415        0.21966260482213
C           -3.41881690225434        0.27983637293196        0.38428998256060
C           -4.44704624954915       -0.25085828366546       -0.45500513434806
C           -5.33730228781261        0.48150103721347       -1.14961730251389
O           -6.25376934816942       -0.06318915367889       -1.96218479805510
C           -7.21973270583046        0.81298983410666       -2.50635548559158
C           -3.62366372730223       -2.73336726956567        0.69701352437117
O           -3.92281414455024       -3.99263614884659        0.81891799143092
C           -3.64769296255505       -4.69801033583447        2.03390619919820
C           -2.88074247066138       -1.91246841287480        1.47184978182397
C           -2.73805479679757       -0.51186849014032        1.26830975369929
C           -2.47045233466093        1.97074149283907       -1.21174877068183
C           -1.50661160033531        0.87422211041113       -1.69273671815456
C           -0.16802886102387        0.93413338974000       -1.06457075623164
N            0.53262469654907       -0.12092151676542       -0.65583307950698
C            1.90564454222404        0.03284080548617       -0.24073538950592
C            2.89336026064789       -0.33733994807746       -1.36439550801886
C            4.30251505887876       -0.12406283625332       -0.88863149173750
C            4.92250255358609        1.10411601133411       -1.04087948571971
C            6.20916967888708        1.31282020487429       -0.56736105711225
C            6.89891332925612        0.29511919575667        0.07399822487920
O            8.14791567559554        0.38490399079168        0.57323540519605
C            8.85433157507143        1.59568015505875        0.43540522382107
C            6.26975156523550       -0.96857383626359        0.23702659720498
O            7.01220653694937       -1.90294214623313        0.86819806243352
C            6.48320613842790       -3.19469569141553        1.04508002072500
C            4.98367281030003       -1.15353425643066       -0.24263002455389
C            0.01670616677651       -1.46525646492037       -0.74878866884725
C           -4.21129129687221        2.64733853342589        0.50081088360283
C           -5.04041864677915        2.34328551913235        1.68160301207427
C           -4.27835469109541        4.00677791457147       -0.08356257149791
H           -4.50305070191203       -1.34201077310521       -0.46705828487652
H           -6.76653815205450        1.75398673004488       -2.83988845563404
H           -7.99949480608388        1.03266469952366       -1.77011493729143
H           -7.66560759184013        0.30312201366975       -3.35996143725016
H           -4.10543495025312       -4.18762562287672        2.88387747536625
H           -4.07179048698949       -5.69411133665807        1.91630563489547
H           -2.56798388491406       -4.76905812250927        2.18899119676656
H           -2.25659423337770       -2.33143919554350        2.26102106307160
H           -2.01639382538080       -0.03010661718768        1.91687699729203
H           -3.30569510909211        1.98466184900267       -1.90989230397006
H           -1.96853082486370        2.93843095459136       -1.25489401056923
H           -1.97174710562464       -0.10049854919115       -1.55763834437447
H           -1.37442100953710        1.02672339778909       -2.77281940241359
H           -0.94188092860732        1.75102947904367        0.84677045000937
H            0.34222820447720        1.88554313791222       -1.05393974629241
H            2.09030851013479       -0.60479624659642        0.62802078434929
H            2.08095337415433        1.06948571494753        0.05452160072076
H            2.69039843520864        0.29256722133668       -2.23214257634522
H            2.74593435299991       -1.37909207436314       -1.65151925634718
H            4.40961560398197        1.91024229421464       -1.54339474589607
H            6.66858455322925        2.27741478705175       -0.70770929990830
H            8.34902840058240        2.41615068033013        0.95437901632561
H            8.99494430551213        1.86020935665114       -0.61699309848523
H            9.82469095117941        1.42129132024815        0.89618265832829
H            7.26292221792045       -3.76335694100270        1.54801161154806
H            5.58621950529481       -3.17929986403811        1.67296825628034
H            6.25122553859237       -3.66893594005430        0.08625549438766
H            4.49889916687829       -2.11079024078192       -0.13042776024711
H           -0.11774625990617       -1.76600132054904       -1.79016388732367
H           -0.94490468330683       -1.54456452716154       -0.23657696046099
H            0.71688191773760       -2.14974876805319       -0.27707047599742
H           -5.34869526954062        1.56911642281383       -1.05161064429883
H           -4.46899092494263        2.61853990726994        2.57675223327943
H           -5.26148721960828        1.28060402250091        1.76225292221947
H           -5.96516957714846        2.91483105492110        1.68125072594036
H           -3.49158633951566        4.63016869568999        0.35590558121919
H           -4.12522811013854        4.01669744647123       -1.16179286420197
H           -5.23239633610387        4.47690900743489        0.14119898161840
H           -1.31569954114990        2.97242866001440        2.81988487576833
