25
 energy: -43.826753857454 gnorm: 0.107764758904 xtb: 6.6.1 (8d0f1dd)
C            3.24297314476580        1.21037614577378        0.05312336535121
N            2.29146547882955        0.16149863605195       -0.01403545390291
C            2.52313099975976       -1.20669873568857        0.09870887855637
N            1.40129658360233       -1.95397871439562        0.03293422193168
C            0.34255142383519       -1.12603477946552        0.02293463759283
C            0.85597057921053        0.17962417323309        0.04420624792973
C            0.10324915382644        1.37983976156096        0.02491909878897
O            0.52196287466377        2.52977432584566        0.04837923177177
N           -1.26637137304960        1.04487383671832       -0.00817300369407
C           -2.20037210855473        2.16937465672510       -0.04345968615338
C           -1.84041207046602       -0.20783913512488       -0.06315475546389
O           -3.02317061946636       -0.37724258552492       -0.10411226726406
N           -0.98954030391799       -1.36010144778605       -0.02804623215435
C           -1.46487922094947       -2.70227456781606       -0.08518057167283
H            3.70624882949909        1.26885264510805        1.04541819172569
H            3.97692731423954        1.04024950585339       -0.74301784639749
H            2.74366676323141        2.14941639264019       -0.11295050545452
H            3.50411279342782       -1.60571971409914        0.13779993722246
H           -1.63614811906856        3.09465647983881       -0.01570564970249
H           -2.80382021920656        2.12393907726080       -0.95228984242316
H           -2.86376668751583        2.11247036513553        0.81789754590685
H           -1.17839053426894       -3.24406471825069        0.81394571823276
H           -1.13787308495332       -3.21916143034030       -0.96820232782742
H           -2.54936542178254       -2.60241651831777       -0.10283424162135
H            1.36372687493909       -2.95996769785487        0.02510344865963
25
 energy: -43.833694849189 gnorm: 0.041522643273 xtb: 6.6.1 (8d0f1dd)
C            3.23498658957071        1.19566778111645        0.05800374320257
N            2.29095801216093        0.13289077289570       -0.00593202422732
C            2.56294374378922       -1.22326141003012        0.09070060304330
N            1.40948673896612       -1.94505620128452        0.03934666086733
C            0.36513649503390       -1.09293799246330        0.02123421970166
C            0.87517745367912        0.20194191955604        0.03698666748883
C            0.09798124094089        1.37719031033832        0.02062019463208
O            0.49621583850852        2.54037352418627        0.04021327631931
N           -1.28185818533698        1.04065775717296       -0.01184866710040
C           -2.21583981629274        2.15792725743468       -0.04340484594537
C           -1.84541096792552       -0.20530232813319       -0.05823185931730
O           -3.04007729742575       -0.38677187331711       -0.10821075148604
N           -0.97532833707356       -1.33038378216188       -0.02663781978659
C           -1.47672599693441       -2.67745167657795       -0.07852728618366
H            3.71756546263001        1.25275456074759        1.04018850229719
H            3.98749209137640        1.04430511087228       -0.72122421936304
H            2.71930717293126        2.13613784815525       -0.11527424938795
H            3.54402118740183       -1.63330289259618        0.12027612744532
H           -1.62770483746813        3.07249023076166       -0.01678053067600
H           -2.81440788243482        2.12073244639134       -0.95379818107488
H           -2.87784044631361        2.11106157028845        0.82037398752349
H           -1.18014671440339       -3.23402721090271        0.81377790696515
H           -1.13528290395038       -3.20072613794604       -0.96898240816260
H           -2.56520472987870       -2.60496554344597       -0.10160242505948
H            1.35772913907949       -2.95049808397678        0.03294151822246
25
 energy: -43.834399046554 gnorm: 0.017971405546 xtb: 6.6.1 (8d0f1dd)
C            3.22117126021664        1.19975471656590        0.04881080472326
N            2.27284981267692        0.12752981798445        0.00082799612046
C            2.55903920570206       -1.22050852335388        0.10127611476909
N            1.39965572674480       -1.94647367946218        0.03678957362623
C            0.36365732133333       -1.08886025695434        0.01544333256130
C            0.87528614600823        0.20389817056671        0.03640916651522
C            0.10378532128072        1.36961991704683        0.02968690047358
O            0.50701480822678        2.53496102829023        0.05632112754113
N           -1.28062090674112        1.03811213287563       -0.01073478231143
C           -2.20127203161244        2.16461546262975       -0.04149906367167
C           -1.84029316158716       -0.20757534166319       -0.05943614887472
O           -3.03979178748313       -0.38446344127420       -0.10902563540676
N           -0.97551633102363       -1.33291069772297       -0.03342695749726
C           -1.47819853778832       -2.68886092028972       -0.07984645618368
H            3.70994159111574        1.26814472258989        1.02823923140285
H            3.97000540593448        1.04450715326205       -0.73457369248751
H            2.71982337017108        2.15044618889719       -0.12800902931691
H            3.53406975339268       -1.62244620095179        0.15323318900889
H           -1.61930331842334        3.08671132506457       -0.01259225378181
H           -2.79659171839472        2.13035043029331       -0.95213020744185
H           -2.86231239627945        2.11746450333978        0.82100760199282
H           -1.17764656578898       -3.24940644481011        0.81156216204010
H           -1.13311544983418       -3.22377114482777       -0.97081305817156
H           -2.56301361774400       -2.61831153871107       -0.10658597895709
H            1.35454915052739       -2.95308142230384        0.02327420326537
25
 energy: -43.834644691600 gnorm: 0.013674193440 xtb: 6.6.1 (8d0f1dd)
C            3.23346617101773        1.19592528946080        0.05915830740525
N            2.27160979494680        0.13117247095511        0.00134660653462
C            2.55557904553251       -1.21690641329674        0.08570027617773
N            1.39508735611594       -1.94681242970333        0.03450972414599
C            0.36262323091153       -1.08843647198153        0.01713970081622
C            0.87740368078850        0.20631954221351        0.03175211562484
C            0.10468130136835        1.37086932363652        0.02177399525714
O            0.50839261609506        2.53773644559610        0.03945012218768
N           -1.28159253155187        1.03924365740406       -0.01403621837225
C           -2.20994090642942        2.15963405246544       -0.04582393496554
C           -1.83624443282974       -0.20810942359727       -0.05561963958385
O           -3.03540739377603       -0.38404635176064       -0.10114802691829
N           -0.97463375695135       -1.33347118039974       -0.02822672443255
C           -1.47797590051896       -2.68729787949728       -0.07447013925437
H            3.71394908033369        1.25101731308262        1.04424513979664
H            3.98264582617475        1.04145951765961       -0.72619055258768
H            2.74280231357718        2.15251713577900       -0.10578055286928
H            3.52691852055226       -1.61792793459682        0.12521230581600
H           -1.64117446088663        3.08980925845150       -0.02115501210838
H           -2.81084869658893        2.11630688066633       -0.95263791811534
H           -2.86931088554253        2.10842294972753        0.81763899284812
H           -1.17699322712090       -3.24487257059339        0.81763928664077
H           -1.13603904892097       -3.21789932753038       -0.96895517283332
H           -2.55890960515169       -2.60128666986211       -0.09991109125358
H            1.35708495948509       -2.95392122719767        0.02259654998147
25
 energy: -43.834902568255 gnorm: 0.008010258933 xtb: 6.6.1 (8d0f1dd)
C            3.23340848999220        1.19760087528563        0.05155885552282
N            2.27621694268444        0.13095649269211        0.00166883222547
C            2.55803642416818       -1.21883427833958        0.09120899424673
N            1.39794366556986       -1.94903099049426        0.04504841142263
C            0.36265940276651       -1.09283056251847        0.02299552653143
C            0.87815000605538        0.20292762282257        0.03618328470839
C            0.10197269253403        1.37030126721355        0.02580757459038
O            0.50264451458384        2.53754482607031        0.04551166265022
N           -1.28318461559989        1.03802498455496       -0.01196006615419
C           -2.20987606536632        2.15914863988073       -0.04177091299409
C           -1.83797135132348       -0.20921450405526       -0.05965701945422
O           -3.03579705844278       -0.38500252504047       -0.11064202207825
N           -0.97521473721860       -1.33479578291725       -0.02796032454126
C           -1.47797507065482       -2.68466542649975       -0.08016696720763
H            3.71122481491163        1.26244824788783        1.03696244079301
H            3.98234896656044        1.04143025373842       -0.73285948885316
H            2.72437955308354        2.14143537749008       -0.12173637122188
H            3.53099958002989       -1.62349290169563        0.12906929302542
H           -1.62647716408105        3.07869105906481       -0.01169187222055
H           -2.80876139584590        2.12549478076419       -0.95155781222313
H           -2.87321350532949        2.11173336370994        0.82009144678803
H           -1.17912125816885       -3.23918018317249        0.81227777501160
H           -1.13243400473951       -3.20625822285235       -0.97470708154440
H           -2.55972176857717       -2.59937783628333       -0.10724137620462
H            1.36293599303831       -2.95560862022507        0.03777535711928
25
 energy: -43.834929796048 gnorm: 0.007056102591 xtb: 6.6.1 (8d0f1dd)
C            3.23059106304620        1.19940672700485        0.05574409509179
N            2.27623218011977        0.13098949558228        0.00216236983310
C            2.55896296261925       -1.21925589083143        0.09078669736963
N            1.39775363900104       -1.94740612502884        0.03182239092754
C            0.36202956738282       -1.09136573531737        0.01541374651584
C            0.87789395233495        0.20366437736882        0.03288173644225
C            0.10186526524711        1.37113863653234        0.02470828414702
O            0.50294141818827        2.53801736670225        0.04790541364619
N           -1.28330622417418        1.03929035003064       -0.01217792938589
C           -2.20703031956830        2.16207787986116       -0.04423298379003
C           -1.83973261566306       -0.20802301665092       -0.05817737916821
O           -3.03838247633158       -0.38309210975778       -0.10476236867999
N           -0.97657076574042       -1.33436818029161       -0.03086682957104
C           -1.47813573869561       -2.68711693487510       -0.07598827195023
H            3.71202432839902        1.25882778010679        1.03907550784203
H            3.97861915100804        1.04570009828601       -0.72818432943473
H            2.72047662363704        2.14385232350975       -0.11503292828725
H            3.53264206784413       -1.62578457390089        0.13955369987077
H           -1.62222855772727        3.08104555118219       -0.01896119178741
H           -2.80557269978585        2.12522834535266       -0.95399032410865
H           -2.86841931415004        2.11782921964869        0.81932163181987
H           -1.17484007297950       -3.23987638355573        0.81607935738795
H           -1.13510891814193       -3.21518916867771       -0.96728776019242
H           -2.56175393286232       -2.61264790377245       -0.09850051232794
H            1.36222246762279       -2.95349617142739        0.01691601772786
25
 energy: -43.835016332031 gnorm: 0.004222759562 xtb: 6.6.1 (8d0f1dd)
C            3.23232375604370        1.19855012276153        0.05276765539717
N            2.27470817765213        0.13116317053076        0.00235510956353
C            2.55850178764949       -1.21816986167135        0.09193541415937
N            1.39616434003921       -1.94650971672613        0.03925333556803
C            0.36224198963586       -1.08934567790641        0.01889497550856
C            0.87837058512958        0.20528546845996        0.03429293096813
C            0.10328817369348        1.37162446849828        0.02500711112019
O            0.50592544307654        2.53829617878057        0.04596743118050
N           -1.28250641535566        1.04014463461217       -0.01195780965660
C           -2.20878168234307        2.16090195033712       -0.04277038242449
C           -1.83807915450888       -0.20749583023992       -0.05767948400671
O           -3.03712115177898       -0.38289608097486       -0.10582258225601
N           -0.97564069787249       -1.33340559033180       -0.02995620041223
C           -1.47833362868569       -2.68685505538076       -0.07899434811749
H            3.71528097036411        1.25736845857506        1.03535427575734
H            3.97928407674962        1.04042079093428       -0.73109570815923
H            2.73119196332344        2.14812234595166       -0.11828560834127
H            3.53151753920736       -1.62363969861504        0.13788984694889
H           -1.63328963303767        3.08594914525940       -0.01565794405075
H           -2.80742501047544        2.12117442337933       -0.95191096275776
H           -2.86952204928772        2.11001963873290        0.82037048955794
H           -1.17996050176197       -3.24459913868865        0.81235093421920
H           -1.13402932242862       -3.21542323047519       -0.97079290077207
H           -2.56123643586506       -2.60841725554003       -0.10607673043694
H            1.36029993146714       -2.95281770318165        0.02876929138073
25
 energy: -43.835025441744 gnorm: 0.003543989613 xtb: 6.6.1 (8d0f1dd)
C            3.23043736197735        1.19903338629630        0.05444026074978
N            2.27392811767920        0.13062426201449        0.00182461158816
C            2.55810340982972       -1.21881663889332        0.08791788856420
N            1.39628745554859       -1.94854605066085        0.03976993928427
C            0.36237358478430       -1.09156012318256        0.02000261866536
C            0.87804344000190        0.20324016915537        0.03436201420760
C            0.10283763906021        1.36959982033091        0.02521491504696
O            0.50525837558232        2.53633306949491        0.04529844850090
N           -1.28263093778374        1.03835431302359       -0.01261082835105
C           -2.20713600299014        2.16063241873234       -0.04357117862571
C           -1.83772456410472       -0.20927530144999       -0.05863501549999
O           -3.03638173851981       -0.38501391131568       -0.10809154185274
N           -0.97511853649604       -1.33462444242498       -0.02864233931562
C           -1.47780164959604       -2.68645098402558       -0.07725675316337
H            3.70837374204398        1.26037751150059        1.03953113325138
H            3.97979011099999        1.04397896590721       -0.72866204744374
H            2.72600588802346        2.14628492508736       -0.11675125644948
H            3.53093418959573       -1.62308589085221        0.12797869960700
H           -1.62666236443519        3.08244954509676       -0.01487018396893
H           -2.80574355868883        2.12515861129732       -0.95308179770595
H           -2.86947275017941        2.11295213456623        0.81862475545288
H           -1.17756147387630       -3.24210493471850        0.81477996671385
H           -1.13476803366603       -3.21258038827771       -0.97086462117232
H           -2.55995281468346       -2.60239296387434       -0.10243006448527
H            1.36175416052337       -2.95512154574642        0.02993051633988
25
 energy: -43.835052330655 gnorm: 0.001966821611 xtb: 6.6.1 (8d0f1dd)
C            3.23278605027853        1.19792837267862        0.05366127711734
N            2.27515539517873        0.13095272194068        0.00250402502395
C            2.55803127507110       -1.21869600752006        0.09125587392201
N            1.39634978183200       -1.94772689650761        0.03781150144626
C            0.36212337082782       -1.09083938306222        0.01866790808610
C            0.87812401401208        0.20408988219741        0.03416829090091
C            0.10190346846314        1.37086621730172        0.02480895734062
O            0.50340673730557        2.53782974211247        0.04598764902560
N           -1.28341292745058        1.03905617250558       -0.01216082009476
C           -2.20897714909669        2.16046029928071       -0.04307080426161
C           -1.83862602139947       -0.20859192784240       -0.05828210643667
O           -3.03720998045561       -0.38422139417648       -0.10632055242319
N           -0.97559918251740       -1.33397047913996       -0.02985927427406
C           -1.47741374313520       -2.68602410306821       -0.07824925671982
H            3.71336540413500        1.25892203451292        1.03756260229320
H            3.98039291685228        1.04176279414905       -0.73073227745806
H            2.72703320917288        2.14431383352952       -0.11750769557475
H            3.53084573588097       -1.62388300967986        0.13684709785192
H           -1.62778543342985        3.08169304737807       -0.01649730545324
H           -2.80860833837031        2.12359460474641       -0.95201700911935
H           -2.87058298426099        2.11396620229066        0.82001121299306
H           -1.17635596676132       -3.24037820298147        0.81399536679349
H           -1.13342373953905       -3.21185822960508       -0.97115566128790
H           -2.56014668827873       -2.60565338998414       -0.10319577486848
H            1.36179784631547       -2.95414694397511        0.02597491511547
25
 energy: -43.835037491129 gnorm: 0.002988096941 xtb: 6.6.1 (8d0f1dd)
C            3.23115745607331        1.19966550192108        0.05371457012146
N            2.27517974511282        0.13121595182026        0.00187065622469
C            2.55915695961054       -1.21850538627901        0.08959640839792
N            1.39676009897756       -1.94722847182706        0.03845922258952
C            0.36230893775138       -1.09050639232176        0.01891483107842
C            0.87858320049657        0.20422829380949        0.03419852784623
C            0.10353571606748        1.37124211320745        0.02542749644237
O            0.50631223862780        2.53778663725420        0.04663992623387
N           -1.28182558985832        1.03989758672457       -0.01206410407457
C           -2.20735808410288        2.16107141023499       -0.04339441751230
C           -1.83785818576374       -0.20769513636512       -0.05818929772632
O           -3.03680111163277       -0.38232476104120       -0.10658131466575
N           -0.97584633532122       -1.33412525979126       -0.02946930757494
C           -1.47928244840659       -2.68712621880796       -0.07771041378467
H            3.71282374690225        1.25857650806045        1.03696896884017
H            3.97884362160524        1.04426423783918       -0.73008804159722
H            2.72604855385174        2.14712597471007       -0.11656297703792
H            3.53248576966654       -1.62392104855086        0.13366689648666
H           -1.62974730701666        3.08466971544481       -0.01500809418020
H           -2.80474374049565        2.12272776366413       -0.95362033458591
H           -2.86940991340688        2.11079215515315        0.81895625879451
H           -1.18136731924081       -3.24393123544432        0.81410394981945
H           -1.13533293766687       -3.21582749736477       -0.96905215141589
H           -2.56240109937363       -2.60912566352878       -0.10453139535741
H            1.36195107817319       -2.95350082144050        0.02796227657588
25
 energy: -43.786556832728 gnorm: 0.204588926808 xtb: 6.6.1 (8d0f1dd)
C            3.24868809936033        1.25394499382207        0.02130727996841
N            2.28088312769622        0.23973372143401       -0.07750313687007
C            2.45246440821466       -1.18821925636353        0.14707456962486
N            1.36526721043980       -1.97418371739855        0.06541579356559
C            0.29277209186151       -1.19498993180803        0.04460158342164
C            0.78999581704982        0.11958543373571        0.04699771667976
C            0.11083457875522        1.35512417656177        0.05439016712895
O            0.54544866944011        2.51733815362049        0.10027530797950
N           -1.28320335359780        1.03273586750367        0.01579305920158
C           -2.18182554837421        2.18368245395313       -0.03689035510889
C           -1.85930401489265       -0.20523171100186       -0.08416286850834
O           -3.04401171587824       -0.37633920689597       -0.13916611997760
N           -1.05068521576413       -1.41995146313561       -0.01639912536683
C           -1.46059513635901       -2.75828102361958       -0.10976452374250
H            3.69955120093866        1.32252544678604        1.02519388920550
H            3.94572982482441        1.04656215189514       -0.81231128369762
H            2.78839917377349        2.20088135334244       -0.13477986387949
H            3.44697254801888       -1.57187493672991        0.23501509453341
H           -1.60123103876504        3.09612203412636       -0.00584552671009
H           -2.78334623638849        2.15358703529584       -0.95136876365830
H           -2.85112832724686        2.14749669656415        0.82128594421495
H           -1.18622645873662       -3.29226658533506        0.79546345116552
H           -1.12997264221612       -3.26314438578287       -0.97960948086243
H           -2.54357053280458       -2.64825975935406       -0.13108389479393
H            1.35094819781331       -2.97705738587172        0.06437729633599
25
 energy: -43.815919469021 gnorm: 0.073719995106 xtb: 6.6.1 (8d0f1dd)
C            3.22413000145533        1.21922186269498        0.02460910371933
N            2.26694306394183        0.16886474601603       -0.06110494592329
C            2.51831751152331       -1.20549896979683        0.13685851222544
N            1.38893050309061       -1.95596134011687        0.07336834579409
C            0.32637171196284       -1.13600536666296        0.04140421659313
C            0.81894187032800        0.16768798322380        0.04029261341306
C            0.09272150897974        1.35937375858498        0.04871378806198
O            0.50395929055191        2.51506142793950        0.09180603376559
N           -1.30089702627454        1.03422418675512        0.01023893286123
C           -2.20315419934814        2.17445841084170       -0.03646806933766
C           -1.86655039187568       -0.20384143035053       -0.07278532683726
O           -3.06035111881931       -0.38459239940632       -0.14647746527827
N           -1.01903420037236       -1.37071443477884       -0.01587519380450
C           -1.47791436246755       -2.72490588937208       -0.10013150579542
H            3.70713101601261        1.29166332053115        1.00987263572049
H            3.95754384418533        1.04764515257813       -0.77631838317887
H            2.75113157012803        2.17993234380922       -0.14469359477133
H            3.50086091828924       -1.60203584906144        0.21820257869435
H           -1.59518828122472        3.07621791796015       -0.00732893585731
H           -2.79442895094179        2.15118697751292       -0.95255130937547
H           -2.86855649834220        2.14843656593086        0.82460170274893
H           -1.18923188082117       -3.28336220338967        0.79484490194271
H           -1.12687395355405       -3.24356150965849       -0.98437320221133
H           -2.56740242404274       -2.66054781631480       -0.13002891566070
H            1.35545520479815       -2.96342729012565        0.07162969234065
25
 energy: -43.818382135390 gnorm: 0.027871720057 xtb: 6.6.1 (8d0f1dd)
C            3.20810492874609        1.22473241526743        0.01845919133999
N            2.24314699266816        0.15121186585175       -0.04353850174036
C            2.51318223716663       -1.19816225470864        0.13688258321842
N            1.37500766773773       -1.95572051570479        0.06835863041190
C            0.32505192112619       -1.12244340440025        0.02941501232378
C            0.83295141057732        0.17663984927096        0.03390142843660
C            0.09987794345825        1.35120251130011        0.05536193328433
O            0.52138114148301        2.50410856191378        0.10587935720355
N           -1.29305768185012        1.02611336727028        0.00656219222073
C           -2.18573199791545        2.17260864994655       -0.03520195838427
C           -1.86032176805723       -0.21493903706534       -0.07436076325100
O           -3.05831130156064       -0.38522293332028       -0.14672729719043
N           -1.01345088228507       -1.36860231703253       -0.02507489646579
C           -1.48765404015077       -2.73317543502883       -0.09603149605642
H            3.70480685998385        1.30951873132013        0.99768552452438
H            3.93553064657398        1.05900836978303       -0.78840269900677
H            2.75054295007113        2.19990719120421       -0.14964653351983
H            3.48104741138540       -1.58789100728908        0.24903653408232
H           -1.58222770742936        3.08192597191243       -0.00262315483154
H           -2.77450668123504        2.15470215265459       -0.94996382244153
H           -2.84930320372447        2.14638750717462        0.82465940303291
H           -1.19058624719449       -3.29530472552536        0.79706685599336
H           -1.12653014915531       -3.26398213454836       -0.98305875998930
H           -2.57017611430700       -2.66725824558303       -0.13544681899621
H            1.34408039104987       -2.96584497931931        0.06511426565074
25
 energy: -43.818614679376 gnorm: 0.020564392024 xtb: 6.6.1 (8d0f1dd)
C            3.22887646319753        1.21705221040887        0.02672595956692
N            2.24469883741261        0.15366018854097       -0.03620506444911
C            2.51339480178857       -1.19584823231435        0.11883970491835
N            1.36976361871945       -1.95603549489964        0.07150868591509
C            0.32513226288672       -1.11783122274520        0.03562219945533
C            0.84084394881341        0.18297421473851        0.02942840041019
C            0.09400892717041        1.35580146587250        0.04820706542670
O            0.51301451316815        2.51572978853230        0.08672745417596
N           -1.29947291436193        1.02796285241674        0.00593694526068
C           -2.20345895505289        2.16843452659799       -0.03911861728125
C           -1.86043374274278       -0.21808661033562       -0.06624826238329
O           -3.05848624501332       -0.38633585723160       -0.13733070344711
N           -1.01101377743281       -1.36554793365843       -0.01718627578455
C           -1.48392950404289       -2.72905057913677       -0.09241228435391
H            3.70926050720525        1.28658572493074        1.01491454372985
H            3.95867621935175        1.04078945427831       -0.77771278337649
H            2.77961188105894        2.19496543553400       -0.13557007610443
H            3.47950267689944       -1.59176376178111        0.21451516429017
H           -1.61123733271540        3.08524831584754       -0.01278745651603
H           -2.79879383110462        2.14358497584909       -0.95027923863195
H           -2.86773841086941        2.14462505136182        0.82089045102539
H           -1.18137813800187       -3.29057013672842        0.79725487149104
H           -1.12164416980938       -3.24869867214684       -0.98570580034522
H           -2.56139320471552       -2.65231731377231       -0.13009951595270
H            1.34505029535326       -2.96580823481505        0.06839084280993
25
 energy: -43.819261492190 gnorm: 0.009438150519 xtb: 6.6.1 (8d0f1dd)
C            3.22269146487481        1.22409051347312        0.01707285356877
N            2.24843520549830        0.15564034670650       -0.03878619092962
C            2.51774521000696       -1.19912831579083        0.12681716114229
N            1.37511300467524       -1.96112390048374        0.07947340554780
C            0.32578173312503       -1.12703771286053        0.04053909425932
C            0.83968428636036        0.17487825543841        0.03442166097473
C            0.09195488129057        1.35240507294299        0.05418981205279
O            0.51019912392155        2.51440741075326        0.09704501292379
N           -1.29991794429841        1.02723685987302        0.00809517999851
C           -2.19722278864160        2.17215519984311       -0.03500792063588
C           -1.86090152235378       -0.21818357711723       -0.07339731178064
O           -3.05859508840725       -0.38357629185466       -0.15018967476707
N           -1.01301357071303       -1.36977198901565       -0.01928920934807
C           -1.48515465671879       -2.72990067745039       -0.09729456942525
H            3.69905919935393        1.30016172296995        1.00595971393659
H            3.95161340726592        1.04823684606077       -0.78732512816500
H            2.74814804615224        2.18635473600477       -0.14968349816820
H            3.48864519270027       -1.59747798062446        0.22746343001753
H           -1.58998281369261        3.07802922368301       -0.00215604406780
H           -2.78849751105222        2.15729852401901       -0.95053883945079