25
 energy: 0.000000000000 xtb: 6.6.1 (8d0f1dd)
C            3.23720132972391        1.16630909158653        0.08434468864950
N            2.29877796055224        0.07527476373246        0.03981602671198
C            2.58028186251803       -1.21425391179017        0.03006175752192
N            1.43813944744728       -1.93419254010258        0.00098261751768
C            0.39035684826767       -1.05887462812143       -0.00790371763344
C            0.93510047688824        0.21347817468824        0.01709077332874
C            0.09450143016486        1.40504290868848       -0.00410946993748
O            0.49712746915594        2.54126690785742       -0.00342325656480
N           -1.25076628431515        1.06271869620815       -0.03085477937476
C           -2.21907191394203        2.15522079838987       -0.05001256521996
C           -1.81739470187490       -0.20012724136556       -0.04692818139228
O           -2.99983858926755       -0.37846413507442       -0.07008877579474
N           -0.92618577614240       -1.30210203518959       -0.03682761236648
C           -1.46982251276835       -2.64643077634382       -0.06029819901142
H            3.71247229913541        1.21471443890471        1.06488839270555
H            4.00791460421487        1.03430799217987       -0.67357688121503
H            2.69909982127087        2.09770098766290       -0.09130154035862
H            3.56654087521359       -1.63682977417947        0.04233139674524
H           -1.67107945562430        3.09322822573871       -0.02552706696334
H           -2.82428927394145        2.09428605349656       -0.95318074103337
H           -2.87644002486466        2.07745706351925        0.81450059976605
H           -1.17061985538665       -3.19584861009707        0.83242224714061
H           -1.14560246782873       -3.17511580834413       -0.95688266944647
H           -2.55549768731684       -2.55659960601237       -0.07459039105944
H            1.38130842369251       -2.94313824728853       -0.01389874052104
25
 energy: -4.524349563382 xtb: 6.6.1 (8d0f1dd)
C            3.23127557664110        1.19900850012297        0.05386767845193
N            2.27464391651226        0.13101182323930        0.00205280946354
C            2.55849613255106       -1.21861726028135        0.08989395117910
N            1.39624707026087       -1.94749007750440        0.03871262374973
C            0.36217725161951       -1.09051594606252        0.01895461541331
C            0.87821312938117        0.20417404091231        0.03398751013897
C            0.10278568548669        1.37086543972271        0.02484511449049
O            0.50525185353149        2.53752998424916        0.04571322676383
N           -1.28257088215468        1.03944027517295       -0.01229793511973
C           -2.20772358841435        2.16105215496871       -0.04320085004151
C           -1.83818840950656       -0.20828140273066       -0.05813549424771
O           -3.03702275926712       -0.38353620153878       -0.10664053843431
N           -0.97563263499391       -1.33406842622325       -0.02951324828065
C           -1.47807157820787       -2.68682890917564       -0.07799595674816
H            3.71142946700205        1.25901384801125        1.03782275084539
H            3.97967608050531        1.04242273346411       -0.72923237405369
H            2.72724321845394        2.14667692878855       -0.11769338271889
H            3.53156096425051       -1.62381844086167        0.13374643039357
H           -1.62884672768489        3.08389726467610       -0.01569994296302
H           -2.80643621758639        2.12353910971583       -0.95257875816381
H           -2.86909888839285        2.11233024923229        0.81974768239331
H           -1.17814445478333       -3.24325133308313        0.81352105535377
H           -1.13465208788989       -3.21411142520766       -0.97050567775610
H           -2.56090691007532       -2.60714605324252       -0.10336661066232
H            1.36146784339156       -2.95385091928343        0.02820346049100
25
 energy: 0.707913125994 xtb: 6.6.1 (8d0f1dd)
C            3.22246674188294        1.22451951968807        0.02004054113222
N            2.24608018476164        0.15676784264048       -0.03898133942393
C            2.51522426312128       -1.19762771506391        0.12601087145783
N            1.37153225576166       -1.95890344265665        0.07374150880048
C            0.32418193047474       -1.12373152884961        0.03638219676411
C            0.83855075158364        0.17645450005505        0.03189496930081
C            0.09128560280408        1.35257924522194        0.05198044244395
O            0.51526714890346        2.51178212336436        0.09621055086565
N           -1.29787003858873        1.02890371683373        0.00727780528383
C           -2.19584584592400        2.17210498763872       -0.03630567369939
C           -1.86036497125452       -0.21810569443298       -0.07193093150997
O           -3.05876351288221       -0.38247412072030       -0.14476825691973
N           -1.01395727349071       -1.36859841979655       -0.02103495947999
C           -1.48488420866241       -2.73126838384562       -0.09589978876718
H            3.70439124443926        1.29728708281604        1.00634720782822
H            3.94897340283077        1.04910207735576       -0.78427454595405
H            2.75642981594125        2.19146604872449       -0.14457457694377
H            3.48467534380682       -1.59476322233000        0.23233370571227
H           -1.59336680403660        3.08098029459032       -0.00633400060736
H           -2.78803207282266        2.15186567237755       -0.95053008168464
H           -2.86072315645068        2.14757915343731        0.82386103532699
H           -1.18663519094676       -3.28918869353684        0.79555055975418
H           -1.12483745993203       -3.25170008079878       -0.98511809880703
H           -2.56491792690743       -2.65855489487282       -0.13224108656879
H            1.35399450274987       -2.96695591249569        0.06866815554488
25
 energy: 8.907774397155 xtb: 6.6.1 (8d0f1dd)
C            3.21443682370590        1.24971532621640       -0.01678449527444
N            2.22169669891222        0.17793899443387       -0.09646662319646
C            2.47510105281956       -1.18081566595937        0.11282819412283
N            1.34776314190758       -1.97193008075105        0.10567409776508
C            0.28768468572172       -1.15849117959999        0.03931795816957
C            0.80664290598521        0.14439311969360        0.00568645522907
C            0.08280610896614        1.33080993852273        0.07693767289064
O            0.52583593931097        2.48225172959775        0.14779038587376
N           -1.31147741598705        1.02077245257885        0.03009553154199
C           -2.18260982962946        2.18430974579369       -0.02831342082951
C           -1.88099552036089       -0.22311261006648       -0.08065954835365
O           -3.07739690573375       -0.37981193831869       -0.18188227601587
N           -1.04987318431460       -1.40363945259717       -0.02146292592435
C           -1.49173121958841       -2.77616295168984       -0.11494107019537
H            3.69454429394193        1.33304181342646        0.97389001683309
H            3.92041226304067        1.05790119119829       -0.83917378411083
H            2.78736700659684        2.23576792900712       -0.17313487076768
H            3.43498436512265       -1.55687339237803        0.33557304788318
H           -1.55815337625297        3.07929015973996        0.00442500170033
H           -2.76729329819105        2.17986047530511       -0.94794333029216
H           -2.85143433963608        2.18251986675401        0.82804288312423
H           -1.19648676450952       -3.33534622196415        0.77732508470678
H           -1.11503959551881       -3.29147277789676       -0.99943200301396
H           -2.56901667906688       -2.71051922664086       -0.16281302225254
H            1.35319683336253       -2.98101181436146        0.11064874439190
25
 energy: 19.144352672845 xtb: 6.6.1 (8d0f1dd)
C            3.20958577865356        1.27497511467622       -0.05635083621808
N            2.20794947978940        0.19229633509434       -0.16601385878678
C            2.44379607448812       -1.16717088348779        0.09242941069783
N            1.32676650705397       -1.98430108345322        0.13347427548720
C            0.25506291744947       -1.18926796823632        0.03628093787439
C            0.78824827278765        0.11509814680685       -0.03400860947394
C            0.07884362231284        1.30836854275907        0.10076467581824
O            0.53551292285988        2.45236612509667        0.19989281236950
N           -1.32090940284960        1.01584613787781        0.05632347578337
C           -2.16852848656873        2.19680673467395       -0.02014319829982
C           -1.89473267179759       -0.22823809530103       -0.07949536688140
O           -3.08865893869721       -0.37342649863840       -0.21839454427857
N           -1.08547040376947       -1.43275040977971       -0.01714477279525
C           -1.49810859670208       -2.81808800427307       -0.13154707137063
H            3.68484379306906        1.36737596103114        0.93961910091358
H            3.89521179469013        1.07059833895963       -0.89552031222817
H            2.81721326500759        2.27781209772583       -0.20180387115701
H            3.38395491656267       -1.51583936121871        0.43609521739202
H           -1.52436016180737        3.07863133078960        0.01393318667959
H           -2.74611376359033        2.20551081052589       -0.94514998397754
H           -2.84176089044263        2.21779982822817        0.83179601758553
H           -1.20583753955777       -3.37948668518701        0.76032577840567
H           -1.10421063052764       -3.32764532681289       -1.01183598854565
H           -2.57278013615389       -2.76152278510870       -0.19240121178292
H            1.35464778085350       -2.99432991433942        0.14878926021909
25
 energy: 31.332208374737 xtb: 6.6.1 (8d0f1dd)
C            3.20785309354043        1.30115966931186       -0.09275943121145
N            2.20272505708005        0.19916822110451       -0.22880332696404
C            2.42201204435729       -1.14620238160798        0.11732715946121
N            1.31967650685769       -2.00056188890478        0.15438050232746
C            0.24476326699244       -1.22241124262927        0.00486884675867
C            0.77681219183286        0.09022493423074       -0.02051988677674
C            0.07890455238332        1.28880122595695        0.13111982997911
O            0.54753648773299        2.42470250483457        0.25156594758207
N           -1.32237285586902        1.01383566566324        0.08046240198638
C           -2.15194203882766        2.20874981100816       -0.01223938467175
C           -1.88659640517499       -0.23633458926020       -0.09384538126416
O           -3.08053547428023       -0.36744199024051       -0.25515222810811
N           -1.09141865085324       -1.45750965455254       -0.05498214972194
C           -1.49845577615766       -2.85687108495928       -0.15178498621657
H            3.67583144329962        1.40421870208663        0.90807075337251
H            3.87025974338742        1.08425602819058       -0.94953988746886
H            2.84813560597381        2.31886680229873       -0.23188325857167
H            3.34157992922134       -1.47025763513762        0.53150882620896
H           -1.48971450778470        3.07807579087291        0.02413871338271
H           -2.72317293140823        2.23089948990385       -0.94196784038931
H           -2.82983220430133        2.25145032482001        0.83516542447516
H           -1.21178828562493       -3.41830798878257        0.74261887769633
H           -1.09514081249137       -3.36931744428416       -1.02530597529404
H           -2.57186114151578       -2.80729555658278       -0.22040518708354
H            1.36166957668851       -3.01073703667944        0.18191311718001
25
 energy: 46.523294757615 xtb: 6.6.1 (8d0f1dd)
C            3.20617830150589        1.32695860193135       -0.12774786796304
N            2.19732350342898        0.20027633040264       -0.28389538916796
C            2.39582281099498       -1.12362632365874        0.15377502431994
N            1.30920122570876       -2.01726247124606        0.18258974039748
C            0.22639057842304       -1.24664343155003        0.01842823673378
C            0.76676362137419        0.06715204545996        0.03139459110807
C            0.08015426764789        1.27416467639615        0.17064920538139
O            0.56258874322359        2.40052252226192        0.30372458760717
N           -1.31977846306001        1.01976191171789        0.10773379724405
C           -2.13419974564285        2.22490640039282       -0.00437348322064
C           -1.88521908906040       -0.22875969813542       -0.10280371456635
O           -3.07682536411966       -0.34602756899787       -0.29165316724825
N           -1.10985526342985       -1.45337680548639       -0.07945813010614
C           -1.50033578251763       -2.88414364939579       -0.16883402330105
H            3.66159216294642        1.43952167917362        0.87914307281266
H            3.84317394772232        1.10068100897844       -1.00335433828245
H            2.87775271447077        2.35812686733621       -0.26214898456243
H            3.29685169041101       -1.41908628696316        0.62104719791670
H           -1.45626405689932        3.08185003207452        0.03423739224590
H           -2.69878470693478        2.25609433981206       -0.93908375117553
H           -2.81784109933358        2.28605900427458        0.83748242131471
H           -1.21755001008685       -3.45066505452053        0.72445875263666
H           -1.08385006520217       -3.40076669310740       -1.03531683530459
H           -2.57205938141963       -2.85305475896718       -0.24940106907252
H            1.37509306410801       -3.02746449843224        0.21439385135322
25
 energy: 72.966189616858 xtb: 6.6.1 (8d0f1dd)
C            3.19580363085338        1.35899236203515       -0.15902134447330
N            2.18442202257715        0.22528624335291       -0.37714995922446
C            2.34428584558339       -1.06646556521840        0.18617812069180
N            1.31264811095890       -2.02929225336234        0.19284033455682
C            0.20345544362523       -1.27340536621601        0.07555611166718
C            0.75250998780413        0.02935352489653        0.11090104629110
C            0.09183412269480        1.24942276501773        0.22789999109134
O            0.58817973571965        2.36921675551899        0.34567342174167
N           -1.30437936232178        1.02147457787505        0.12361758203206
C           -2.10727431314048        2.24044586643860       -0.00122252124751
C           -1.89170629503211       -0.21711960151591       -0.10642810204525
O           -3.07810733972476       -0.31232604942263       -0.31976551382861
N           -1.12389766277551       -1.44500247463665       -0.10955758753817
C           -1.50102652608276       -2.91297912954117       -0.18465376254208
H            3.62744433340978        1.46312085102988        0.85564204260856
H            3.81228313110383        1.12768983970106       -1.04654025333803
H            2.91350147630999        2.40545381166400       -0.29294099275025
H            3.24115845025197       -1.34591047697358        0.67420522238384
H           -1.41904827831484        3.09057704880989        0.04029390028759
H           -2.66855842943999        2.27953566682908       -0.93900079089143
H           -2.79789263711684        2.31675718229432        0.83430303338258
H           -1.22449235059093       -3.48636783704474        0.70762327832000
H           -1.07236711569957       -3.43333063741302       -1.04709162465159
H           -2.56646807625202       -2.88454240931468       -0.27809313004522
H            1.40587372319112       -3.03987779464409        0.25509816011129
25
 energy: 109.531053102064 xtb: 6.6.1 (8d0f1dd)
C            3.26320394051826        1.40744376243673       -0.22152374241384
N            2.40299872431359        0.28248224157587       -0.65877088368838
C            2.12438275286197       -0.81945671687054        0.26801896047098
N            1.28693338298485       -2.07949312534326        0.07700009199003
C            0.13807891300966       -1.35813379908577        0.14439716277608
C            0.74546207829026       -0.12399677747760        0.39553874174072
C            0.13366561900610        1.19322473381165        0.29216599246999
O            0.61783467842880        2.30574053747611        0.39423356562724
N           -1.26445431172844        1.01305140226898        0.10992870049986
C           -2.07437655275086        2.24722812510511        0.00494382014975
C           -1.89592384008676       -0.21050180844831       -0.11918600252755
O           -3.08068116970383       -0.28040424665962       -0.33098566473344
N           -1.15253848636551       -1.45728222971174       -0.15628324107253
C           -1.52853534129501       -2.95252133812173       -0.20283845794111
H            3.62264785496983        1.49452492069355        0.82679319048612
H            3.86419058765240        1.20823965767285       -1.12385690899599
H            2.96177218613486        2.45521054388550       -0.32709958175194
H            3.03493503218353       -1.17650518790799        0.80962167397536
H           -1.38405546481491        3.09071597235905        0.05392408606473
H           -2.64317727220271        2.30590817571493       -0.92995678094040
H           -2.77302979842903        2.33723632592491        0.83875182930685
H           -1.23821396618813       -3.51965092261989        0.69022665115368
H           -1.07433752939497       -3.47413839241050       -1.05137182266999
H           -2.58927515928442       -2.94880222389087       -0.30412169702603
H            1.44386542414872       -3.06575193787841        0.24341249417291
25
 energy: 108.391101832882 xtb: 6.6.1 (8d0f1dd)
C            3.29179458113016        1.42808506587804       -0.24564553726202
N            2.45421498576911        0.29697329959036       -0.69556349936530
C            2.09261911590371       -0.77204554618757        0.24552720142547
N            1.27518242815759       -2.09222193898141        0.03768208254948
C            0.12049495246373       -1.39370145633457        0.19469444835041
C            0.71118713398238       -0.15995122227873        0.45207940510391
C            0.13651501418627        1.16231422144315        0.30364955616767
O            0.63716546253988        2.26653355705368        0.42350648208229
N           -1.25827748411469        1.01136491237646        0.09573118589399
C           -2.05529866745644        2.26041389996719        0.00718523333404
C           -1.89600713312811       -0.20572705444397       -0.10418745087685
O           -3.08254366168509       -0.27518292034756       -0.29334671436686
N           -1.16781102325601       -1.47489008606086       -0.12392741361587
C           -1.54221169921658       -2.97230185942662       -0.20953886713556
H            3.60171767963911        1.48870731240185        0.82389579030330
H            3.92383332927777        1.21004327552884       -1.13265307205692
H            3.01595596046687        2.48735783756954       -0.35365411742751
H            2.96803522205878       -1.11903994821253        0.87147667806837
H           -1.34965080715388        3.09174180014775        0.06366996735325
H           -2.62175638749100        2.33525389652873       -0.92787484733749
H           -2.75497441939619        2.36508035091684        0.84000790949759
H           -1.25404091068799       -3.56069191643343        0.67438759718841
H           -1.07065462369602       -3.50061312705751       -1.05368604196264
H           -2.59802330726697       -2.99171492894684       -0.33015205064091
H            1.46615899361093       -3.07082779226677        0.21586515153824
25
 energy: 113.824228543242 xtb: 6.6.1 (8d0f1dd)
C            3.32679149567221        1.45323941802741       -0.24693934636711
N            2.49947435438384        0.32111028094078       -0.68113653570257
C            2.06265613439448       -0.72530531624814        0.24466928810363
N            1.26977495238278       -2.09921106368553        0.00097047534862
C            0.11054807029847       -1.41332707499369        0.15438306181027
C            0.67497965585405       -0.18864020857753        0.48988573287606
C            0.13891553075890        1.13764180751126        0.31671014629988
O            0.65622986846703        2.23135900567102        0.45869229133473
N           -1.25086374848510        1.01084430996859        0.07151387406758
C           -2.03642477371702        2.27369171732214        0.00809554624985
C           -1.89032843676175       -0.20272714777731       -0.10335094860758
O           -3.08084065239037       -0.27332142799623       -0.25321027685364
N           -1.17187986984004       -1.48816933852587       -0.16558242491283
C           -1.54389359005101       -3.00893522141119       -0.22934214291027
H            3.59683155810606        1.50934854801819        0.84921386909473
H            3.94075776578004        1.22318024429587       -1.15863163639397
H            3.06871355069513        2.51999656856438       -0.37000030310398
H            2.89966701665488       -1.06535699433051        0.91417857284318
H           -1.31604501109050        3.09311247701458        0.07332161881600
H           -2.60054510918635        2.36496730111655       -0.92627103411734
H           -2.73584154035282        2.39176502794477        0.84067288555554
H           -1.26116626616303       -3.59835499696318        0.65865950085676
H           -1.06771092768726       -3.54383429362127       -1.06373751653517
H           -2.60501466510006       -3.03447540292509       -0.33785911236103
H            1.47542018861081       -3.07553314012583        0.17569366085485
25
 energy: 125.449924671965 xtb: 6.6.1 (8d0f1dd)
C            3.36408555912451        1.47546937388495       -0.23539294209614
N            2.54415020851866        0.34651335323906       -0.65771307259114
C            2.02538409717425       -0.68756394260215        0.24966993074696
N            1.25934145242575       -2.10424943678798       -0.03938475940466
C            0.09053008704586       -1.42176849254087        0.11477990816866
C            0.64229167355779       -0.19836005083371        0.48439080104870
C            0.13858559541873        1.12538661582498        0.32495323223053
O            0.67502758705032        2.20547208874597        0.49579651941942
N           -1.25511613974033        1.01880975959590        0.06174004289696
C           -2.02072894034396        2.29156035483018        0.01161187256855
C           -1.89353845023389       -0.19180159930271       -0.12957464244829
O           -3.08514938566213       -0.26755621872779       -0.26521623437575
N           -1.17628011273608       -1.48461496064607       -0.24049224492220
C           -1.55885359552925       -3.03689790155631       -0.23570682048083
H            3.60984986878360        1.55822402371843        0.86945057741682
H            3.91858336021517        1.20662749690557       -1.18581498463441
H            3.12420728070536        2.54924516425093       -0.38942330607319
H            2.82336050790856       -1.00922674727970        0.95761524812406
H           -1.28382287605680        3.09699116477772        0.08483004004993
H           -2.57911357917672        2.39508235924587       -0.92401224781420
H           -2.71899594190114        2.42245774137486        0.84314250609326
H           -1.27155347354329       -3.63075936820521        0.64920942156850
H           -1.09400013751528       -3.58244970864349       -1.06595176776215
H           -2.62269095475724       -3.00788290375826       -0.31729859179338
H            1.46797052488192       -3.08559656095256        0.13782328775481
25
 energy: 140.636679654464 xtb: 6.6.1 (8d0f1dd)
C            3.40038747260965        1.49467435206394       -0.22532168503857
N            2.58820965005796        0.36526933240352       -0.65139916656741
C            2.00022417831077       -0.66748644651138        0.25319268895516
N            1.25427679388882       -2.11313023081026       -0.06427595324929
C            0.07133584547275       -1.43758283149619        0.11239353272729
C            0.62797059415420       -0.19839865334449        0.41798313916381
C            0.13984261800353        1.11508588039655        0.32922372901684
O            0.69226913048697        2.17656109783581        0.54511845416959
N           -1.26392781160725        1.02721532881196        0.07510383564241
C           -2.00394125485825        2.30898545613461        0.01940239940117
C           -1.90177573751137       -0.17717514356025       -0.15000648919035
O           -3.09223003698735       -0.26366112730531       -0.30305194604568
N           -1.17670092052901       -1.48099841859903       -0.30358869333304
C           -1.57098289378426       -3.07355765074682       -0.24710831299039
H            3.60049526214957        1.60488332682242        0.89432780819612
H            3.89881363160146        1.18732183925701       -1.20371973438767
H            3.18924180499294        2.57404442483500       -0.42335123973832
H            2.74971325778662       -0.93523490633944        1.01956174252557
H           -1.24929587424055        3.09882937143089        0.10061714232361
H           -2.55099164294759        2.42112410435662       -0.92177320128429
H           -2.70374554993621        2.45488006832561        0.84616056070290
H           -1.28721965162647       -3.66728264072957        0.64032718841651
H           -1.12024803531899       -3.59544691099016       -1.08682118821687
H           -2.63010524477961       -3.03900774119079       -0.33273196756802
H            1.46569081865449       -3.09944378908972        0.11487517868500
25
 energy: 147.815003666515 xtb: 6.6.1 (8d0f1dd)
C            3.40227876732657        1.66638455024435       -0.02144893534263
N            3.07479532723437        0.63702309519270       -0.68567990026748
C            1.88258027949483       -0.89979347528386        0.34915346520146
N            1.20394164935973       -2.17744871129470        0.04002165706542
C            0.00760930232979       -1.49132271687218        0.14040395212937
C            0.66240077936168       -0.22088526426677        0.32910092848567
C            0.17309675860509        1.09401545298397        0.30819955742828
O            0.74033093585085        2.15425331108345        0.53418920229994
N           -1.24000030730947        1.04019171244915        0.05700848879077
C           -1.97889428104417        2.32150609833720        0.02790223880036
C           -1.89593927367449       -0.15984341033874       -0.17715172667384
O           -3.09078199684613       -0.24279813293081       -0.32595004378382
N           -1.18717649089475       -1.45489535574878       -0.39547975713761
C           -1.57444978982151       -3.12153166764132       -0.25737964011921
H            3.48725198459845        1.69218810266425        1.06394620213876
H            3.54893553371051        0.95419596696142       -1.52729994213376
H            3.39610165716143        2.68383835694559       -0.42286783735624
H            2.72056135040956       -0.87674347498476        1.02279528861161
H           -1.22892044754873        3.11533827785696        0.11808558423453
H           -2.52967620046063        2.44776334774412       -0.91066236316569
H           -2.67868411219445        2.44884982328227        0.85646101573335
H           -1.29545612439043       -3.68223656517250        0.64771403663363
H           -1.12362364029578       -3.64534839934243       -1.08995624542420
H           -2.63286812486666       -3.04827019750691       -0.32372279413064
H            1.45782572861903       -3.15209747627959        0.15717784056483
25
 energy: 76.341519090519 xtb: 6.6.1 (8d0f1dd)
C            3.42878036099691        1.70169558600172       -0.00415529853696
N            3.13489988495599        0.66153866117883       -0.66061602525187
C            1.65285175529766       -0.99199578723484        0.34568326348528
N            1.05897402606547       -2.25442509675373        0.12346144946950
C           -0.32572880400669       -2.12616227260691        0.07304424846232
C            0.54806215587829       -0.19055043363834        0.18170823077087
C            0.17306414680820        1.16125012859374        0.27830939369750
O            0.80202802670203        2.18433858027452        0.51618880823057
N           -1.22452335904789        1.16067436863928        0.05894841613306
C           -1.97329899772562        2.38337866060026        0.04048565045644
C           -1.81617461525130       -0.04327522658705       -0.16015371162390
O           -3.00086048690812       -0.28678177643836       -0.29295321068368
N           -0.73689259577399       -0.92188765183877       -0.30766251533540
C           -1.38729044859065       -3.26376111100995       -0.18096527008649
H            3.47719469700815        1.72460074853732        1.09381326263488
H            3.51756292875058        0.94276609398968       -1.55099108648551
H            3.43910249550397        2.72144931819095       -0.40201456496553
H            2.58221207986314       -0.87742453132389        0.93639397228407
H           -1.23850693236825        3.18112295775287        0.13101315051052
H           -2.51310252714371        2.48418802535965       -0.90500633411162
H           -2.67796965101859        2.43941717839784        0.86858023860694
H           -1.33144895361311       -3.90384876998566        0.66836797975226
H           -1.12291694642353       -3.76725159486632       -1.09704622846507
H           -2.44019793020282       -2.93474031960456       -0.27681994349221
H            1.46977527649607       -3.17487784595574        0.20538477909565
25