25
 energy: 0.000000000000 xtb: 6.6.1 (8d0f1dd)
C            3.23720163006194        1.16630919979326        0.08434469647475
N            2.29877817382611        0.07527477071623        0.03981603040599
C            2.58028210190900       -1.21425402444508        0.03006176031096
N            1.43813958087363       -1.93419271955128        0.00098261760884
C            0.39035688448383       -1.05887472636071       -0.00790371836672
C            0.93510056364412        0.21347819449412        0.01709077491437
C            0.09450143893243        1.40504303904423       -0.00410947031874
O            0.49712751527797        2.54126714362870       -0.00342325688240
N           -1.25076640035757        1.06271879480407       -0.03085478223738
C           -2.21907211982101        2.15522099834493       -0.05001256985998
C           -1.81739487048744       -0.20012725993278       -0.04692818574614
O           -2.99983886758376       -0.37846417018721       -0.07008878229737
N           -0.92618586207120       -1.30210215599479       -0.03682761578324
C           -1.46982264913417       -2.64643102187190       -0.06029820460571
H            3.71247264356769        1.21471455160235        1.06488849150277
H            4.00791497605742        1.03430808813993       -0.67357694370751
H            2.69910007168542        2.09770118228144       -0.09130154882931
H            3.56654120610678       -1.63682992603973        0.04233140067262
H           -1.67107961066214        3.09322851271934       -0.02552706933167
H           -2.82428953597071        2.09428624779827       -0.95318082946668
H           -2.87644029173232        2.07745725625962        0.81450067533302
H           -1.17061996399332       -3.19584890659852        0.83242232437030
H           -1.14560257411436       -3.17511610292205       -0.95688275822323
H           -2.55549792440841       -2.55659984320617       -0.07459039797972
H            1.38130855184625       -2.94313852034425       -0.01389874181052
25
 energy: -2.748558131930 xtb: 6.6.1 (8d0f1dd)
C            3.24208252172210        1.20977508803194        0.05561052126417
N            2.29625537365603        0.11780134921597        0.01848881780518
C            2.56343509141595       -1.21550930513945        0.05487968560508
N            1.40801377140118       -1.95256771475102        0.02604075947479
C            0.37464477022066       -1.08083679779124        0.00191052720606
C            0.91182598606403        0.20591357079953        0.02636483799291
C            0.10274531470135        1.38138491571288        0.02707798355916
O            0.52218929759921        2.53777931391661        0.04455352479392
N           -1.25901715470859        1.05170813773812       -0.01730138924188
C           -2.19425764350898        2.17304184146008       -0.04154735905709
C           -1.82568107116142       -0.20307794957854       -0.05181799690993
O           -3.02173247350965       -0.37727233743345       -0.09479241093928
N           -0.94822524743010       -1.32219070742484       -0.03526346246943
C           -1.46585991853917       -2.68743596927312       -0.07807243369234
H            3.70704342583741        1.27012602460788        1.04661739902171
H            3.97728312551084        1.04121475124858       -0.74138639263345
H            2.76170570639308        2.17130337143355       -0.12149403960839
H            3.53184592178276       -1.62289119096860        0.09627810298608
H           -1.61462805105859        3.09521561005160       -0.00973286319661
H           -2.79176306010843        2.14009524327716       -0.95202621223733
H           -2.86043298483511        2.12038078190078        0.81855261383804
H           -1.18262414353904       -3.26973533861204        0.80466134169596
H           -1.13698309806141       -3.23094483741973       -0.97010697925233
H           -2.54850741135161       -2.60391744766760       -0.10320498023368
H            1.36285661944374       -2.96033180116305        0.02274430037592
25
 energy: 14.218956112190 xtb: 6.6.1 (8d0f1dd)
C            3.25274627847066        1.28480426151388       -0.00236373640028
N            2.28804730185303        0.19422661378375       -0.03780730824174
C            2.51683884673663       -1.20562549680938        0.10474885402308
N            1.35424653797415       -1.98068422129318        0.07581330754736
C            0.34137545061199       -1.12767409949768        0.02359234958690
C            0.86480697527663        0.18439719325512        0.04174288479906
C            0.11616799065232        1.33092833680152        0.08535735575722
O            0.56303733802735        2.50555660851730        0.14371882716094
N           -1.27786769832621        1.03574338846995        0.00835701421380
C           -2.14874437951564        2.21081210283008       -0.02475459111272
C           -1.83753341157303       -0.20704173187483       -0.06085764412964
O           -3.04701584491911       -0.37624350555149       -0.14507445753754
N           -0.98908884485055       -1.35967541470283       -0.02811877989336
C           -1.46024833639289       -2.76358788924065       -0.11206138636152
H            3.69320793123028        1.36693843013739        1.00705919812933
H            3.92003278870161        1.05223220354651       -0.86850922240481
H            2.88176387780200        2.30502917158045       -0.18108051555145
H            3.46111230334285       -1.58116993732640        0.20925227728773
H           -1.50697825570204        3.10056594308809        0.02132003609127
H           -2.73016914540858        2.23044824009864       -0.94862289117664
H           -2.83006443662719        2.20642630219432        0.82693757177415
H           -1.20505699392888       -3.40417956965654        0.75244667520724
H           -1.11744110292508       -3.32879489464751       -0.99705686593666
H           -2.53838206064224       -2.69483137762290       -0.15976089365295
H            1.34742155806817       -2.98957205542164        0.09275583696853
25
 energy: 51.212121710283 xtb: 6.6.1 (8d0f1dd)
C            3.26236963353628        1.35762459258629       -0.06419973738531
N            2.27779399139310        0.26320391698094       -0.10206428246871
C            2.46243993697316       -1.19088142196762        0.14500120854713
N            1.30614307607423       -2.01179953387647        0.12510346929886
C            0.30340484708011       -1.18015611404019        0.04212243524608
C            0.81999524873812        0.15436484296632        0.05156654943722
C            0.12095379369578        1.28827848289834        0.14898506782514
O            0.59652852895598        2.46827504553271        0.24699979690474
N           -1.29938387316485        1.02730612911568        0.03864306940038
C           -2.10323976576837        2.25412752009552       -0.00657940409758
C           -1.85057427364613       -0.20988217887646       -0.07252174087770
O           -3.06722041283208       -0.37576907063931       -0.19560553420046
N           -1.02892544488395       -1.39840185671731       -0.02060681606488
C           -1.45604492222455       -2.84318771918709       -0.14572286143154
H            3.67551280577798        1.45813741657504        0.96272219756181
H            3.86150078684274        1.06794155599250       -0.99240588183819
H            3.00755820481256        2.43495872939155       -0.24603116063630
H            3.39329487410568       -1.53056865385607        0.34175921878103
H           -1.39938570480189        3.10747967729522        0.05404562026002
H           -2.66425629154108        2.32525238907103       -0.94370887348569
H           -2.79743650310322        2.29977959585490        0.83570708974288
H           -1.22940313722652       -3.53666059804937        0.70120314886715
H           -1.09615149442971       -3.42530692694495       -1.02421975808886
H           -2.53004088587153       -2.79211415054036       -0.21956727028601
H            1.34678164944447       -3.02297306748894        0.16640834513610
25
 energy: 95.677114409182 xtb: 6.6.1 (8d0f1dd)
C            3.27754764404635        1.42521408189956       -0.11583434243690
N            2.27449644414287        0.31824324688139       -0.17631343014792
C            2.39842543187920       -1.17348591439745        0.15276627219767
N            1.26689891211740       -2.04912685258655        0.16191529537822
C            0.26083534571355       -1.23860188809573        0.04879759528740
C            0.78516217905874        0.11176436438113        0.04546011927791
C            0.11817069725013        1.26001679375005        0.21124254216153
O            0.62435814087067        2.42083706280409        0.33456738353006
N           -1.31986655694156        1.03435216366747        0.07324586980953
C           -2.06452146888397        2.29798671246186        0.00958245278293
C           -1.85971302160000       -0.20489653392107       -0.08466217771667
O           -3.07136800989879       -0.37114653987206       -0.23585199287372
N           -1.06221367286242       -1.43180499678448       -0.01413582477558
C           -1.45379796394706       -2.91965000018465       -0.17061734955638
H            3.64991425223737        1.53115667347660        0.93126730652511
H            3.80900153273860        1.09401892554041       -1.09389623431189
H            3.13203521955137        2.54390597629832       -0.30069708850099
H            3.32144005997854       -1.46586329658641        0.48913105784647
H           -1.31792854703807        3.11745299609404        0.08081629387296
H           -2.60230565497394        2.40460323516174       -0.93602506376351
H           -2.76389266179423        2.38617076946268        0.84225126427563
H           -1.25264109794526       -3.64847789069749        0.66317046451044
H           -1.07908589825089       -3.51318986600225       -1.04450324156620
H           -2.52286300491895       -2.87898185598828       -0.26993911559829
H            1.36412636740667       -3.06146876459108        0.22529583993948
25
 energy: 135.198096567341 xtb: 6.6.1 (8d0f1dd)
C            3.29700699095856        1.48262817251603       -0.15349357052064
N            2.28141314141212        0.34809827699070       -0.24520715601994
C            2.33362425306677       -1.15134050346651        0.13287034219993
N            1.24685159964398       -2.08371936916044        0.19207649732539
C            0.21687019182525       -1.29070331576233        0.04896259947340
C            0.76498212479544        0.06457384914146        0.02895085086299
C            0.11237278202206        1.24167713234795        0.25470160885212
O            0.64721187418626        2.35235294983539        0.40012118754591
N           -1.32769778074900        1.05142538378583        0.10866126451516
C           -2.03128197714791        2.33322341966100        0.02255884168091
C           -1.86705601843321       -0.19454271618930       -0.09274839061901
O           -3.06048644399552       -0.35909368316984       -0.26871848932602
N           -1.08383111496974       -1.45574023044239       -0.00980497373728
C           -1.45630399496921       -2.98675478715956       -0.18451592702674
H            3.62112811008914        1.57886584793480        0.91146508354493
H            3.77137727283937        1.12516651100983       -1.15759094351712
H            3.23187208828721        2.61476007950171       -0.34280635023549
H            3.22783094972477       -1.37765247996360        0.62376064510410
H           -1.26955935401842        3.12699481253641        0.09986190443566
H           -2.54969401610960        2.45748945697567       -0.92511765402372
H           -2.73064259550547        2.45308111785407        0.84580908117680
H           -1.27251456281008       -3.72401610481874        0.64283839598209
H           -1.06836797386379       -3.57872152735991       -1.05644812694481
H           -2.52021127454343       -2.94646387401156       -0.30627984570223
H            1.39732039620080       -3.09255981641489        0.25712702112094
25
 energy: 163.130079603598 xtb: 6.6.1 (8d0f1dd)
C            3.31054203487730        1.52573711614653       -0.18385251480998
N            2.29105431914795        0.35532449455859       -0.29560044897659
C            2.28730951603237       -1.12156808210135        0.12694433335578
N            1.24623100204877       -2.09990244843916        0.21601802196743
C            0.18749860491408       -1.32296977857971        0.05159295770824
C            0.75570522108354        0.02829125741172        0.01754417235340
C            0.11111217824447        1.21962548972402        0.26028581024599
O            0.67394828463752        2.28130781119282        0.46143201124042
N           -1.31600157663462        1.05811604447611        0.13144218674635
C           -2.00114939023038        2.35226789909345        0.03366454437060
C           -1.87722184356287       -0.18949101888675       -0.09269610728423
O           -3.05546094804722       -0.34036233242055       -0.30399976422354
N           -1.09671811303793       -1.47389980485934       -0.00880786325653
C           -1.46561590957062       -3.03987873810133       -0.19025906936742
H            3.59836778188584        1.60254559310266        0.89086527274836
H            3.75412020302996        1.14471833798281       -1.18839919207956
H            3.29057451415201        2.65706163023380       -0.37697037622636
H            3.12182472510688       -1.27700426325589        0.72148889594768
H           -1.23619193786357        3.13425763764306        0.11532775021535
H           -2.51251582517316        2.48808630816854       -0.91530391699841
H           -2.70454636471706        2.49492796923118        0.85025595450928
H           -1.28920854805261       -3.76876719862256        0.63700055080094
H           -1.06430742469174       -3.62095319728669       -1.05983955618574
H           -2.52555033808227       -2.99557494179703       -0.32841842930911
H            1.42841450243972       -3.10286718244315        0.25731867265499
25
 energy: 177.960149675415 xtb: 6.6.1 (8d0f1dd)
C            3.32343662523987        1.55020091821518       -0.20606556082667
N            2.30526831545609        0.35028022227709       -0.37074733546348
C            2.25811166640571       -1.09198228992851        0.12644658846518
N            1.25078483982939       -2.10452245330060        0.20468596382168
C            0.17784005758374       -1.34100259212454        0.03029032477692
C            0.75559517267734        0.00183997993254       -0.01110300172318
C            0.11584522272474        1.20291137420205        0.25374930346468
O            0.70600259518863        2.23572205296064        0.51529215106266
N           -1.29632111953352        1.06114614958591        0.13603609945077
C           -1.98747169126436        2.35580720248827        0.04274458465240
C           -1.88119037363043       -0.18424243544810       -0.09055479573352
O           -3.05019998720457       -0.31944276822472       -0.31774327226649
N           -1.10312428177127       -1.48195683567560       -0.01648008218120
C           -1.47723412012666       -3.06937009760842       -0.18760609157594
H            3.58173306579613        1.59714520335440        0.87763677001293
H            3.75705591835092        1.15531799990696       -1.20136347127427
H            3.32116159946764        2.68052849785999       -0.38938425410062
H            3.03824166338061       -1.18991142316667        0.85903270468666
H           -1.22998362441948        3.14216698247191        0.12748277806469
H           -2.50208943198470        2.48927348930850       -0.90558178333742
H           -2.69147042660577        2.49576768153607        0.85752585174945
H           -1.29696732138861       -3.78722721714125        0.64247703152897
H           -1.07409238615106       -3.64281723414024       -1.05569716100504
H           -2.53350322965731       -3.01138590968985       -0.32589575630886
H            1.44478591957332       -3.10521789547921        0.23185631020700
25
 energy: 192.742879529666 xtb: 6.6.1 (8d0f1dd)
C            3.34358023642985        1.57363453978771       -0.22431008974122
N            2.33482569307000        0.32919609931302       -0.46381981868833
C            2.22333780379107       -1.04434404706429        0.17862274625389
N            1.26426917234866       -2.10765522062088        0.21222067002971
C            0.17411195672048       -1.35780335869839        0.01819421989281
C            0.76630385273030       -0.03323173049412       -0.02067155121924
C            0.12190318465737        1.18429977461836        0.25967174954808
O            0.73876089199246        2.18054623085256        0.56358340163167
N           -1.26165206238623        1.06193808777525        0.13979414844566
C           -1.97360906044511        2.35447843334424        0.04595569169711
C           -1.88403661238954       -0.18089049535615       -0.08024808426362
O           -3.04232732384937       -0.29364094973643       -0.33322456363988
N           -1.10493873259273       -1.48780602802054       -0.01962392308716
C           -1.49106884791384       -3.09874167150027       -0.18545074628265
H            3.57158443368598        1.58971473603045        0.86466651633734
H            3.76920858032118        1.16133027732430       -1.20440034965117
H            3.34091102272117        2.69264082616971       -0.39763695514389
H            2.89383948072219       -1.07138646375246        0.92088368566571
H           -1.22814077249440        3.15301414616398        0.13185082488556
H           -2.49238074664324        2.47886501827058       -0.90434609638428
H           -2.68483715685708        2.48789979235398        0.85728341884281
H           -1.30595868150607       -3.80111212988086        0.65050895957307
H           -1.07937058863743       -3.65308740892986       -1.05310799689664
H           -2.54406140906372       -3.02196492034650       -0.32646133145781
H            1.46196035352441       -3.10686493543162        0.19709936979983
25
 energy: 197.451879268511 xtb: 6.6.1 (8d0f1dd)
C            3.37915754290576        1.60046332522473       -0.23870611847012
N            2.38639932998325        0.31069792678515       -0.64497327997382
C            2.16297814587392       -0.97438532151879        0.23210260859184
N            1.27016426125252       -2.12496476306483        0.19095513182452
C            0.17140695801741       -1.38773926809874       -0.01981497531733
C            0.78556869222123       -0.08294085653706       -0.02877800198452
C            0.14084167343963        1.15691749392464        0.27761397516829
O            0.77752554750404        2.11880145617219        0.59124086508486
N           -1.21713165419865        1.06102591611118        0.13978408853407
C           -1.96192948453204        2.34928329233753        0.05333709394674
C           -1.87954750326026       -0.17789388617281       -0.06325818037099
O           -3.03055948641637       -0.26799303068071       -0.33251995478034
N           -1.10589739609697       -1.49114706908777       -0.02381699742134
C           -1.50528302494668       -3.12578481364501       -0.18337826915321
H            3.55909690823921        1.57228810727873        0.86324704359335
H            3.79021847210491        1.17102484162973       -1.21224596513974
H            3.37090973982987        2.71028986936115       -0.39142567595195
H            2.70520153981696       -0.91012468742319        1.07899927145478
H           -1.23455260776491        3.16845059723775        0.13475876494290
H           -2.49333800043646        2.46073364670008       -0.89556381721169
H           -2.67941100618550        2.46972761387361        0.86541127931193
H           -1.30891678949265       -3.81350244198609        0.65829241223051
H           -1.09046251659680       -3.66041081825090       -1.05356752577329
H           -2.55426957459921       -3.01936844621166       -0.31710486858273
H            1.47404490127414       -3.12442008178711        0.14644499159460
25
 energy: 200.270089080664 xtb: 6.6.1 (8d0f1dd)
C            3.41856702942304        1.61223638630978       -0.22858927493484
N            2.46301892235930        0.29181479574376       -0.86359540691718
C            2.09142854938926       -0.89199273408174        0.26889742555834
N            1.26577931267523       -2.15601445150705        0.14600550171453
C            0.17971308460345       -1.42132319990142       -0.06546662468126
C            0.82142763091771       -0.13485732705518        0.01560102459329
C            0.17527468027678        1.13000478521687        0.31656457182309
O            0.80286055309788        2.09262176733023        0.58044854236001
N           -1.17122062665323        1.05271366667394        0.12200799281108
C           -1.96098520652452        2.33756785423310        0.05629758136239
C           -1.86437505575513       -0.18244672626426       -0.05023270768957
O           -3.02394871406277       -0.25784608721562       -0.31742092421532
N           -1.10209927290154       -1.48590634998969       -0.02246284078078
C           -1.51261566335082       -3.12842345357751       -0.18122920550945
H            3.56115676330774        1.55827738650647        0.87990987238651
H            3.81291956930783        1.16974824658941       -1.21643601570655
H            3.37121356883604        2.71096161266942       -0.36683501921211
H            2.52481360716694       -0.75836818426080        1.22226056108450
H           -1.24920990504555        3.18439499731391        0.12863799391362
H           -2.51150897243098        2.43844999798210       -0.89073055206880
H           -2.68557275662259        2.43953179198906        0.87485114229233
H           -1.30325074804781       -3.80700169762823        0.66826020433541
H           -1.09679077485951       -3.65236521295826       -1.05322231094204
H           -2.55949990284009       -2.99580173049501       -0.30099250813862
H            1.46511899566965       -3.15694753145149        0.10450487270877
25
 energy: 189.939876665870 xtb: 6.6.1 (8d0f1dd)
C            3.40176483461279        1.57210143022240       -0.18037841597734
N            2.47612092212420        0.32188064658600       -0.81754531889787
C            2.11756428589155       -0.89900871278731        0.23128715437431
N            1.24105531643234       -2.17189076011494        0.11555266281140
C            0.19694868277889       -1.41525236686662       -0.06667007106949
C            0.81030843376832       -0.10855247808832        0.10110586289083
C            0.19565091649358        1.13188103350000        0.32515290281128
O            0.76782477667596        2.20363628089349        0.50890428447487
N           -1.20538001426904        1.03130124092113        0.07785764741532
C           -1.98353812901478        2.33228092902584        0.05166075650188
C           -1.84480821433447       -0.20078114586170       -0.07588545234615
O           -3.04927959980978       -0.29816257863880       -0.27939897762065
N           -1.10511991639023       -1.47559004758912       -0.01904695090945
C           -1.49894864833376       -3.06646876863166       -0.18547267658745
H            3.58468448431976        1.57691230122800        0.91159813545306
H            3.81278370317432        1.13735158561367       -1.21392587416661
H            3.32405662254242        2.69824920685286       -0.35707779000265
H            2.67996022158708       -0.87246514798337        1.13450993623839
H           -1.25356354751977        3.18166592925044        0.11788286504243
H           -2.53696049826074        2.44347946764464       -0.89484738584308
H           -2.70077673656726        2.42709839674491        0.88416721207082
H           -1.29636032576086       -3.77922205057013        0.66281666653627
H           -1.09567135784764       -3.63492524368824       -1.05306886469366
H           -2.55382061589353       -2.97016052584879       -0.29499348168797
H            1.42771907153696       -3.17633001964254        0.14284906932884
25
 energy: 195.077293249480 xtb: 6.6.1 (8d0f1dd)
C            3.42230734082769        1.59372619665370       -0.19553236072700
N            2.49858848171097        0.37612087819091       -0.71708131564562
C            2.08096129560918       -0.86048731254314        0.22911997607605
N            1.22639664405497       -2.17315331203521        0.14210400413049
C            0.14597736104831       -1.44040542882874       -0.01891608347092
C            0.75461769084441       -0.14051099166213        0.15240898667246
C            0.19894474552562        1.11121005480107        0.28399443299236
O            0.79463738664257        2.18183272570050        0.52128702936979
N           -1.22231749669771        1.03872042605430        0.07170506978626
C           -1.96830975791229        2.33668764295661        0.04209594890257
C           -1.83663688456400       -0.19064266884011       -0.09419933911860
O           -3.02783884299974       -0.28613710078757       -0.25323282383995
N           -1.12930592208851       -1.49317199646140       -0.02321684018403
C           -1.51321544345505       -3.07775791515425       -0.18679705799117
H            3.55425162101168        1.57997859741549        0.91703362719842
H            3.83589918716197        1.15060753706693       -1.22815403156543
H            3.39585231187359        2.73912923036891       -0.37852221466620
H            2.68806466077609       -0.86351780639675        1.05930110280483
H           -1.26474491106941        3.17950198206569        0.11327218297872
H           -2.51109736081962        2.43062523417007       -0.89334875606921
H           -2.66775654429486        2.41653651933950        0.86939237128815
H           -1.31779919272331       -3.79897018686572        0.65401239547184
H           -1.11869989315708       -3.65868718755030       -1.05673645267843
H           -2.56627791716442       -2.98910940621719       -0.30151131297912
H            1.45971610779531       -3.17309710926936        0.11855535741105
25
 energy: 204.130023231994 xtb: 6.6.1 (8d0f1dd)
C            3.47600442764033        1.60487825125979       -0.18076068694920
N            2.63532945031146        0.43877025277693       -0.67967527321237
C            2.00411384527201       -0.78236807526788        0.19063599208252
N            1.21048934926933       -2.19290356081067        0.13003180578484
C            0.09068286888345       -1.48156254167618        0.04830019453408
C            0.70806899808784       -0.21390658623422        0.30073877955181
C            0.21394535475358        1.09887518151957        0.28345161798075
O            0.77345240854724        2.18067824067196        0.44101179857086
N           -1.23265508602931        1.04774766529153        0.06942982270003
C           -1.96758169408411        2.33118092204021        0.02443728803752
C           -1.82452540421974       -0.18009040136617       -0.09750358207616
O           -3.00702997811245       -0.28892492021187       -0.23914570286311
N           -1.14681630219582       -1.50386669086144       -0.01977440651669
C           -1.51430265948472       -3.06915387861823       -0.18943092801599
H            3.54610518873493        1.59342044900403        0.94484047847826
H            3.86062761929504        1.16666642823274       -1.24428449097569
H            3.40919449618223        2.71591034359472       -0.35727666005905
H            2.67044722624923       -0.88120179877805        0.95532483352543
H           -1.27664729166217        3.16322752319368        0.10417261877344
H           -2.51224690970865        2.43035339415228       -0.90117015611088
H           -2.66441834732208        2.40561876457033        0.84821071284366
H           -1.31609266888705       -3.78530892678822        0.64554027327625
H           -1.12413287828218       -3.65240688529739       -1.06482948575620
H           -2.56456480898770       -2.98019813371933       -0.30191092018162
H            1.46476746368566       -3.17640641450631        0.11666997272486
25
 energy: 222.384447735949 xtb: 6.6.1 (8d0f1dd)
C            3.51396954674080        1.63056197060467       -0.15821590158080
N            2.77157142140240        0.51295275169152       -0.67347699157358
C            1.94781885938961       -0.72269908624670        0.18764865808208
N            1.20892576882724       -2.21474231496943        0.08650056954522
C            0.06235480753749       -1.52454764147766        0.11853749438579
C            0.65922929796513       -0.26009227503057        0.38721733843129
C            0.22192213507197        1.08789473156947        0.27252599643522
O            0.78119519963025        2.17399864291909        0.43119496909748
N           -1.24254818571475        1.05027782110191        0.07482707954747
C           -1.96367937432283        2.33625284796605        0.01929370555912
C           -1.84185321478178       -0.17362293560330       -0.09465331805781
O           -3.03252600447390       -0.28638337949994       -0.27518465798082
N           -1.17670271653372       -1.53015214338505       -0.01536314257518
C           -1.52537544904795       -3.09316420333665       -0.19213274911943
H            3.54658251752015        1.64429392179306        0.97296151163009
H            3.84654999501517        1.15904359772653       -1.27605797204740
H            3.46551747206868        2.74498052629585       -0.36498095028268
H            2.66700709374369       -0.90953718556059        0.88501789552634
H           -1.25838530677284        3.16106157094561        0.10152399619967
H           -2.51345952277437        2.45497030541891       -0.90928586633100
H           -2.66941640258706        2.42868983328719        0.84481705843973
H           -1.32593453177020       -3.80765609008259        0.64057222464477
H           -1.12925097661973       -3.67998897495267       -1.06426540289546
H           -2.57332684976472       -3.00801908463054       -0.30609195201324
H            1.47202908818763       -3.18534460437235        0.13410430308046
25