25
 energy: 0.000000000000 xtb: 6.6.1 (8d0f1dd)
C            3.23720132972391        1.16630909158653        0.08434468864950
N            2.29877796055224        0.07527476373246        0.03981602671198
C            2.58028186251803       -1.21425391179017        0.03006175752192
N            1.43813944744728       -1.93419254010258        0.00098261751768
C            0.39035684826767       -1.05887462812143       -0.00790371763344
C            0.93510047688824        0.21347817468824        0.01709077332874
C            0.09450143016486        1.40504290868848       -0.00410946993748
O            0.49712746915594        2.54126690785742       -0.00342325656480
N           -1.25076628431515        1.06271869620815       -0.03085477937476
C           -2.21907191394203        2.15522079838987       -0.05001256521996
C           -1.81739470187490       -0.20012724136556       -0.04692818139228
O           -2.99983858926755       -0.37846413507442       -0.07008877579474
N           -0.92618577614240       -1.30210203518959       -0.03682761236648
C           -1.46982251276835       -2.64643077634382       -0.06029819901142
H            3.71247229913541        1.21471443890471        1.06488839270555
H            4.00791460421487        1.03430799217987       -0.67357688121503
H            2.69909982127087        2.09770098766290       -0.09130154035862
H            3.56654087521359       -1.63682977417947        0.04233139674524
H           -1.67107945562430        3.09322822573871       -0.02552706696334
H           -2.82428927394145        2.09428605349656       -0.95318074103337
H           -2.87644002486466        2.07745706351925        0.81450059976605
H           -1.17061985538665       -3.19584861009707        0.83242224714061
H           -1.14560246782873       -3.17511580834413       -0.95688266944647
H           -2.55549768731684       -2.55659960601237       -0.07459039105944
H            1.38130842369251       -2.94313824728853       -0.01389874052104
25
 energy: -6.348415873200 xtb: 6.6.1 (8d0f1dd)
C            3.26165240009354        1.17716941192207        0.07034620664701
N            2.31851875824592        0.10502537413595        0.02067585594373
C            2.60240822193891       -1.24441929622910        0.04510292872114
N            1.41698641300688       -1.93904460276008        0.01736694568497
C            0.39858850218783       -1.05776063050111        0.00481953881712
C            0.92545583899298        0.22875503672111        0.02241478465773
C            0.11341057605133        1.38535199883416        0.00312003321482
O            0.48513168126096        2.56266083213444        0.00753674880135
N           -1.27265142724047        1.04665796654044       -0.02938748701076
C           -2.22595739216057        2.14489215816771       -0.05140345860355
C           -1.82175111054905       -0.19875032757614       -0.04962675600176
O           -3.02071947824470       -0.38691990610051       -0.08058430293250
N           -0.94092057623276       -1.29989278992497       -0.03424649927842
C           -1.47621453810175       -2.64172733982725       -0.06333539730865
H            3.76803708792966        1.19106192812269        1.03760834189313
H            4.03521221407799        1.11017406789974       -0.70539404186858
H            2.70125282545766        2.10286663656523       -0.04532350615396
H            3.57526627581269       -1.66465678757522        0.06427984728569
H           -1.66643648541962        3.07858143508168       -0.02687773977927
H           -2.83244145888850        2.09037118824277       -0.95577359595365
H           -2.88516309807454        2.07593641185434        0.81368668171144
H           -1.17685079841169       -3.19690445028077        0.82884128934786
H           -1.14916858953785       -3.17367367310061       -0.96065793628073
H           -2.56211714090900       -2.55252690083316       -0.08184022748938
H            1.36003318296080       -2.94344306435880       -0.00030394173964
25
 energy: -5.729219256431 xtb: 6.6.1 (8d0f1dd)
C            3.28260623748468        1.18220990348564        0.05457230916012
N            2.33299174474585        0.10815564474362        0.00188745486935
C            2.60291282971147       -1.24951440571312        0.05959052866205
N            1.41191414270402       -1.93830520264121        0.03412022847280
C            0.39724572245278       -1.05349316645443        0.01490275656207
C            0.93099610410843        0.23282880016184        0.02488848357338
C            0.11067596627262        1.38301093624021        0.00987564976672
O            0.47457732411639        2.56228218132500        0.02194251960580
N           -1.27845072148153        1.04180509134309       -0.02738126746750
C           -2.23274875872856        2.13954787427593       -0.05314337619748
C           -1.82882538155810       -0.20206769852961       -0.05247006925165
O           -3.02793335997711       -0.39043515488488       -0.09080832197984
N           -0.94422833417567       -1.29913781001750       -0.03212693473313
C           -1.48047454501291       -2.64159206887965       -0.06637093400686
H            3.81910193227232        1.16070996773498        1.00487064577441
H            4.05290431136632        1.18420827350841       -0.73736627299597
H            2.70753442073464        2.10557048620371        0.00282275599575
H            3.57204116780468       -1.68016339097827        0.08656230141428
H           -1.67003529989819        3.07169895518011       -0.02965060468161
H           -2.83943143673146        2.08417282201859       -0.95788605897136
H           -2.89432561278466        2.07486974537478        0.81094407016096
H           -1.18480350306766       -3.19953670768525        0.82546340655439
H           -1.15323496453647       -3.17238544136678       -0.96492070509830
H           -2.56700917761386       -2.55210081358572       -0.08945975133605
H            1.34668794633567       -2.94296882972232        0.01663143607905
25
 energy: -4.509549881827 xtb: 6.6.1 (8d0f1dd)
C            3.30232859506974        1.18840347213214        0.03788739649881
N            2.34488609530594        0.11308709984670       -0.01704854387510
C            2.60246742084914       -1.25158511129652        0.07768481439537
N            1.40690551314447       -1.93609249032999        0.05249412401302
C            0.39554759982444       -1.04861143985183        0.02424916866755
C            0.93531562921618        0.23779996768127        0.02053768483682
C            0.10695953010590        1.38044366426674        0.01491129662736
O            0.46170031303416        2.56185603685404        0.03554786182953
N           -1.28486680954902        1.03666705384716       -0.02624165766120
C           -2.23942856271305        2.13427303892516       -0.05513094753463
C           -1.83549776371595       -0.20572604630445       -0.05702897587805
O           -3.03433662657911       -0.39521537297875       -0.10450230233324
N           -0.94749040717561       -1.29839696453564       -0.02968045282966
C           -1.48461305620614       -2.64128946281183       -0.06993471597151
H            3.86827999853892        1.12942855323596        0.96987125181232
H            4.06567381935443        1.25919641617233       -0.76956004666959
H            2.71453981418757        2.10695229102062        0.05069194882336
H            3.56792436481876       -1.69230636620002        0.10941860468072
H           -1.67352170602397        3.06491324463487       -0.03228726137399
H           -2.84639512983273        2.07817689374624       -0.95996069047454
H           -2.90244099327051        2.07302205125519        0.80834776345699
H           -1.19284192377126       -3.20149642604833        0.82198712928952
H           -1.15663958848706       -3.17059176010996       -0.97000592166193
H           -2.57164227545661       -2.55054930990896       -0.09757317355504
H            1.33478446316403       -2.94100393466875        0.03371110149354
25
 energy: -2.729917448226 xtb: 6.6.1 (8d0f1dd)
C            3.31898999706753        1.19364033087643        0.02275329405187
N            2.34632117953051        0.11739752285923       -0.00637630112367
C            2.59849511407412       -1.25169245524793        0.10137122250155
N            1.40043700760755       -1.93415190450776        0.07200164057171
C            0.39147549332492       -1.04493423009278        0.03241688924078
C            0.93482952503434        0.24110006407412        0.01429957588752
C            0.10160853250492        1.37857244935960        0.01998919737697
O            0.44925513278407        2.56165334704086        0.04829648871948
N           -1.29237742177454        1.03224563721177       -0.02524590978444
C           -2.24683297083768        2.12961888630029       -0.05572440205875
C           -1.84238264610315       -0.20904389122663       -0.06252487196951
O           -3.04067428778729       -0.40049461829451       -0.11989824654689
N           -0.95204345097556       -1.29820139871369       -0.02798468326658
C           -1.48918312642575       -2.64129940741259       -0.07444058318251
H            3.91730639040009        1.09962259495093        0.93239603061216
H            4.07148326400209        1.33016892110575       -0.80245677368398
H            2.72409994653517        2.10692851456291        0.09698821075575
H            3.56119152122611       -1.70159349579875        0.13472371955520
H           -1.67745368407543        3.05844180253714       -0.03460027137511
H           -2.85425144493148        2.07257527867735       -0.96018972566091
H           -2.91035428639215        2.07123425443677        0.80760244694603
H           -1.20133882579456       -3.20368110229712        0.81777643001103
H           -1.15888734345215       -3.16813607360305       -0.97612200473584
H           -2.57652393384498       -2.54933928951958       -0.10687266846907
H            1.32304410645524       -2.93925175263408        0.05231143948241
25
 energy: -0.348794528389 xtb: 6.6.1 (8d0f1dd)
C            3.33877901946781        1.19979096956911        0.00738939930735
N            2.34942874067707        0.12502087758941        0.01252213884940
C            2.59332095188613       -1.24694831586036        0.11646726582842
N            1.39418101721237       -1.92955720789598        0.09070194616827
C            0.38636443694878       -1.03959839071075        0.03562793155013
C            0.93363822900806        0.24555012562432        0.00718926728144
C            0.09421576104779        1.37814486605440        0.02730237377161
O            0.43564328817642        2.56242334224388        0.06303145135846
N           -1.30111495731842        1.02869242652941       -0.02317281524866
C           -2.25545109948405        2.12554724833606       -0.05642412924292
C           -1.84941508804964       -0.21213195385958       -0.06785444301576
O           -3.04692541018865       -0.40627791134212       -0.13409949646574
N           -0.95704062679788       -1.29763088464566       -0.02671993325683
C           -1.49316374243421       -2.64121295869415       -0.07884390302475
H            3.96637476084291        1.06854151696376        0.89337825242350
H            4.07527286538140        1.40012164116158       -0.83841305239331
H            2.74497127957158        2.10727378392786        0.14542587613411
H            3.55282583874405       -1.70759836386287        0.15920222822853
H           -1.68293365363348        3.05288871032265       -0.03674127622959
H           -2.86163506552059        2.06651084061636       -0.96149336313802
H           -2.92011650032665        2.06908653438414        0.80611022471508
H           -1.20913064057302       -3.20484988142759        0.81433243780351
H           -1.15942878130381       -3.16574091374337       -0.98173835469214
H           -2.58077699623828       -2.54851572951463       -0.11625747032495
H            1.31325022817473       -2.93549947118724        0.07140383660254
25
 energy: 2.475224654634 xtb: 6.6.1 (8d0f1dd)
C            3.36102840377468        1.20535829730948       -0.01010934988307
N            2.35173657380616        0.13573680315620        0.02947166926646
C            2.59098581707771       -1.23835460804460        0.09841257279028
N            1.39134066438634       -1.92348264930303        0.10832539527770
C            0.38346889386144       -1.03569011158289        0.03867424650843
C            0.93049953563249        0.25069289290825        0.00016599664734
C            0.08587759371400        1.38012820161834        0.03234655593894
O            0.42206775058251        2.56453171773606        0.07635085425771
N           -1.31020833084759        1.02628740166596       -0.01994865864750
C           -2.26499941730938        2.12167800792282       -0.05646471091101
C           -1.85536061384954       -0.21531636326215       -0.07284509426051
O           -3.05187626965064       -0.41285908833605       -0.14790319882256
N           -0.96069026069404       -1.29744533529492       -0.02416734496147
C           -1.49660759452898       -2.64125501788436       -0.08128837087313
H            4.01352917514158        1.03747259055684        0.85265039842035
H            4.08090894671101        1.46686950265538       -0.87508731845542
H            2.77597251816118        2.10827801250039        0.18731318319103
H            3.54486466044149       -1.70977731702912        0.18425419333565
H           -1.69052421755920        3.04816346379314       -0.03704390217663
H           -2.86903461041278        2.06072160859847       -0.96278398038926
H           -2.93090869813255        2.06533285363104        0.80485522750300
H           -1.21738051363236       -3.20594573322944        0.81273519591515
H           -1.15479244918309       -3.16761445300737       -0.97934165117071
H           -2.58433111285743       -2.54804511333997       -0.12628518526031
H            1.30655160096533       -2.93041979808846        0.09317993583906
25
 energy: 5.748674130824 xtb: 6.6.1 (8d0f1dd)
C            3.37668957122952        1.20674388477113       -0.01596854748717
N            2.35515320298667        0.14028200429908        0.05314651763674
C            2.59294535407575       -1.23906820684964        0.08187894292147
N            1.39048467487873       -1.92130423751707        0.12115965197480
C            0.38340776288894       -1.03616178915842        0.03837166342294
C            0.93073034141083        0.25208432411392        0.00810963375998
C            0.08140434404964        1.38165250264857        0.03382716435049
O            0.41087588207489        2.56575414202100        0.08815446759715
N           -1.31401225817531        1.02434685100577       -0.02275228653346
C           -2.27141857356116        2.11838512670827       -0.05513098071903
C           -1.85834122843944       -0.21870791892864       -0.07890474601599
O           -3.05378971139839       -0.41902914799805       -0.16403905281102
N           -0.96117092445622       -1.29885702168330       -0.02207894892009
C           -1.49996428734311       -2.64222591536121       -0.08346997385749
H            4.06467769218996        1.00900852218763        0.81135388512849
H            4.08830554042776        1.53452416297463       -0.90039223808581
H            2.80910271448761        2.10671961233405        0.22238607338610
H            3.53923460096129       -1.71533782004767        0.22029882928766
H           -1.69544439076729        3.04405156755583       -0.03877110550536
H           -2.87727876057687        2.05676939441299       -0.95997716092791
H           -2.93583250272849        2.06286025556029        0.80759431049386
H           -1.22658831880267       -3.20803801090465        0.81158243770484
H           -1.15148289931752       -3.17158328128931       -0.97581017347094
H           -2.58767165775030       -2.54820089193515       -0.13631472353812
H            1.30069381371500       -2.92820490262899        0.10590766588812
25
 energy: 7.449575955464 xtb: 6.6.1 (8d0f1dd)
C            3.37729881139770        1.20264967594760       -0.01250827604615
N            2.35252592708126        0.14232091002814        0.07633750586481
C            2.59364956601800       -1.23877036809355        0.08426028869231
N            1.39137899691769       -1.91965344107416        0.12390714875998
C            0.38258706249426       -1.03906003632915        0.03289886545795
C            0.92635999536059        0.25102840861086        0.00906947237998
C            0.07666197214242        1.38161638896003        0.03395237393780
O            0.40227689937991        2.56596901703878        0.09374392232781
N           -1.31851218197456        1.02356955246524       -0.02660983683357
C           -2.27793829438612        2.11576573913406       -0.05607943397953
C           -1.85958878498846       -0.22084849584729       -0.08404735448990
O           -3.05423092606938       -0.42042460585450       -0.17549172434230
N           -0.96217171646760       -1.30137238464192       -0.02854923354204
C           -1.50412194113060       -2.64296422358595       -0.08850511619257
H            4.10316533945563        0.97511795868555        0.77313770856915
H            4.06734787026929        1.57829944626365       -0.92136149112345
H            2.83299867456332        2.10114571797649        0.26185647253964
H            3.53404726623221       -1.71750434748409        0.25537854316553
H           -1.70221053131947        3.04134458540459       -0.04001742453919
H           -2.88701095658189        2.05178630813939       -0.95751406256099
H           -2.94060533991570        2.06034998086224        0.80959296057537
H           -1.23504142605193       -3.20931226655189        0.80796933866551
H           -1.15545396826889       -3.17299530002968       -0.97927424647462
H           -2.59125411169484       -2.54631488356086       -0.14644327589999
H            1.29755433144417       -2.92628472488933        0.12501799828280
25
 energy: 12.859041394861 xtb: 6.6.1 (8d0f1dd)
C            3.38148812191003        1.20034833666900       -0.00993275703276
N            2.35062098565969        0.14497809490747        0.10484106767425
C            2.59118227109828       -1.23795999333279        0.11316708425839
N            1.38927535770932       -1.92210266914263        0.13933356334573
C            0.38096247186724       -1.04394291935638        0.03015127622378
C            0.92188274500892        0.24733930908477        0.01191087004878
C            0.07216269573603        1.37800264425229        0.02940307156316
O            0.39981987355007        2.56111444964823        0.08524481871845
N           -1.32383027972751        1.02272187077908       -0.03177263359507
C           -2.28156917247738        2.11515367704551       -0.06017210731940
C           -1.86319873466530       -0.22224764566586       -0.08168769102165
O           -3.05767932656887       -0.42445156717085       -0.16556752181840
N           -0.96413990828713       -1.30383656101063       -0.03502671536117
C           -1.50841234478189       -2.64416895444226       -0.09426144968240
H            4.13904109130278        0.94363424462749        0.73157041728209
H            4.10791303696304        1.62514321583621       -0.94265492557245
H            2.85589552972146        2.09520952952412        0.30327783348398
H            3.52937050833985       -1.71818004819389        0.28792545544297
H           -1.70812039355822        3.04070101359437       -0.04155980743327
H           -2.89315893039150        2.04625998411539       -0.95955214946043
H           -2.94308049412398        2.06059932207960        0.80524239510323
H           -1.24293656862410       -3.21090370874123        0.80348606172160
H           -1.16014410224291       -3.17569385933661       -0.98346421058419
H           -2.59495277419754       -2.54547795312831       -0.15689327818509
H            1.29477319335506       -2.92735072322843        0.14639623627231
25
 energy: 20.607629983021 xtb: 6.6.1 (8d0f1dd)
C            3.37652316862105        1.19334511426598        0.00354605099094
N            2.34667150437641        0.14604137436817        0.13064900624689
C            2.58793743704023       -1.23718884149002        0.14091537651211
N            1.38725662775937       -1.92523939762988        0.15681932093804
C            0.37909376555870       -1.05036996212390        0.02861799096633
C            0.91664832183013        0.24208138065387        0.01675601216464
C            0.06636941567896        1.37300865040461        0.02555966758901
O            0.39456364771836        2.55514576079681        0.07013807448856
N           -1.33047030718486        1.02189107958995       -0.03652980663448
C           -2.28698142820198        2.11634700077828       -0.06455712478764
C           -1.86776362192849       -0.22393585483878       -0.07761259556037
O           -3.06187631418231       -0.43068145175629       -0.14997255346898
N           -0.96615330499413       -1.30679554574302       -0.04072879381405
C           -1.51294211061351       -2.64573873306467       -0.09967068716756
H            4.17028786980880        0.90900319322187        0.68901685029512
H            4.15593326973082        1.68569227837655       -0.97503071091109
H            2.87644723575512        2.08690629771387        0.35383098332940
H            3.52473604262156       -1.71892177852897        0.31475268662567
H           -1.71358143849935        3.04094114146089       -0.04184073894386
H           -2.89179118205490        2.04772145197495       -0.96759498027344
H           -2.94838422603924        2.06106604720794        0.80045998181024
H           -1.25029224885535       -3.21196928913999        0.79970950435683
H           -1.16564014362902       -3.17902912397743       -0.98719033368796
H           -2.59878307754532       -2.54428161350524       -0.16644089298489
H            1.29468832061901       -2.92882456309948        0.16663568416795
25
 energy: 32.055547266578 xtb: 6.6.1 (8d0f1dd)
C            3.35314864838673        1.17258175115500        0.02999380873333
N            2.34002648048128        0.14190694678513        0.13522635887475
C            2.58264488964998       -1.23564940446731        0.16722699076319
N            1.38490119703847       -1.92868965841708        0.17266429412814
C            0.37629287333846       -1.05725210160836        0.02881980879593
C            0.91053676942106        0.23531081833551        0.02209193528294
C            0.06061209376184        1.36964031972501        0.02469760479871
O            0.38944136964644        2.54868754863146        0.05545791736181
N           -1.33683277932387        1.02186182125965       -0.04066362617994
C           -2.29302801412938        2.11841421858715       -0.06918833693350
C           -1.87218308859190       -0.22580700274906       -0.07299777089327
O           -3.06537499946701       -0.43687809153219       -0.13479432290306
N           -0.96797129741009       -1.31045114394837       -0.04457218273565
C           -1.51516202611623       -2.64880515394923       -0.10116594025350
H            4.19013612010698        0.86721561183702        0.64518842981348
H            4.24127248667706        1.76706305460206       -1.03163673407818
H            2.88415429269971        2.08006521275461        0.37462333628920
H            3.51941192773613       -1.71619479453181        0.33774298572219
H           -1.71968776736238        3.04233063198719       -0.04475840661973
H           -2.89492459664110        2.05160379888296       -0.97355401035878
H           -2.95581382907375        2.06391882361341        0.79449443737418
H           -1.25637231953726       -3.21446830236832        0.79853530699805
H           -1.17071804305464       -3.18262712524174       -0.98900173289054
H           -2.59986821648224       -2.54502065539784       -0.17245679656621
H            1.30121314517396       -2.93013715467130        0.16410160654977
25
 energy: 44.818359914699 xtb: 6.6.1 (8d0f1dd)
C            3.30701197534900        1.13528635361862        0.08162504255589
N            2.32692063640060        0.12730170948302        0.13234418663636
C            2.57291482031098       -1.23514728746851        0.19418044716866
N            1.37966621135738       -1.93780525394836        0.18863154873177
C            0.37242916872403       -1.06559088353842        0.03526649823330
C            0.90511142359682        0.22534001508472        0.03082547784659
C            0.05509275288780        1.36772673692423        0.02660906125388
O            0.38526497256493        2.54040726775673        0.04073145334086
N           -1.34163308021183        1.02313544549954       -0.04511569588788
C           -2.29882215771320        2.12139711947975       -0.07427151838349
C           -1.87599812806178       -0.22706595873265       -0.06793173699756
O           -3.06753494922998       -0.44234471861164       -0.11975388424807
N           -0.96971495861705       -1.31329185842877       -0.04317773503668
C           -1.51629040700968       -2.65140527558508       -0.09844527131070
H            4.20210222240015        0.81416850459662        0.58919840294184
H            4.37354254174890        1.88016182629485       -1.11285473601650
H            2.88989811563715        2.07154419221265        0.40077852027923
H            3.51571909669444       -1.70249217571006        0.35497341099859
H           -1.72476782819358        3.04450631546650       -0.05072682549910
H           -2.89977022779614        2.05705253709363       -0.97941416223549
H           -2.96209506253966        2.06691664055766        0.78891809298856
H           -1.25997526177080       -3.21815710437527        0.79911571654518
H           -1.17710373194685       -3.18426369473968       -0.98921544232447
H           -2.60041239877824       -2.54897961274506       -0.16346486754015
H            1.29683531667489       -2.93811045305402        0.14650479437069
25
 energy: 51.498244135473 xtb: 6.6.1 (8d0f1dd)
C            3.27239832085931        1.11060339216227        0.13112985839484
N            2.31880577810097        0.11428341068621        0.12636371027399
C            2.56963742545020       -1.23984022393938        0.19160198265035
N            1.37620315018626       -1.94742321307153        0.20382022007680
C            0.37147643906163       -1.07326406066020        0.04744110868847
C            0.90172365734644        0.21723133892252        0.04407248513513
C            0.05119405623671        1.36569393960535        0.02958425165729
O            0.38296438802597        2.53394291026245        0.02257970174139
N           -1.34663857680551        1.02548415504951       -0.04997707249068
C           -2.30714589105725        2.12381071247367       -0.07980824715459
C           -1.87737878484177       -0.22687858136806       -0.06522162146698
O           -3.06795297720755       -0.44762701272340       -0.10439819751172
N           -0.96972668692584       -1.31472227071990       -0.03748282443299
C           -1.52125151151328       -2.65077235138177       -0.09819503325271
H            4.20684085613774        0.79136335290591        0.55618489673390
H            4.48797496376828        1.97147401924271       -1.17842382122640
H            2.89886831269918        2.06517480292810        0.44202186378686
H            3.51780976543385       -1.69328657064738        0.35583849910546
H           -1.73350970205990        3.04748506627808       -0.05571516629094
H           -2.90596906047447        2.06097665820174       -0.98643655627806
H           -2.97235541404798        2.06586979754285        0.78173380271201
H           -1.26475875503476       -3.21862480964187        0.79764934203629
H           -1.18647779904627       -3.18368294515659       -0.99113680645072
H           -2.60556508846004       -2.54446880876892       -0.15668847587410
H            1.28751350474164       -2.94560599780192        0.13257356914873
25
 energy: 55.777406765772 xtb: 6.6.1 (8d0f1dd)
C            3.25352585062217        1.08535544972757        0.16417013632936
N            2.31646440926826        0.10013926569985        0.10646157780854
C            2.56942806765481       -1.25212889406023        0.17202530091674
N            1.37152463143716       -1.95891977573295        0.21687245433321
C            0.37135303320235       -1.08150827685390        0.05765458660341
C            0.90040117108492        0.20897244630044        0.05334427269786
C            0.05004609188761        1.36192936488299        0.03496122474833
O            0.38197309878366        2.52706382916809        0.00252467979212
N           -1.35014868144409        1.02713574021085       -0.05033382533793
C           -2.30953531784117        2.12811926715628       -0.08253682728469
C           -1.87776088680369       -0.22631411613300       -0.06017477990013
O           -3.06798142381958       -0.45312086827956       -0.08622681843450
N           -0.96983722073568       -1.31716985797003       -0.03038355337743
C           -1.52756754300987       -2.65150435748113       -0.09926190355401
H            4.22129884610785        0.76619967913874        0.51435580818765
H            4.57025917764619        2.07552502231992       -1.23769695173346
H            2.91280177667883        2.05312464929535        0.47228828530219
H            3.51342050265218       -1.69314594411340        0.37864213311905
H           -1.73066228420477        3.04834735266724       -0.05582968255511
H           -2.90590920562140        2.06846194306533       -0.99145620459805
H           -2.97830875395284        2.07029169869182        0.77631582645775
H           -1.27275116920903       -3.22316764343421        0.79372110974961
H           -1.19664896997447       -3.18388917872347       -0.99439917341284
H           -2.61213542833804       -2.54273202074477       -0.15231288608392
H            1.27580174138156       -2.95430247287893        0.12284857769748
25