      -----------------------------------------------------------      
     |                   =====================                   |     
     |                           x T B                           |     
     |                   =====================                   |     
     |                         S. Grimme                         |     
     |          Mulliken Center for Theoretical Chemistry        |     
     |                    University of Bonn                     |     
      -----------------------------------------------------------      

   * xtb version 6.6.1 (8d0f1dd) compiled by 'conda@1efc2f54142f' on 2023-08-01

   xtb is free software: you can redistribute it and/or modify it under
   the terms of the GNU Lesser General Public License as published by
   the Free Software Foundation, either version 3 of the License, or
   (at your option) any later version.
   
   xtb is distributed in the hope that it will be useful,
   but WITHOUT ANY WARRANTY; without even the implied warranty of
   MERCHANTABILITY or FITNESS FOR A PARTICULAR PURPOSE.  See the
   GNU Lesser General Public License for more details.
   
   Cite this work as:
   * C. Bannwarth, E. Caldeweyher, S. Ehlert, A. Hansen, P. Pracht,
     J. Seibert, S. Spicher, S. Grimme, WIREs Comput. Mol. Sci., 2020, 11,
     e01493. DOI: 10.1002/wcms.1493
   
   for GFN2-xTB:
   * C. Bannwarth, S. Ehlert and S. Grimme., J. Chem. Theory Comput., 2019,
     15, 1652-1671. DOI: 10.1021/acs.jctc.8b01176
   for GFN1-xTB:
   * S. Grimme, C. Bannwarth, P. Shushkov, J. Chem. Theory Comput., 2017,
     13, 1989-2009. DOI: 10.1021/acs.jctc.7b00118
   for GFN0-xTB:
   * P. Pracht, E. Caldeweyher, S. Ehlert, S. Grimme, ChemRxiv, 2019, preprint.
     DOI: 10.26434/chemrxiv.8326202.v1
   for GFN-FF:
   * S. Spicher and S. Grimme, Angew. Chem. Int. Ed., 2020, 59, 15665-15673.
     DOI: 10.1002/anie.202004239
   
   for ALPB and GBSA implicit solvation:
   * S. Ehlert, M. Stahn, S. Spicher, S. Grimme, J. Chem. Theory Comput.,
     2021, 17, 4250-4261. DOI: 10.1021/acs.jctc.1c00471
   
   for DFT-D4:
   * E. Caldeweyher, C. Bannwarth and S. Grimme, J. Chem. Phys., 2017,
     147, 034112. DOI: 10.1063/1.4993215
   * E. Caldeweyher, S. Ehlert, A. Hansen, H. Neugebauer, S. Spicher,
     C. Bannwarth and S. Grimme, J. Chem. Phys., 2019, 150, 154122.
     DOI: 10.1063/1.5090222
   * E. Caldeweyher, J.-M. Mewes, S. Ehlert and S. Grimme, Phys. Chem. Chem. Phys.
     2020, 22, 8499-8512. DOI: 10.1039/D0CP00502A
   
   for sTDA-xTB:
   * S. Grimme and C. Bannwarth, J. Chem. Phys., 2016, 145, 054103.
     DOI: 10.1063/1.4959605
   
   in the mass-spec context:
   * V. Asgeirsson, C. Bauer and S. Grimme, Chem. Sci., 2017, 8, 4879.
     DOI: 10.1039/c7sc00601b
   * J. Koopman and S. Grimme, ACS Omega 2019, 4, 12, 15120-15133.
     DOI: 10.1021/acsomega.9b02011
   
   for metadynamics refer to:
   * S. Grimme, J. Chem. Theory Comput., 2019, 155, 2847-2862
     DOI: 10.1021/acs.jctc.9b00143
   
   for SPH calculations refer to:
   * S. Spicher and S. Grimme, J. Chem. Theory Comput., 2021, 17, 1701-1714
     DOI: 10.1021/acs.jctc.0c01306
   
   with help from (in alphabetical order)
   P. Atkinson, C. Bannwarth, F. Bohle, G. Brandenburg, E. Caldeweyher
   M. Checinski, S. Dohm, S. Ehlert, S. Ehrlich, I. Gerasimov, C. Hölzer
   A. Katbashev, J. Koopman, C. Lavigne, S. Lehtola, F. März, M. Müller,
   F. Musil, H. Neugebauer, J. Pisarek, C. Plett, P. Pracht, F. Pultar,
   J. Seibert, P. Shushkov, S. Spicher, M. Stahn, M. Steiner, T. Strunk,
   J. Stückrath, T. Rose, and J. Unsleber
   
 * started run on 2024/04/06 at 11:12:54.172     

           -------------------------------------------------
          |                Calculation Setup                |
           -------------------------------------------------

          program call               : xtb xtbopt.xyz --opt crude --input .xc2 --gfn2
          hostname                   : n-62-30-23
          coordinate file            : xtbopt.xyz
          omp threads                :                     1

   ID    Z sym.   atoms
    1    7 N      1, 17
    2    6 C      2-6, 8, 9, 11-16, 18-23, 25, 26, 28-33
    3    8 O      7, 10, 24, 27
    4    1 H      34-72

molecular fragmentation (1/2 indicates fragments):
111111111221111111111111111111111111112211111111111111111111111111111111
# atoms in fragment 1/2:    68     4
 fragment masses (1/2) :      425.58       30.03
CMA distance (Bohr)    :  15.799
constraining FC (au)   :  0.0500
########################################################################
[WARNING] Please study the warnings concerning your input carefully
-1- readin_getIntValue: could not parse ''
########################################################################

           -------------------------------------------------
          |                 G F N 2 - x T B                 |
           -------------------------------------------------

        Reference                      10.1021/acs.jctc.8b01176
      * Hamiltonian:
        H0-scaling (s, p, d)           1.850000    2.230000    2.230000
        zeta-weighting                 0.500000
      * Dispersion:
        s8                             2.700000
        a1                             0.520000
        a2                             5.000000
        s9                             5.000000
      * Repulsion:
        kExp                           1.500000    1.000000
        rExp                           1.000000
      * Coulomb:
        alpha                          2.000000
        third order                    shell-resolved
        anisotropic                    true
        a3                             3.000000
        a5                             4.000000
        cn-shift                       1.200000
        cn-exp                         4.000000
        max-rad                        5.000000

q/qsh data taken from xtbrestart
CAMM data taken from xtbrestart

          ...................................................
          :                      SETUP                      :
          :.................................................:
          :  # basis functions                 171          :
          :  # atomic orbitals                 171          :
          :  # shells                          105          :
          :  # electrons                       180          :
          :  max. iterations                   250          :
          :  Hamiltonian                  GFN2-xTB          :
          :  restarted?                       true          :
          :  GBSA solvation                  false          :
          :  PC potential                    false          :
          :  electronic temp.         5000.0000000     K    :
          :  accuracy                    1.0000000          :
          :  -> integral cutoff          0.2500000E+02      :
          :  -> integral neglect         0.1000000E-07      :
          :  -> SCF convergence          0.1000000E-05 Eh   :
          :  -> wf. convergence          0.1000000E-03 e    :
          :  Broyden damping             0.4000000          :
          ...................................................

 iter      E             dE          RMSdq      gap      omega  full diag
   1   -100.7622699 -0.100762E+03  0.355E-05    1.67       0.0  T
   2   -100.7622699  0.172037E-09  0.524E-05    1.67     224.8  T
   3   -100.7622699 -0.283649E-09  0.889E-06    1.67    1325.2  T

   *** convergence criteria satisfied after 3 iterations ***

         #    Occupation            Energy/Eh            Energy/eV
      -------------------------------------------------------------
         1        2.0000           -0.8074163             -21.9709
       ...           ...                  ...                  ...
        84        1.9909           -0.5040288             -13.7153
        85        1.9820           -0.4932326             -13.4215
        86        1.9774           -0.4895401             -13.3211
        87        1.9668           -0.4833618             -13.1529
        88        1.9300           -0.4712635             -12.8237
        89        1.9233           -0.4697762             -12.7833
        90        1.8349           -0.4568888             -12.4326 (HOMO)
        91        0.3754           -0.3955590             -10.7637 (LUMO)
        92        0.0278           -0.3512759              -9.5587
        93        0.0127           -0.3387819              -9.2187
        94        0.0035           -0.3182003              -8.6587
        95        0.0026           -0.3134854              -8.5304
       ...           ...                  ...                  ...
       171                          0.5750780              15.6487
      -------------------------------------------------------------
                  HL-Gap            0.0613298 Eh            1.6689 eV
             Fermi-level           -0.4187546 Eh          -11.3949 eV

 SCC (total)                   0 d,  0 h,  0 min,  0.119 sec
 SCC setup                      ...        0 min,  0.001 sec (  1.059%)
 Dispersion                     ...        0 min,  0.002 sec (  1.683%)
 classical contributions        ...        0 min,  0.001 sec (  0.478%)
 integral evaluation            ...        0 min,  0.018 sec ( 15.116%)
 iterations                     ...        0 min,  0.028 sec ( 23.137%)
 molecular gradient             ...        0 min,  0.069 sec ( 57.978%)
 printout                       ...        0 min,  0.001 sec (  0.536%)

         :::::::::::::::::::::::::::::::::::::::::::::::::::::
         ::                     SUMMARY                     ::
         :::::::::::::::::::::::::::::::::::::::::::::::::::::
         :: total energy             -99.357582849874 Eh    ::
         :: gradient norm              0.002102766436 Eh/a0 ::
         :: HOMO-LUMO gap              1.668868144627 eV    ::
         ::.................................................::
         :: SCC energy              -100.762269924409 Eh    ::
         :: -> isotropic ES            0.114042646616 Eh    ::
         :: -> anisotropic ES          0.002789438409 Eh    ::
         :: -> anisotropic XC          0.048613124778 Eh    ::
         :: -> dispersion             -0.072878099549 Eh    ::
         :: repulsion energy           1.403517403737 Eh    ::
         :: add. restraining           0.000000000000 Eh    ::
         :: total charge               1.000000000655 e     ::
         :::::::::::::::::::::::::::::::::::::::::::::::::::::

      ----------------------------------------------------------- 
     |                   =====================                   |
     |                        A N C O P T                        |
     |                   =====================                   |
     |               Approximate Normal Coordinate               |
     |                Rational Function Optimizer                |
      ----------------------------------------------------------- 

          ...................................................
          :                      SETUP                      :
          :.................................................:
          :   optimization level             crude          :
          :   max. optcycles                   200          :
          :   ANC micro-cycles                  20          :
          :   degrees of freedom               210          :
          :.................................................:
          :   RF solver                   davidson          :
          :   write xtbopt.log                true          :
          :   linear?                        false          :
          :   energy convergence         0.5000000E-03 Eh   :
          :   grad. convergence          0.1000000E-01 Eh/α :
          :   maxmium RF displ.          1.0000000          :
          :   Hlow (freq-cutoff)         0.1000000E-01      :
          :   Hmax (freq-cutoff)         5.0000000          :
          :   S6 in model hess.         20.0000000          :
          ...................................................

generating ANC from model Hessian ...
Using Lindh-Hessian (1995)
 Shifting diagonal of input Hessian by    1.0041096917459250E-002
 Lowest  eigenvalues of input Hessian
    0.010000    0.010021    0.000000    0.000000    0.000000    0.000000
    0.000000    0.000000    0.010057    0.010079    0.010110    0.010205
    0.010260    0.010309    0.010618    0.010666    0.010739    0.010794
 Highest eigenvalues
    2.009780    2.048363    2.111037    2.121968    2.184786    2.219292


........................................................................
.............................. CYCLE    1 ..............................
........................................................................

 iter      E             dE          RMSdq      gap      omega  full diag
   1   -100.7622699 -0.100762E+03  0.489E-06    1.67       0.0  T
   2   -100.7622699 -0.213163E-12  0.355E-06    1.67    3323.4  T
   3   -100.7622699 -0.554223E-12  0.241E-06    1.67    4890.4  T
     SCC iter.                  ...        0 min,  0.026 sec
     gradient                   ...        0 min,  0.068 sec
 * total energy  :   -99.3575828 Eh     change       -0.5684342E-12 Eh
   gradient norm :     0.0021028 Eh/α   predicted     0.0000000E+00 (-100.00%)
   displ. norm   :     0.0996658 α      lambda       -0.1183291E-03
   maximum displ.:     0.0673480 α      in ANC's #14, #3, #7, ...

   *** GEOMETRY OPTIMIZATION CONVERGED AFTER 1 ITERATIONS ***

------------------------------------------------------------------------
 total energy gain   :        -0.0000000 Eh       -0.0000 kcal/mol
 total RMSD          :         0.0000000 a0        0.0000 Å
 total power (kW/mol):        -0.0000000 (step)   -0.0000 (real)
------------------------------------------------------------------------

 ANCopt (total)                0 d,  0 h,  0 min,  0.180 sec
 optimizer setup                ...        0 min,  0.000 sec (  0.145%)
 model hessian                  ...        0 min,  0.055 sec ( 30.738%)
 ANC generation                 ...        0 min,  0.006 sec (  3.547%)
 coordinate transformation      ...        0 min,  0.000 sec (  0.023%)
 single point calculation       ...        0 min,  0.116 sec ( 64.193%)
 optimization log               ...        0 min,  0.002 sec (  1.182%)
 hessian update                 ...        0 min,  0.000 sec (  0.001%)
 rational function              ...        0 min,  0.000 sec (  0.105%)

================
 final structure:
================
72
 xtb: 6.6.1 (8d0f1dd)
N           -1.90078324675963        3.05401260925461        2.22153291233462
C           -1.82769174915002        2.34367856819904        1.19785351660992
C           -2.95548793818271        2.11903454674833        0.22945929499506
C           -3.39297191817824        0.66275713637846        0.28691000507234
C           -4.28496082465806        0.17588349853436       -0.66507522224913
C           -4.73452242463099       -1.14134917971182       -0.61524577315625
O           -5.61005639883733       -1.68796339446333       -1.48441302264635
C           -6.18264807194659       -0.88789487558334       -2.49147120100575
C           -4.26245858922147       -1.98939674293409        0.39362798894091
O           -4.51822009151974       -5.57136073968201        1.49152091493099
C           -4.78047640911098       -6.46692822394347        2.23981757698169
C           -3.38014810169017       -1.50797389049264        1.33416205268976
C           -2.94521198226486       -0.18951609015138        1.28949152963414
C           -2.38420032464298        2.45497995346191       -1.17270041303044
C           -1.44143265197723        1.38704124557459       -1.75771131611814
C           -0.13030200188746        1.30145299081747       -1.07768539162360
N            0.47082738419573        0.17992694411819       -0.70713724225652
C            1.84529487296634        0.19815512746986       -0.26433409542471
C            2.80740502680709       -0.23007826056608       -1.38978719426441
C            4.23251135990762       -0.08892482859873       -0.93331784976541
C            4.90613376576692        1.11171030922254       -1.09180800810349
C            6.21329693526668        1.25633614225795       -0.65426768877045
C            6.87398367876146        0.20032564144939       -0.04272475780693
O            8.13780452310928        0.22547462985219        0.41736897652644
C            8.89964488346627        1.40232357591860        0.27396772311978
C            6.18975289678873       -1.03564950005710        0.12750040442696
O            6.90621587177280       -2.00776987828106        0.72452839621497
C            6.32923411916228       -3.27858507046202        0.90816674834588
C            4.88187859017733       -1.15532935184588       -0.31633078509707
C           -0.17309025981207       -1.10774516173835       -0.81491803151339
C           -4.20215935513914        3.00714070158442        0.51863859866032
C           -4.84341142525746        2.65415007660077        1.85853738002358
C           -3.89956370596435        4.50195981342676        0.46886900027356
H           -4.64407346424845        0.83360792552898       -1.43973784717890
H           -6.72532799746520       -0.03759192232882       -2.06876691842254
H           -6.88289496479083       -1.53355679253583       -3.01759003901365
H           -5.42706791049336       -0.52800040232803       -3.19669448303173
H           -4.61269814708738       -3.00828437745873        0.42408933973636
H           -5.78377218839539       -6.60767434311258        2.67072613556993
H           -4.03557087877831       -7.21622463948757        2.55160700685692
H           -3.03145091903312       -2.16127378142090        2.11897841352984
H           -2.28021704506028        0.17660342929876        2.05657980399094
H           -3.21414032350051        2.58183241597952       -1.86723777401151
H           -1.85428845599181        3.40663987378961       -1.11644694518172
H           -1.94678397143746        0.42348947351655       -1.77645856361096
H           -1.24549630354139        1.68441423277443       -2.79621839776244
H           -0.90139558270453        1.83470113127108        0.86668279916251
H            0.45098615349991        2.20908901921334       -1.00186650497069
H            1.95704749031691       -0.47613861806847        0.58836942050446
H            2.10872252128753        1.20690014634743        0.06023196648582
H            2.63282633702809        0.40719480306706       -2.25856208080610
H            2.60298541922625       -1.26328333935318       -1.67237024824337
H            4.41826269245809        1.94558004039731       -1.57338075037009
H            6.71378088896267        2.19937846908432       -0.80031858651282
H            8.44583770497667        2.24132569010203        0.81005812940477
H            9.03034724343635        1.66851326395609       -0.77913629180826
H            9.86985657467912        1.17687352334111        0.71225675235662
H            7.10047887780236       -3.88344043594622        1.38106602768223
H            5.45446783978988       -3.23134293840522        1.56462031207408
H            6.04766288658219       -3.73334317070923       -0.04659265427483
H            4.35753731504554       -2.09070641781289       -0.19845780031878
H           -0.33020842428772       -1.38529310507858       -1.85914710438164
H           -1.13904599710544       -1.09647846469687       -0.30420947339336
H            0.45294045025960       -1.86276992209025       -0.34727134916173
H           -4.92976899331484        2.78334005442721       -0.27006235178896
H           -4.16726707879310        2.89864604039882        2.67140474669629
H           -5.09080940934051        1.59671644540870        1.91146694019901
H           -5.75895889943408        3.22584269190288        1.98493550655216
H           -3.14757812726828        4.75961981549744        1.20836988969109
H           -3.55925847700758        4.81548911627034       -0.51447951567421
H           -4.80560652863638        5.05583539892334        0.69977770909452
H           -1.06773114727047        3.15803087034222        2.79202459734026

 Bond Distances (Angstroems)
 ---------------------------
N1-C2=1.2481         N1-H72=1.0150        C2-N1=1.2481         C2-C3=1.5034         C2-H47=1.1076        C3-C2=1.5034         
C3-C4=1.5217         C3-C14=1.5509        C3-C31=1.5577        C4-C3=1.5217         C4-C5=1.3925         C4-C13=1.3900        
C5-C4=1.3925         C5-C6=1.3927         C5-H34=1.0778        C6-C5=1.3927         C6-O7=1.3494         C6-C9=1.3999         
O7-C6=1.3494         O7-C8=1.4079         C8-O7=1.4079         C8-H35=1.0937        C8-H36=1.0881        C8-H37=1.0944        
C9-C6=1.3999         C9-C12=1.3765        C9-H38=1.0778        O10-C11=1.1961       C11-O10=1.1961       C11-H39=1.1010       
C11-H40=1.1016       C12-C9=1.3765        C12-C13=1.3891       C12-H41=1.0790       C13-C4=1.3900        C13-C12=1.3891       
C13-H42=1.0792       C14-C3=1.5509        C14-C15=1.5400       C14-H43=1.0896       C14-H44=1.0907       C15-C14=1.5400       
C15-C16=1.4795       C15-H45=1.0882       C15-H46=1.0979       C16-C15=1.4795       C16-N17=1.3253       C16-H48=1.0805       
N17-C16=1.3253       N17-C18=1.4441       N17-C30=1.4437       C18-N17=1.4441       C18-C19=1.5413       C18-H49=1.0928       
C18-H50=1.0919       C19-C18=1.5413       C19-C20=1.5031       C19-H51=1.0915       C19-H52=1.0905       C20-C19=1.5031       
C20-C21=1.3858       C20-C29=1.3927       C21-C20=1.3858       C21-C22=1.3860       C21-H53=1.0795       C22-C21=1.3860       
C22-C23=1.3877       C22-H54=1.0776       C23-C22=1.3877       C23-O24=1.3452       C23-C26=1.4229       O24-C23=1.3452       
O24-C25=1.4092       C25-O24=1.4092       C25-H55=1.0942       C25-H56=1.0941       C25-H57=1.0882       C26-C23=1.4229       
C26-O27=1.3471       C26-C29=1.3863       O27-C26=1.3471       O27-C28=1.4077       C28-O27=1.4077       C28-H58=1.0883       
C28-H59=1.0947       C28-H60=1.0944       C29-C20=1.3927       C29-C26=1.3863       C29-H61=1.0788       C30-N17=1.4437       
C30-H62=1.0918       C30-H63=1.0927       C30-H64=1.0866       C31-C3=1.5577        C31-C32=1.5268       C31-C33=1.5260       
C31-H65=1.0962       C32-C31=1.5268       C32-H66=1.0852       C32-H67=1.0873       C32-H68=1.0868       C33-C31=1.5260       
C33-H69=1.0857       C33-H70=1.0868       C33-H71=1.0867       H34-C5=1.0778        H35-C8=1.0937        H36-C8=1.0881        
H37-C8=1.0944        H38-C9=1.0778        H39-C11=1.1010       H40-C11=1.1016       H41-C12=1.0790       H42-C13=1.0792       
H43-C14=1.0896       H44-C14=1.0907       H45-C15=1.0882       H46-C15=1.0979       H47-C2=1.1076        H48-C16=1.0805       
H49-C18=1.0928       H50-C18=1.0919       H51-C19=1.0915       H52-C19=1.0905       H53-C21=1.0795       H54-C22=1.0776       
H55-C25=1.0942       H56-C25=1.0941       H57-C25=1.0882       H58-C28=1.0883       H59-C28=1.0947       H60-C28=1.0944       
H61-C29=1.0788       H62-C30=1.0918       H63-C30=1.0927       H64-C30=1.0866       H65-C31=1.0962       H66-C32=1.0852       
H67-C32=1.0873       H68-C32=1.0868       H69-C33=1.0857       H70-C33=1.0868       H71-C33=1.0867       H72-N1=1.0150        
 C  H  Rav=1.0892 sigma=0.0071  Rmin=1.0776  Rmax=1.1076    38
 C  C  Rav=1.4524 sigma=0.0686  Rmin=1.3765  Rmax=1.5577    22
 N  H  Rav=1.0150 sigma=0.0000  Rmin=1.0150  Rmax=1.0150     1
 N  C  Rav=1.3653 sigma=0.0832  Rmin=1.2481  Rmax=1.4441     4
 O  C  Rav=1.3518 sigma=0.0696  Rmin=1.1961  Rmax=1.4092     7

 selected bond angles (degree)
 --------------------
H72-N1-C2=118.11               C3-C2-N1=124.71                H47-C2-N1=123.76               H47-C2-C3=111.48               
C4-C3-C2=109.53                C14-C3-C2=105.88               C14-C3-C4=110.33               C31-C3-C2=113.30               
C31-C3-C4=107.97               C31-C3-C14=109.82              C5-C4-C3=119.54                C13-C4-C3=121.43               
C13-C4-C5=119.02               C6-C5-C4=120.86                H34-C5-C4=119.44               H34-C5-C6=119.69               
O7-C6-C5=124.72                C9-C6-C5=119.33                C9-C6-O7=115.95                C8-O7-C6=119.63                
H35-C8-O7=111.54               H36-C8-O7=105.69               H36-C8-H35=109.20              H37-C8-O7=111.53               
H37-C8-H35=109.63              H37-C8-H36=109.14              C12-C9-C6=119.78               H38-C9-C6=118.91               
H38-C9-C12=121.30              

 selected dihedral angles (degree)
 ---------------------------------
C3-C2-N1-H72=181.76           H47-C2-N1-H72=358.89          C4-C3-C2-N1=246.70            C4-C3-C2-H47= 69.27           
C14-C3-C2-N1=127.74           C14-C3-C2-H47=310.31          C31-C3-C2-N1=  7.31           C31-C3-C2-H47=189.88          
C5-C4-C3-C2=189.66            C5-C4-C3-C14=305.83           C5-C4-C3-C31= 65.86           C13-C4-C3-C2= 11.15           
C13-C4-C3-C14=127.32          C13-C4-C3-C31=247.35          C6-C5-C4-C3=181.92            C6-C5-C4-C13=  0.47           
H34-C5-C4-C3=  0.85           H34-C5-C4-C13=179.40          O7-C6-C5-C4=179.07            O7-C6-C5-H34=  0.14           
C9-C6-C5-C4=358.89            C9-C6-C5-H34=179.96           C8-O7-C6-C5=356.82            C8-O7-C6-C9=177.00            
H35-C8-O7-C6=301.58           H36-C8-O7-C6=183.02           H37-C8-O7-C6= 64.54           C12-C9-C6-C5=  1.07           
C12-C9-C6-O7=180.90           H38-C9-C6-C5=180.17           H38-C9-C6-O7=  0.00           

 CMA Distance (Angstroems)
 ---------------------------
R(CMA):  8.3606
           -------------------------------------------------
          |                Final Singlepoint                |
           -------------------------------------------------

          ...................................................
          :                      SETUP                      :
          :.................................................:
          :  # basis functions                 171          :
          :  # atomic orbitals                 171          :
          :  # shells                          105          :
          :  # electrons                       180          :
          :  max. iterations                   250          :
          :  Hamiltonian                  GFN2-xTB          :
          :  restarted?                      false          :
          :  GBSA solvation                  false          :
          :  PC potential                    false          :
          :  electronic temp.         5000.0000000     K    :
          :  accuracy                    1.0000000          :
          :  -> integral cutoff          0.2500000E+02      :
          :  -> integral neglect         0.1000000E-07      :
          :  -> SCF convergence          0.1000000E-05 Eh   :
          :  -> wf. convergence          0.1000000E-03 e    :
          :  Broyden damping             0.4000000          :
          ...................................................

 iter      E             dE          RMSdq      gap      omega  full diag
   1   -100.7622699 -0.100762E+03  0.197E-06    1.67       0.0  T
   2   -100.7622699  0.682121E-12  0.273E-06    1.67    4321.1  T
   3   -100.7622699 -0.108002E-11  0.635E-07    1.67   18573.6  T

   *** convergence criteria satisfied after 3 iterations ***

         #    Occupation            Energy/Eh            Energy/eV
      -------------------------------------------------------------
         1        2.0000           -0.8074163             -21.9709
       ...           ...                  ...                  ...
        84        1.9909           -0.5040288             -13.7153
        85        1.9820           -0.4932327             -13.4215
        86        1.9774           -0.4895401             -13.3211
        87        1.9668           -0.4833618             -13.1529
        88        1.9300           -0.4712635             -12.8237
        89        1.9233           -0.4697762             -12.7833
        90        1.8349           -0.4568888             -12.4326 (HOMO)
        91        0.3754           -0.3955589             -10.7637 (LUMO)
        92        0.0278           -0.3512759              -9.5587
        93        0.0127           -0.3387819              -9.2187
        94        0.0035           -0.3182004              -8.6587
        95        0.0026           -0.3134853              -8.5304
       ...           ...                  ...                  ...
       171                          0.5750780              15.6487
      -------------------------------------------------------------
                  HL-Gap            0.0613298 Eh            1.6689 eV
             Fermi-level           -0.4187546 Eh          -11.3949 eV

 SCC (total)                   0 d,  0 h,  0 min,  0.113 sec
 SCC setup                      ...        0 min,  0.001 sec (  0.777%)
 Dispersion                     ...        0 min,  0.001 sec (  1.085%)
 classical contributions        ...        0 min,  0.000 sec (  0.388%)
 integral evaluation            ...        0 min,  0.017 sec ( 14.901%)
 iterations                     ...        0 min,  0.024 sec ( 21.549%)
 molecular gradient             ...        0 min,  0.068 sec ( 60.767%)
 printout                       ...        0 min,  0.001 sec (  0.520%)

         :::::::::::::::::::::::::::::::::::::::::::::::::::::
         ::                     SUMMARY                     ::
         :::::::::::::::::::::::::::::::::::::::::::::::::::::
         :: total energy             -99.357582849875 Eh    ::
         :: gradient norm              0.002102838160 Eh/a0 ::
         :: HOMO-LUMO gap              1.668870086992 eV    ::
         ::.................................................::
         :: SCC energy              -100.762269924410 Eh    ::
         :: -> isotropic ES            0.114042718647 Eh    ::
         :: -> anisotropic ES          0.002789425150 Eh    ::
         :: -> anisotropic XC          0.048613128804 Eh    ::
         :: -> dispersion             -0.072878098908 Eh    ::
         :: repulsion energy           1.403517403737 Eh    ::
         :: add. restraining           0.000000000000 Eh    ::
         :: total charge               1.000000000655 e     ::
         :::::::::::::::::::::::::::::::::::::::::::::::::::::

           -------------------------------------------------
          |                Property Printout                |
           -------------------------------------------------

    * Orbital Energies and Occupations

         #    Occupation            Energy/Eh            Energy/eV
      -------------------------------------------------------------
         1        2.0000           -0.8074163             -21.9709
       ...           ...                  ...                  ...
        78        1.9980           -0.5280746             -14.3696
        79        1.9977           -0.5256970             -14.3049
        80        1.9969           -0.5210711             -14.1791
        81        1.9968           -0.5204534             -14.1623
        82        1.9955           -0.5151899             -14.0190
        83        1.9944           -0.5118463             -13.9280
        84        1.9909           -0.5040288             -13.7153
        85        1.9820           -0.4932327             -13.4215
        86        1.9774           -0.4895401             -13.3211
        87        1.9668           -0.4833618             -13.1529
        88        1.9300           -0.4712635             -12.8237
        89        1.9233           -0.4697762             -12.7833
        90        1.8349           -0.4568888             -12.4326 (HOMO)
        91        0.3754           -0.3955589             -10.7637 (LUMO)
        92        0.0278           -0.3512759              -9.5587
        93        0.0127           -0.3387819              -9.2187
        94        0.0035           -0.3182004              -8.6587
        95        0.0026           -0.3134853              -8.5304
        96        0.0022           -0.3112490              -8.4695
        97        0.0018           -0.3080060              -8.3813
        98        0.0000           -0.1886980              -5.1347
        99        0.0000           -0.1864441              -5.0734
       100                         -0.1363589              -3.7105
       101                         -0.0680566              -1.8519
       ...                                ...                  ...
       171                          0.5750780              15.6487
      -------------------------------------------------------------
                  HL-Gap            0.0613298 Eh            1.6689 eV
             Fermi-level           -0.4187546 Eh          -11.3949 eV

     #   Z          covCN         q      C6AA      α(0)
     1   7 N        1.774    -0.266    27.733     7.798
     2   6 C        2.827     0.102    25.723     8.311
     3   6 C        3.908     0.006    20.426     6.424
     4   6 C        2.976     0.010    27.783     8.646
     5   6 C        2.921    -0.076    29.909     8.968
     6   6 C        2.863     0.150    24.741     8.153
     7   8 O        1.706    -0.243    18.029     5.733
     8   6 C        3.644     0.030    20.408     6.494
     9   6 C        2.919    -0.054    29.348     8.884
    10   8 O        0.856    -0.279    19.406     5.906
    11   6 C        2.702     0.180    24.126     8.039
    12   6 C        2.917    -0.030    28.756     8.794
    13   6 C        2.921    -0.053    29.305     8.877
    14   6 C        3.812    -0.063    21.709     6.632
    15   6 C        3.802    -0.069    21.824     6.651
    16   6 C        2.844     0.010    27.798     8.641
    17   7 N        2.729     0.016    20.982     6.803
    18   6 C        3.756    -0.017    20.933     6.523
    19   6 C        3.808    -0.071    21.843     6.653
    20   6 C        2.969     0.000    28.018     8.682
    21   6 C        2.922    -0.048    29.204     8.862
    22   6 C        2.914    -0.067    29.674     8.933
    23   6 C        2.865     0.134    25.070     8.207
    24   8 O        1.706    -0.220    17.658     5.674
    25   6 C        3.645     0.025    20.496     6.506
    26   6 C        2.863     0.134    25.076     8.208
    27   8 O        1.706    -0.223    17.703     5.681
    28   6 C        3.645     0.027    20.464     6.502
    29   6 C        2.919    -0.079    29.977     8.979
    30   6 C        3.700    -0.073    22.059     6.717
    31   6 C        3.853    -0.007    20.661     6.465
    32   6 C        3.756    -0.118    22.815     6.811
    33   6 C        3.755    -0.119    22.828     6.813
    34   1 H        0.926     0.044     2.398     2.422
    35   1 H        0.924     0.052     2.299     2.371
    36   1 H        0.925     0.078     2.003     2.213
    37   1 H        0.924     0.045     2.386     2.416
    38   1 H        0.926     0.081     1.968     2.194
    39   1 H        0.923     0.054     2.272     2.357
    40   1 H        0.923     0.051     2.309     2.376
    41   1 H        0.926     0.052     2.300     2.371
    42   1 H        0.926     0.033     2.542     2.493
    43   1 H        0.925     0.061     2.189     2.314
    44   1 H        0.924     0.053     2.284     2.363
    45   1 H        0.925     0.068     2.112     2.272
    46   1 H        0.924     0.080     1.975     2.198
    47   1 H        0.922     0.006     2.959     2.690
    48   1 H        0.926     0.070     2.083     2.257
    49   1 H        0.924     0.069     2.093     2.262
    50   1 H        0.924     0.068     2.112     2.273
    51   1 H        0.924     0.055     2.255     2.349
    52   1 H        0.924     0.057     2.236     2.339
    53   1 H        0.926     0.045     2.378     2.411
    54   1 H        0.926     0.059     2.210     2.325
    55   1 H        0.924     0.055     2.261     2.352
    56   1 H        0.924     0.057     2.240     2.340
    57   1 H        0.925     0.083     1.949     2.183
    58   1 H        0.925     0.083     1.953     2.186
    59   1 H        0.924     0.050     2.323     2.383
    60   1 H        0.924     0.053     2.279     2.361
    61   1 H        0.926     0.048     2.339     2.391
    62   1 H        0.924     0.078     2.004     2.214
    63   1 H        0.924     0.084     1.936     2.176
    64   1 H        0.925     0.082     1.962     2.190
    65   1 H        0.924     0.038     2.482     2.464
    66   1 H        0.925     0.069     2.099     2.266
    67   1 H        0.925     0.037     2.488     2.466
    68   1 H        0.925     0.051     2.309     2.376
    69   1 H        0.925     0.061     2.192     2.315
    70   1 H        0.925     0.035     2.521     2.483
    71   1 H        0.925     0.055     2.261     2.351
    72   1 H        0.860     0.158     1.350     1.820

 Mol. C6AA /au·bohr⁶  :      47807.939344
 Mol. C8AA /au·bohr⁸  :    1090547.398408
 Mol. α(0) /au        :        336.553779


Wiberg/Mayer (AO) data.
largest (>0.10) Wiberg bond orders for each atom

 ---------------------------------------------------------------------------
     #   Z sym  total        # sym  WBO       # sym  WBO       # sym  WBO
 ---------------------------------------------------------------------------
     1   7 N    3.040 --     2 C    1.958    72 H    0.941
     2   6 C    3.931 --     1 N    1.958     3 C    0.994    47 H    0.900
     3   6 C    3.974 --     2 C    0.994     4 C    0.968    14 C    0.957
                            31 C    0.942
     4   6 C    3.967 --    13 C    1.406     5 C    1.401     3 C    0.968
     5   6 C    3.957 --     4 C    1.401     6 C    1.362    34 H    0.959
     6   6 C    3.913 --     5 C    1.362     9 C    1.319     7 O    1.094
     7   8 O    2.248 --     6 C    1.094     8 C    0.979
     8   6 C    3.935 --     7 O    0.979    36 H    0.977    37 H    0.974
                            35 H    0.974
     9   6 C    3.949 --    12 C    1.476     6 C    1.319    38 H    0.962
    10   8 O    2.073 --    11 C    1.984
    11   6 C    3.862 --    10 O    1.984    40 H    0.939    39 H    0.939
    12   6 C    3.977 --     9 C    1.476    13 C    1.403    41 H    0.968
    13   6 C    3.952 --     4 C    1.406    12 C    1.403    42 H    0.962
    14   6 C    3.973 --    15 C    0.979    44 H    0.973    43 H    0.968
                             3 C    0.957
    15   6 C    3.986 --    16 C    1.060    14 C    0.979    45 H    0.962
                            46 H    0.927
    16   6 C    3.609 --    17 N    1.414    15 C    1.060    48 H    0.957
    17   7 N    3.491 --    16 C    1.414    30 C    0.997    18 C    0.988
    18   6 C    3.955 --    17 N    0.988    50 H    0.968    19 C    0.966
                            49 H    0.964
    19   6 C    3.976 --    20 C    1.008    52 H    0.972    51 H    0.972
                            18 C    0.966
    20   6 C    3.943 --    21 C    1.407    29 C    1.381    19 C    1.008
    21   6 C    3.948 --    22 C    1.418    20 C    1.407    53 H    0.968
    22   6 C    3.958 --    21 C    1.418    23 C    1.382    54 H    0.963
    23   6 C    3.893 --    22 C    1.382    26 C    1.218    24 O    1.112
    24   8 O    2.255 --    23 C    1.112    25 C    0.976
    25   6 C    3.927 --    57 H    0.977    24 O    0.976    55 H    0.972
                            56 H    0.972
    26   6 C    3.897 --    29 C    1.394    23 C    1.218    27 O    1.106
    27   8 O    2.255 --    26 C    1.106    28 C    0.978
    28   6 C    3.931 --    27 O    0.978    58 H    0.977    59 H    0.973
                            60 H    0.973
    29   6 C    3.958 --    26 C    1.394    20 C    1.381    61 H    0.962
    30   6 C    3.955 --    17 N    0.997    64 H    0.977    62 H    0.966
                            63 H    0.958
    31   6 C    3.973 --    33 C    1.009    32 C    1.008    65 H    0.959
                             3 C    0.942
    32   6 C    3.977 --    31 C    1.008    67 H    0.981    68 H    0.981
                            66 H    0.973
    33   6 C    3.982 --    31 C    1.009    70 H    0.983    71 H    0.980
                            69 H    0.976
    34   1 H    0.997 --     5 C    0.959
    35   1 H    0.994 --     8 C    0.974
    36   1 H    0.993 --     8 C    0.977
    37   1 H    0.994 --     8 C    0.974
    38   1 H    0.991 --     9 C    0.962
    39   1 H    0.987 --    11 C    0.939
    40   1 H    0.987 --    11 C    0.939
    41   1 H    0.995 --    12 C    0.968
    42   1 H    0.998 --    13 C    0.962
    43   1 H    0.995 --    14 C    0.968
    44   1 H    0.996 --    14 C    0.973
    45   1 H    0.995 --    15 C    0.962
    46   1 H    0.971 --    15 C    0.927
    47   1 H    0.985 --     2 C    0.900
    48   1 H    0.995 --    16 C    0.957
    49   1 H    0.991 --    18 C    0.964
    50   1 H    0.994 --    18 C    0.968
    51   1 H    0.996 --    19 C    0.972
    52   1 H    0.996 --    19 C    0.972
    53   1 H    0.997 --    21 C    0.968
    54   1 H    0.995 --    22 C    0.963
    55   1 H    0.991 --    25 C    0.972
    56   1 H    0.991 --    25 C    0.972
    57   1 H    0.992 --    25 C    0.977
    58   1 H    0.992 --    28 C    0.977
    59   1 H    0.993 --    28 C    0.973
    60   1 H    0.992 --    28 C    0.973
    61   1 H    0.996 --    29 C    0.962
    62   1 H    0.985 --    30 C    0.966
    63   1 H    0.986 --    30 C    0.958
    64   1 H    0.993 --    30 C    0.977
    65   1 H    0.992 --    31 C    0.959
    66   1 H    0.990 --    32 C    0.973
    67   1 H    0.996 --    32 C    0.981
    68   1 H    0.994 --    32 C    0.981
    69   1 H    0.993 --    33 C    0.976
    70   1 H    0.997 --    33 C    0.983
    71   1 H    0.994 --    33 C    0.980
    72   1 H    0.970 --     1 N    0.941
 ---------------------------------------------------------------------------

Topologies differ in total number of bonds
Writing topology from bond orders to xtbtopo.mol

molecular dipole:
                 x           y           z       tot (Debye)
 q only:        0.811       0.033      -0.778
   full:        0.982      -0.133      -0.922       3.440
molecular quadrupole (traceless):
                xx          xy          yy          xz          yz          zz
 q only:       48.559       8.143      -8.725       4.033     -16.048     -39.834
  q+dip:       42.327      16.243      -3.928       6.551     -22.774     -38.398
   full:       41.973      16.054      -5.120       4.190     -21.503     -36.853

           -------------------------------------------------
          |                Geometry Summary                 |
           -------------------------------------------------

      molecular mass/u    :      455.6105846
   center of mass at/Å    :        0.0259786      -0.0409580       0.0259017
  moments of inertia/u·Å² :        0.3240427E+04   0.1081707E+05   0.1277112E+05
rotational constants/cm⁻¹ :        0.5202288E-02   0.1558428E-02   0.1319981E-02

 * 65 selected distances

     #   Z          #   Z                                           value/Å
     1   7 N        2   6 C                                       1.2481333
     4   6 C        5   6 C                                       1.3924677
     5   6 C        6   6 C                                       1.3927279
     6   6 C        7   8 O                                       1.3493698
     7   8 O        8   6 C                                       1.4078840
     6   6 C        9   6 C                                       1.3999484
    10   8 O       11   6 C                                       1.1961470
     9   6 C       12   6 C                                       1.3765335
     4   6 C       13   6 C                                       1.3899743
    12   6 C       13   6 C                                       1.3890631
    14   6 C       15   6 C                                       1.5399812
    15   6 C       16   6 C                                       1.4794677
    16   6 C       17   7 N                                       1.3253239
    17   7 N       18   6 C                                       1.4441496
    18   6 C       19   6 C                                       1.5413257 (max)
    20   6 C       21   6 C                                       1.3857891
    21   6 C       22   6 C                                       1.3860137
    22   6 C       23   6 C                                       1.3876780
    23   6 C       24   8 O                                       1.3451997
    24   8 O       25   6 C                                       1.4092333
    23   6 C       26   6 C                                       1.4229488
    26   6 C       27   8 O                                       1.3471377
    27   8 O       28   6 C                                       1.4076941
    20   6 C       29   6 C                                       1.3926844
    26   6 C       29   6 C                                       1.3863062
    17   7 N       30   6 C                                       1.4437266
    31   6 C       32   6 C                                       1.5268057
    31   6 C       33   6 C                                       1.5259508
     5   6 C       34   1 H                                       1.0778060
     8   6 C       35   1 H                                       1.0937073
     8   6 C       36   1 H                                       1.0881297
     8   6 C       37   1 H                                       1.0944247
     9   6 C       38   1 H                                       1.0778348
    11   6 C       39   1 H                                       1.1009515
    11   6 C       40   1 H                                       1.1016089
    12   6 C       41   1 H                                       1.0790400
    13   6 C       42   1 H                                       1.0792064
    14   6 C       43   1 H                                       1.0896212
    14   6 C       44   1 H                                       1.0907006
    15   6 C       45   1 H                                       1.0881928
    15   6 C       46   1 H                                       1.0978702
    16   6 C       48   1 H                                       1.0804850
    18   6 C       49   1 H                                       1.0928240
    18   6 C       50   1 H                                       1.0919267
    19   6 C       51   1 H                                       1.0914965
    19   6 C       52   1 H                                       1.0904832
    21   6 C       53   1 H                                       1.0794765
    22   6 C       54   1 H                                       1.0775640 (min)
    25   6 C       55   1 H                                       1.0941931
    25   6 C       56   1 H                                       1.0940605
    25   6 C       57   1 H                                       1.0882261
    28   6 C       58   1 H                                       1.0882566
    28   6 C       59   1 H                                       1.0947052
    28   6 C       60   1 H                                       1.0943733
    29   6 C       61   1 H                                       1.0787763
    30   6 C       62   1 H                                       1.0918487
    30   6 C       63   1 H                                       1.0927126
    30   6 C       64   1 H                                       1.0865866
    31   6 C       65   1 H                                       1.0961532
    32   6 C       66   1 H                                       1.0852203
    32   6 C       67   1 H                                       1.0872780
    32   6 C       68   1 H                                       1.0867550
    33   6 C       69   1 H                                       1.0856946
    33   6 C       70   1 H                                       1.0867763
    33   6 C       71   1 H                                       1.0867432

 * 4 distinct bonds (by element types)

   Z      Z             #   av. dist./Å        max./Å        min./Å
   1 H    6 C          37     1.0886949     1.1016089     1.0775640
   6 C    6 C          17     1.4303333     1.5413257     1.3765335
   6 C    7 N           4     1.3653333     1.4441496     1.2481333
   6 C    8 O           7     1.3518094     1.4092333     1.1961470


optimized geometry written to: xtbopt.xyz


           -------------------------------------------------
          | TOTAL ENERGY              -99.357582849875 Eh   |
          | GRADIENT NORM               0.002102838160 Eh/α |
          | HOMO-LUMO GAP               1.668870086992 eV   |
           -------------------------------------------------

------------------------------------------------------------------------
 * finished run on 2024/04/06 at 11:12:54.638     
------------------------------------------------------------------------
 total:
 * wall-time:     0 d,  0 h,  0 min,  0.466 sec
 *  cpu-time:     0 d,  0 h,  0 min,  0.437 sec
 * ratio c/w:     0.937 speedup
 SCF:
 * wall-time:     0 d,  0 h,  0 min,  0.119 sec
 *  cpu-time:     0 d,  0 h,  0 min,  0.119 sec
 * ratio c/w:     0.998 speedup
 ANC optimizer:
 * wall-time:     0 d,  0 h,  0 min,  0.299 sec
 *  cpu-time:     0 d,  0 h,  0 min,  0.292 sec
 * ratio c/w:     0.977 speedup

