25
 energy: 0.000000000000 xtb: 6.6.1 (8d0f1dd)
C            3.23720132972391        1.16630909158653        0.08434468864950
N            2.29877796055224        0.07527476373246        0.03981602671198
C            2.58028186251803       -1.21425391179017        0.03006175752192
N            1.43813944744728       -1.93419254010258        0.00098261751768
C            0.39035684826767       -1.05887462812143       -0.00790371763344
C            0.93510047688824        0.21347817468824        0.01709077332874
C            0.09450143016486        1.40504290868848       -0.00410946993748
O            0.49712746915594        2.54126690785742       -0.00342325656480
N           -1.25076628431515        1.06271869620815       -0.03085477937476
C           -2.21907191394203        2.15522079838987       -0.05001256521996
C           -1.81739470187490       -0.20012724136556       -0.04692818139228
O           -2.99983858926755       -0.37846413507442       -0.07008877579474
N           -0.92618577614240       -1.30210203518959       -0.03682761236648
C           -1.46982251276835       -2.64643077634382       -0.06029819901142
H            3.71247229913541        1.21471443890471        1.06488839270555
H            4.00791460421487        1.03430799217987       -0.67357688121503
H            2.69909982127087        2.09770098766290       -0.09130154035862
H            3.56654087521359       -1.63682977417947        0.04233139674524
H           -1.67107945562430        3.09322822573871       -0.02552706696334
H           -2.82428927394145        2.09428605349656       -0.95318074103337
H           -2.87644002486466        2.07745706351925        0.81450059976605
H           -1.17061985538665       -3.19584861009707        0.83242224714061
H           -1.14560246782873       -3.17511580834413       -0.95688266944647
H           -2.55549768731684       -2.55659960601237       -0.07459039105944
H            1.38130842369251       -2.94313824728853       -0.01389874052104
25
 energy: -6.360184737761 xtb: 6.6.1 (8d0f1dd)
C            3.25323624225939        1.18364212714968        0.07640557596531
N            2.31780216603864        0.10200830877728        0.02573543409498
C            2.60448665829916       -1.24575715545365        0.03448751476447
N            1.42015634110446       -1.94211440376877        0.00929275093229
C            0.40071626294317       -1.06233267796972       -0.00014473202936
C            0.92648405639347        0.22354198852327        0.02306987037503
C            0.11872627725257        1.38286589843954       -0.00018100511623
O            0.49719460911605        2.55816927013795        0.00264384810501
N           -1.26650898072894        1.04779447582227       -0.03145188074137
C           -2.21745736883730        2.14761383269836       -0.05409533190614
C           -1.81680490770725       -0.19762777467355       -0.04871417194092
O           -3.01583086014810       -0.38421869168966       -0.07535448330434
N           -0.93888538673693       -1.30136133773126       -0.03479646099932
C           -1.47711068373307       -2.64188338147317       -0.06022599917475
H            3.77858605588595        1.18089932790419        1.03449068133698
H            4.00369980157344        1.14569112209188       -0.71954423276865
H            2.68063867299613        2.10416689448057       -0.01604314324216
H            3.57674143042527       -1.66780567444001        0.05784183274309
H           -1.65759008471499        3.08061659665759       -0.02932831036818
H           -2.82229371202238        2.09359831700755       -0.95919892421907
H           -2.87699860345831        2.07977224828051        0.81038724543712
H           -1.17898606089358       -3.19610793749956        0.83273172853049
H           -1.15041817583393       -3.17658575812073       -0.95544069708448
H           -2.56249827823930       -2.55052879319703       -0.07711831360180
H            1.36365907939420       -2.94644169776099       -0.00668532257834
25
 energy: -5.850966312685 xtb: 6.6.1 (8d0f1dd)
C            3.26518033968597        1.19528377501945        0.06516094291925
N            2.33217734443601        0.10087745518654        0.01210624520055
C            2.60840294144033       -1.25405535452667        0.03612998450227
N            1.41864556063963       -1.94610945417594        0.01655797235916
C            0.40183060327300       -1.06393206426737        0.00472106641082
C            0.93424897445236        0.22015531930031        0.02314590159778
C            0.12207656273109        1.37804968235694        0.00430738473083
O            0.49754008681797        2.55437277799065        0.01399966635704
N           -1.26565962819029        1.04396175360173       -0.03087700360473
C           -2.21575106966929        2.14461224446711       -0.05896988284455
C           -1.81911881842364       -0.19970338053816       -0.04946777445788
O           -3.01863161074461       -0.38445305888935       -0.07989957785035
N           -0.94016759962803       -1.30229011252739       -0.03268620538952
C           -1.48293089015502       -2.64199881529652       -0.05960505636463
H            3.83847128335978        1.14119663628816        0.99525649887303
H            3.98828797638590        1.25401533910118       -0.76157870971655
H            2.66594258352575        2.10536824662190        0.06103048064605
H            3.57601823198982       -1.68832776823574        0.07578873227918
H           -1.65282061853183        3.07555108476152       -0.03497639028659
H           -2.81900538965907        2.09027453651280       -0.96545311689017
H           -2.87843474605219        2.08227154434647        0.80360733405668
H           -1.18970914639707       -3.19899699254048        0.83312886335829
H           -1.15720237504620       -3.17851435451932       -0.95395947898420
H           -2.56848330292981       -2.54835559674142       -0.07906011635693
H            1.35371222491304       -2.95033986664176        0.00178743456143
25
 energy: -4.794656558633 xtb: 6.6.1 (8d0f1dd)
C            3.27514763602099        1.20884052612376        0.05223516623854
N            2.34447252339954        0.10084497535485       -0.00382315909567
C            2.61149213285189       -1.26122276615674        0.03976893155061
N            1.41675913051932       -1.94985836695518        0.02599496922451
C            0.40245654658254       -1.06583020132116        0.00858730614300
C            0.94072540660761        0.21647837616121        0.01363140998855
C            0.12470524632391        1.37218040004437        0.00635780744942
O            0.49731821900775        2.54899700725689        0.02519660803432
N           -1.26516207577147        1.03970367219784       -0.03136859066471
C           -2.21320104195884        2.14207207260994       -0.06354151486541
C           -1.82127126495893       -0.20216765932307       -0.05143672159609
O           -3.02126702998027       -0.38521712041771       -0.08495747785420
N           -0.94176404470038       -1.30359292808191       -0.03083969397272
C           -1.48880203262869       -2.64220525958340       -0.05941628867053
H            3.89410028852072        1.10179209690267        0.95123814078259
H            3.96677936999250        1.36198976506708       -0.79935504090932
H            2.65465533395350        2.10345319588868        0.13613477072760
H            3.57408383794588       -1.70636864746888        0.09503744901499
H           -1.64689203671525        3.07088496383792       -0.04027082563653
H           -2.81545444281783        2.08766601815249       -0.97096850534412
H           -2.87779299940896        2.08464155794063        0.79795936178453
H           -1.20019332660946       -3.20104900644760        0.83357934814522
H           -1.16382231559538       -3.18054462373661       -0.95293732999790
H           -2.57437207784854       -2.54542314540354       -0.08164048802911
H            1.34445390868156       -2.95403321798447        0.01168121003180
25
 energy: -3.284575172328 xtb: 6.6.1 (8d0f1dd)
C            3.28622097289987        1.21144070864163        0.04546930100575
N            2.35449879687762        0.09858751389716       -0.01874377700684
C            2.61325869431728       -1.26931877983446        0.04449321190561
N            1.41383454483264       -1.95414952741387        0.03655797842277
C            0.40205350185679       -1.06835210598898        0.01331532975874
C            0.94535631884449        0.21193951545700        0.00786554245763
C            0.12687672075727        1.36647460276501        0.00836208653477
O            0.49599290278190        2.54378865541027        0.03583809241691
N           -1.26501830422799        1.03547103113246       -0.03264678895859
C           -2.21088469031041        2.13965757395126       -0.06861843932151
C           -1.82352115810418       -0.20467996346505       -0.05466391652357
O           -3.02391442813728       -0.38618047148581       -0.09089911670995
N           -0.94397795461377       -1.30511608215130       -0.02913406347466
C           -1.49494691018851       -2.64247822257907       -0.05920475358154
H            3.94863202306203        1.05974724840239        0.90727618832401
H            3.94219572005932        1.46409255989799       -0.82890157024983
H            2.65898683215749        2.09459849577029        0.21467712237159
H            3.57130518821793       -1.72327931241779        0.11379980182120
H           -1.64150265496016        3.06656682016378       -0.04558237569234
H           -2.81175365143247        2.08521146868194       -0.97717181525598
H           -2.87758877789119        2.08662120091998        0.79164064703221
H           -1.21031682215450       -3.20229176759227        0.83438476908080
H           -1.17087897828213       -3.18308538974525       -0.95176743311088
H           -2.58043438989416       -2.54229378724719       -0.08392148290794
H            1.33481056894683       -2.95801979317692        0.02191316667983
25
 energy: -1.283246855293 xtb: 6.6.1 (8d0f1dd)
C            3.29130942975369        1.20810289873777        0.04574840686248
N            2.35916072361197        0.09317127094815       -0.01881490392402
C            2.61290245308602       -1.27887827562235        0.05063071262589
N            1.40928045467207       -1.95912409138441        0.04774302356954
C            0.39989257676345       -1.07185805073814        0.01994096196908
C            0.94647460696673        0.20659900380498        0.01109087669237
C            0.12798031978052        1.36103176255927        0.01098782249692
O            0.49294390460537        2.53896405070382        0.04448610453660
N           -1.26587602111954        1.03121236502863       -0.03437010998308
C           -2.20967014805723        2.13689957086815       -0.07371734775636
C           -1.82628005114878       -0.20714621289843       -0.05798413354559
O           -3.02697779548644       -0.38745319461276       -0.09795551585160
N           -0.94725820915199       -1.30703874040465       -0.02714096518198
C           -1.50161332447922       -2.64306434534877       -0.05924954519716
H            4.00006732608239        1.02055196258580        0.86350133951363
H            3.91064380311325        1.56095056771853       -0.84964149955827
H            2.66931849725886        2.08193664820940        0.29174212277450
H            3.56727077923457       -1.73976474128417        0.13283991677263
H           -1.63740972268494        3.06203655903492       -0.05106618188609
H           -2.80978529640263        2.08235184037926       -0.98286427558678
H           -2.87787641389646        2.08772205855948        0.78572527169711
H           -1.22015502989801       -3.20412547837898        0.83448997540131
H           -1.17848323094334       -3.18523811314762       -0.95138895157883
H           -2.58697796724477       -2.54008692672703       -0.08599803893576
H            1.32400809864578       -2.96241260419881        0.03286992739289
25
 energy: 1.360710127912 xtb: 6.6.1 (8d0f1dd)
C            3.29537731658047        1.20320783745486        0.04184129143810
N            2.35887697241141        0.08881571425502       -0.00684613902201
C            2.61079262669878       -1.28687110825299        0.06255425084149
N            1.40435198175438       -1.96396032772086        0.05934512023391
C            0.39656972787245       -1.07596986933727        0.02667334676619
C            0.94505923955540        0.20170299708552        0.01915059547983
C            0.12733400376886        1.35586425361009        0.01721004800756
O            0.48849396489891        2.53416452335422        0.05674060176630
N           -1.26777965503305        1.02657882976844       -0.03421998380520
C           -2.20778446890593        2.13491217975264       -0.07806189437313
C           -1.82954380465116       -0.21033512597367       -0.06081871902776
O           -3.03028778321685       -0.38966523649505       -0.10790566426333
N           -0.95118598088419       -1.31001841781527       -0.02531014358750
C           -1.50820694087376       -2.64495683407098       -0.06052579541905
H            4.05309289860296        0.98425296019828        0.80652961238972
H            3.87663805922297        1.65146721843795       -0.87028921857847
H            2.69285705596454        2.06752774591090        0.35890745105930
H            3.56195183474886       -1.75287471597210        0.16123861630082
H           -1.62997772630661        3.05673808960524       -0.05705596466566
H           -2.80696611773212        2.08047900187326       -0.98782027901507
H           -2.87717518284420        2.09199411832088        0.78085105428857
H           -1.23199440764288       -3.20824532628353        0.83343831631041
H           -1.18355933415664       -3.18762357672969       -0.95191036945312
H           -2.59332326119386       -2.53959017736687       -0.09176066195274
H            1.31487114132086       -2.96680965431732        0.04361592523751
25
 energy: 4.997552227421 xtb: 6.6.1 (8d0f1dd)
C            3.29714685607885        1.19802529318106        0.04311787194210
N            2.35744373206466        0.08496474329246        0.00379309751748
C            2.60651177372350       -1.29332090815255        0.06723977609301
N            1.39918644455491       -1.96892856304678        0.06699059605877
C            0.39262800561436       -1.08055309271451        0.03070541966741
C            0.94305781124370        0.19662768159623        0.02615555717863
C            0.12757241522297        1.35076782996446        0.02132499251851
O            0.48619114000895        2.52883747350286        0.06459383129211
N           -1.26887085918098        1.02209954071990       -0.03525941283978
C           -2.20504125224381        2.13287825448746       -0.08487087274385
C           -1.83203899552351       -0.21335183986540       -0.06286823757574
O           -3.03274873873529       -0.39167432668067       -0.11528147867646
N           -0.95523541803089       -1.31340226519069       -0.02291829248203
C           -1.51556583560927       -2.64675368391436       -0.05813203890604
H            4.09936790871964        0.94967859258736        0.74882790494880
H            3.84609861700945        1.75310110367343       -0.87551175119651
H            2.72044693415700        2.04329782239045        0.43642664513596
H            3.55486880712859       -1.76451720667741        0.18269418723632
H           -1.62209889546054        3.05162280150587       -0.06717725052445
H           -2.80370758257516        2.07671624889719       -0.99476284787743
H           -2.87497540868921        2.09691703132683        0.77394101155607
H           -1.24303362195902       -3.21046868373228        0.83668414538343
H           -1.19152396607698       -3.19138455472173       -0.94848571471178
H           -2.60029997976571       -2.53755685846549       -0.09171329757954
H            1.30711047495569       -2.97161149916339        0.05117668239053
25
 energy: 9.386447190777 xtb: 6.6.1 (8d0f1dd)
C            3.29590821261716        1.19332729672155        0.04322670597106
N            2.35463799673936        0.08277852575496        0.01374583647567
C            2.60137398618944       -1.29449362843647        0.06265176230936
N            1.39442585720835       -1.97198498288792        0.07649300127526
C            0.38798695698824       -1.08402305362602        0.03419905453286
C            0.94020411630006        0.19254147448201        0.03367546002292
C            0.12703601876544        1.34658571507317        0.02711580989674
O            0.48370838803968        2.52419558235133        0.07631240627866
N           -1.27071451546265        1.01848480378580       -0.03475079944774
C           -2.20437269800187        2.13059300890379       -0.08987384889807
C           -1.83469568490845       -0.21578799015421       -0.06529243964977
O           -3.03527602112620       -0.39354293119401       -0.12149075156082
N           -0.95912918700076       -1.31615584866364       -0.02190966028840
C           -1.52195009661193       -2.64794125112160       -0.05833670675259
H            4.13800044503115        0.92093686570864        0.68687926182612
H            3.82200540069054        1.84936473529630       -0.87998187443290
H            2.74500906186226        2.01722644920216        0.50192439876984
H            3.54557922183132       -1.77200134858940        0.20725234985712
H           -1.61890873149923        3.04788395933954       -0.07345996435258
H           -2.80056639846420        2.07169513457232       -1.00099107208427
H           -2.87664021176610        2.09953994688376        0.76733081325110
H           -1.25203192153054       -3.21165285602735        0.83722320426846
H           -1.19821228948165       -3.19356949018853       -0.94809269497846
H           -2.60622801298594       -2.53473581088823       -0.09400777233957
H            1.30103504134465       -2.97485359938711        0.06295520661032
25
 energy: 15.256950743438 xtb: 6.6.1 (8d0f1dd)
C            3.29094396860894        1.18665981065711        0.04701617983212
N            2.35041724045670        0.08118446268230        0.02649499811164
C            2.59620164804512       -1.29454487961113        0.06248066738169
N            1.39020925178475       -1.97399742951502        0.08630438868521
C            0.38294839529120       -1.08694136241388        0.03925277182185
C            0.93669613623596        0.18892018444068        0.04304316261799
C            0.12520660128136        1.34269386865792        0.03444788096595
O            0.48041738229573        2.51924923821873        0.08562371014818
N           -1.27271260609544        1.01484738030097       -0.03216032104527
C           -2.20322273425535        2.12846593413225       -0.09496289065782
C           -1.83731428803996       -0.21888301958510       -0.06685231333505
O           -3.03743294752706       -0.39615025144753       -0.12933824920294
N           -0.96319063609644       -1.31974723646395       -0.01970958114241
C           -1.52886106247642       -2.65011026322331       -0.05825226459585
H            4.17020779936964        0.89036812719969        0.62092791898690
H            3.79626720940650        1.95393414803156       -0.88705494531884
H            2.77634969515209        1.98973666297819        0.56881308608201
H            3.53518322406246       -1.77918811422842        0.23085811337228
H           -1.61348910698491        3.04312609037413       -0.08151252855438
H           -2.79810135091107        2.06661247502887       -1.00644481103281
H           -2.87672127372835        2.10453820146504        0.76139261381024
H           -1.26226338803935       -3.21450065454630        0.83782770966497
H           -1.20552164625351       -3.19632300163299       -0.94774494459532
H           -2.61281280986074       -2.53359167662210       -0.09632632141745
H            1.29617690214948       -2.97731594286111        0.07315147078932
25
 energy: 24.920413985926 xtb: 6.6.1 (8d0f1dd)
C            3.27699794852924        1.16596855852911        0.06279845471840
N            2.34395184804020        0.07639091590216        0.04771232791009
C            2.58912237751715       -1.29562537984437        0.07419232997290
N            1.38536936184383       -1.97678202822192        0.09888054480748
C            0.37763022306950       -1.09072449992098        0.04326557893638
C            0.93208649860638        0.18429076547998        0.05347814937500
C            0.12363893197430        1.34033106070966        0.04041875773353
O            0.47858305092462        2.51394061654600        0.09400317508739
N           -1.27209858163760        1.01309939074419       -0.03521477299302
C           -2.20204546274897        2.12729439192934       -0.09915401956423
C           -1.83843848922662       -0.22143830472270       -0.07050247628770
O           -3.03790273786102       -0.39799927072350       -0.13692410322544
N           -0.96663140606383       -1.32321826749148       -0.01907908632026
C           -1.53550060791451       -2.65194470249164       -0.06107670327275
H            4.19850685922088        0.85630157519309        0.54776107545327
H            3.78395441169220        2.08063868914072       -0.91072079822444
H            2.80863780119690        1.96075773831612        0.62591310758485
H            3.52548212813978       -1.78224435734132        0.25816216630413
H           -1.60878596173704        3.03934344449948       -0.08637000910916
H           -2.79679895310800        2.06301775077670       -1.01012443688746
H           -2.87569093099702        2.10683907812523        0.75734644495394
H           -1.27244015485041       -3.21713749258169        0.83545460784405
H           -1.21203814352903       -3.19802665459641       -0.95044811348311
H           -2.61881988766701       -2.53076651109376       -0.10200456421613
H            1.29274033703917       -2.98052482157041        0.09010173550252
25
 energy: 41.524350877861 xtb: 6.6.1 (8d0f1dd)
C            3.25359147131999        1.10638293420213        0.10632485388046
N            2.33423966268123        0.05820879061396        0.08430660838740
C            2.57505009368003       -1.29822184554845        0.10054705162684
N            1.37533077664044       -1.98504147862401        0.11020559836602
C            0.36925684456109       -1.09636799959716        0.04817489144343
C            0.92754359950186        0.17587329769573        0.06817157409829
C            0.11973693185087        1.34122873990437        0.04282896379873
O            0.47422664681410        2.50659643307898        0.10122442863432
N           -1.27010455411712        1.01231159974161       -0.04008016670026
C           -2.20170900383951        2.12642170528158       -0.10309994498965
C           -1.84022291763832       -0.22473392379654       -0.07509956636251
O           -3.03833408830597       -0.39764610259317       -0.14564971178742
N           -0.97198744579531       -1.32651216224702       -0.01953442678352
C           -1.54302631420072       -2.65431838634830       -0.06477253593121
H            4.22672111897692        0.81332768814468        0.47473994099360
H            3.83539190222314        2.27543434789289       -0.96338920507051
H            2.84577486480916        1.92727177538336        0.66090296232491
H            3.51313130590426       -1.78304946902535        0.28422378948239
H           -1.60660032179017        3.03684253127091       -0.09069146121498
H           -2.79735532851555        2.06026424857791       -1.01291680224181
H           -2.87427588270249        2.10730237877009        0.75433788031599
H           -1.28314276402834       -3.22041299942992        0.83163715366376
H           -1.21842122509892       -3.19987092585310       -0.95342741337050
H           -2.62548754919341       -2.52899749317958       -0.10938585386000
H            1.29367302325776       -2.98803590534228        0.10557302608175
25
 energy: 51.287488838528 xtb: 6.6.1 (8d0f1dd)
C            3.23226848838824        1.05065633770821        0.14607069817365
N            2.32209749085966        0.03723469080923        0.11329490208022
C            2.56100247678792       -1.30349033789416        0.12344895447371
N            1.36486896515888       -1.99553884049342        0.11386606265120
C            0.36114692365287       -1.10293535855851        0.05299219004377
C            0.92230235977665        0.16647530500934        0.08337940147140
C            0.11564829254205        1.34099919956785        0.04202637607662
O            0.47445825300436        2.49828370274217        0.10317554246115
N           -1.26840417896686        1.01271335147102       -0.04637164964515
C           -2.20252547650877        2.12605859996051       -0.10969172232263
C           -1.84173221383282       -0.22689946355236       -0.07905942146976
O           -3.03863275864827       -0.39618771251678       -0.15338651942839
N           -0.97786811652576       -1.32904732948890       -0.01968738961493
C           -1.55042427800149       -2.65638071245518       -0.06432477298849
H            4.23943135522179        0.77217268917131        0.40385983876169
H            3.87787574729109        2.46921816692856       -0.99894937876113
H            2.88421745173298        1.89158775051280        0.70596243681831
H            3.50345223957231       -1.78041632076590        0.30107810141904
H           -1.60965138076397        3.03776797876414       -0.10076862237187
H           -2.79960336571875        2.05577992259823       -1.01797171544136
H           -2.87421050173416        2.10815739743335        0.74860136721210
H           -1.29273049107464       -3.22147112253796        0.83262540666946
H           -1.22263427823860       -3.20343192264212       -0.95041086300415
H           -2.63228884762418       -2.52693891787258       -0.11225568765339
H            1.29197497127453       -2.99729750019453        0.09353833013128
25
 energy: 56.415386870729 xtb: 6.6.1 (8d0f1dd)
C            3.21801900833841        1.00671381310205        0.16480746360267
N            2.31062568473144        0.02003945872244        0.13385247228672
C            2.54880940147589       -1.31119641180739        0.13868124548213
N            1.35400772594066       -2.00704073911421        0.11585380254417
C            0.35385150135746       -1.10989070828406        0.05841658546016
C            0.91594110855687        0.15825811711831        0.09915140352105
C            0.11160895872066        1.33860336618618        0.04777991774471
O            0.47713880422995        2.49065462298767        0.10330797926872
N           -1.26717628385722        1.01266036069904       -0.05061393776860
C           -2.20135443645747        2.12583164062620       -0.11733499276803
C           -1.84355270597668       -0.22845364303180       -0.08210767829341
O           -3.03990541214400       -0.39275868554901       -0.16068050848918
N           -0.98420761877106       -1.33143363692238       -0.01956472045207
C           -1.55572057457552       -2.65953174579872       -0.06077401651229
H            4.24160794434973        0.73610161558291        0.32717141695540
H            3.90921033100964        2.63803279089200       -1.02308290723025
H            2.92413509405769        1.86645549732658        0.71867410864638
H            3.49591557733331       -1.77130483612747        0.31566883458054
H           -1.61148501338287        3.03893455601647       -0.10925800927116
H           -2.79617198110710        2.05184287618095       -1.02669262596896
H           -2.87395969002402        2.10758544371707        0.74008415504879
H           -1.30458644734557       -3.22418194841910        0.83717842389496
H           -1.22222427093760       -3.20773454422509       -0.94340981788519
H           -2.63700745608458       -2.53155644311938       -0.11244481041591
H            1.28231494298832       -3.00846002038121        0.08860099908928
25
 energy: 58.983131694553 xtb: 6.6.1 (8d0f1dd)
C            3.21232126783052        0.96980929523471        0.17357714486612
N            2.30209843278554        0.00556475999017        0.14971581437737
C            2.53820268595532       -1.32099304665458        0.15423642007075
N            1.34396136100882       -2.01820400813432        0.11485340477108
C            0.34841698424260       -1.11677977857452        0.06247985914357
C            0.91032457652281        0.15148748303935        0.11400934342063
C            0.10986388190523        1.33587189073296        0.05348670438861
O            0.48284780071575        2.48541670216209        0.09749721906227
N           -1.26535493881530        1.01363914570653       -0.05423924145298
C           -2.20042128822004        2.12660013818108       -0.12381121692523
C           -1.84444684401253       -0.22853093859000       -0.08467038462125
O           -3.04079063810717       -0.38705677259195       -0.16415686063426
N           -0.98968616253186       -1.33290775673131       -0.02141546658949
C           -1.55985943512031       -2.66189927898686       -0.05635493961147
H            4.24620579966093        0.70278312236583        0.25995938158931
H            3.96545686319273        2.79159283334124       -1.03585268287734
H            2.94220411800727        1.87089890884045        0.65999732409809
H            3.48714602263012       -1.76392546827969        0.33583663813809
H           -1.61424127950827        3.04185243039357       -0.11677043467322
H           -2.79372405562699        2.05048538713282       -1.03395125611147
H           -2.87384033721918        2.10835776958707        0.73301306508538
H           -1.30958275678277       -3.22358220262676        0.84343450342118
H           -1.22302724513889       -3.21177679822553       -0.93664439178744
H           -2.64087995755639       -2.53678431549062       -0.10824030051164
H            1.27243602828846       -3.01956353667125        0.08600113625737
25