25
 energy: 0.000000000000 xtb: 6.6.1 (8d0f1dd)
C            3.23720132972391        1.16630909158653        0.08434468864950
N            2.29877796055224        0.07527476373246        0.03981602671198
C            2.58028186251803       -1.21425391179017        0.03006175752192
N            1.43813944744728       -1.93419254010258        0.00098261751768
C            0.39035684826767       -1.05887462812143       -0.00790371763344
C            0.93510047688824        0.21347817468824        0.01709077332874
C            0.09450143016486        1.40504290868848       -0.00410946993748
O            0.49712746915594        2.54126690785742       -0.00342325656480
N           -1.25076628431515        1.06271869620815       -0.03085477937476
C           -2.21907191394203        2.15522079838987       -0.05001256521996
C           -1.81739470187490       -0.20012724136556       -0.04692818139228
O           -2.99983858926755       -0.37846413507442       -0.07008877579474
N           -0.92618577614240       -1.30210203518959       -0.03682761236648
C           -1.46982251276835       -2.64643077634382       -0.06029819901142
H            3.71247229913541        1.21471443890471        1.06488839270555
H            4.00791460421487        1.03430799217987       -0.67357688121503
H            2.69909982127087        2.09770098766290       -0.09130154035862
H            3.56654087521359       -1.63682977417947        0.04233139674524
H           -1.67107945562430        3.09322822573871       -0.02552706696334
H           -2.82428927394145        2.09428605349656       -0.95318074103337
H           -2.87644002486466        2.07745706351925        0.81450059976605
H           -1.17061985538665       -3.19584861009707        0.83242224714061
H           -1.14560246782873       -3.17511580834413       -0.95688266944647
H           -2.55549768731684       -2.55659960601237       -0.07459039105944
H            1.38130842369251       -2.94313824728853       -0.01389874052104
25
 energy: -5.481752774536 xtb: 6.6.1 (8d0f1dd)
C            3.24944910751772        1.17006809260399        0.08143105552548
N            2.30934593637394        0.10093623388640        0.03149889904962
C            2.60401832070549       -1.24295963523609        0.03184242310682
N            1.42134987563682       -1.94101733558840        0.00239544474001
C            0.40180706728795       -1.06007094200364       -0.00768082184393
C            0.92300867282613        0.22670413046422        0.01062433687727
C            0.11967006592085        1.39072016040529       -0.00491138485746
O            0.50351340452939        2.56397132813133       -0.00756906094767
N           -1.27051174794828        1.07079557629346       -0.01921628693908
C           -2.22890792808805        2.17210070420166       -0.03939525557409
C           -1.81498691715264       -0.18281545926769       -0.04538057133226
O           -3.01362739902206       -0.38089048299315       -0.07043976365461
N           -0.93843220938964       -1.29436534438802       -0.03304415412149
C           -1.46626399516757       -2.64189686610703       -0.05519741704803
H            3.72673355562651        1.21919703072377        1.06473666177284
H            4.01951618529797        1.02931670334889       -0.67967471304840
H            2.70601857116890        2.09560347929731       -0.10025618599684
H            3.58041294793584       -1.65744965947576        0.04169730585363
H           -1.74681081932021        3.14601217147981        0.03699758460945
H           -2.77486634895138        2.15986287155946       -0.97701395385896
H           -2.93844642933776        2.03688002109611        0.77252533976869
H           -1.16207665581505       -3.19626440257297        0.83676842262340
H           -1.13528356302980       -3.17869320862588       -0.94866878985922
H           -2.55199320007999       -2.56281626303966       -0.07191938470979
H            1.36605278520159       -2.94561731872745       -0.01055499762404
25
 energy: -3.834319235049 xtb: 6.6.1 (8d0f1dd)
C            3.25745319814748        1.16622180366097        0.07593927912541
N            2.31554899840310        0.09795080091043        0.02545435455161
C            2.60758456922462       -1.24942805634317        0.03121977552998
N            1.42095848814176       -1.94476261876773        0.00412600578064
C            0.40504238878374       -1.05980200720947       -0.00695345028881
C            0.92698630304922        0.22638660372502        0.00483220120735
C            0.12521917102532        1.39298729890167       -0.00495496584338
O            0.51408372499098        2.56516712604081       -0.01342736518588
N           -1.27312857062042        1.08840486117620        0.00276190914321
C           -2.24184931108134        2.19217020251412       -0.02971287733134
C           -1.81383434000356       -0.17133234019043       -0.03384665934916
O           -3.01110899554936       -0.38142267384019       -0.06071683668591
N           -0.93725218987388       -1.28747206888863       -0.02624811098889
C           -1.46025790970174       -2.63989685693341       -0.04955286232421
H            3.73369271044338        1.21931849531985        1.06022875286010
H            4.02899008757779        1.02260494576324       -0.68345872841926
H            2.71229215682841        2.08981524949508       -0.11017820182599
H            3.58312561883306       -1.66845873852269        0.04104447072167
H           -1.83421461430300        3.19766192590537        0.10874723985827
H           -2.71560867427394        2.22222125710247       -1.00551768055209
H           -2.99823034690965        1.99038955132196        0.72356696186873
H           -1.15470897865551       -3.19416754010720        0.84275372878667
H           -1.12533365028727       -3.18031806428789       -0.94065111889606
H           -2.54644782813485       -2.56997184528847       -0.06931557036107
H            1.35809053848356       -2.94948575122316       -0.00638827960529
25
 energy: -1.537202274753 xtb: 6.6.1 (8d0f1dd)
C            3.26480656121327        1.16087083784210        0.06973474252276
N            2.32144042924696        0.09373021644003        0.01746707324813
C            2.61090208179783       -1.25670852538338        0.03039140513848
N            1.42042581342419       -1.94913068329324        0.00644295257050
C            0.40812447964099       -1.06067216963421       -0.00509339589663
C            0.93049538537449        0.22431063869762        0.00065964716528
C            0.13025380739854        1.39343803034484       -0.00452181829680
O            0.52481305257392        2.56404203820404       -0.02304882324079
N           -1.27691221177664        1.10344627426881        0.02808814435397
C           -2.25692882200591        2.21149740799655       -0.02046239907994
C           -1.81338244310364       -0.16271525220138       -0.01883067205085
O           -3.00865676260881       -0.38367948323235       -0.04941248795745
N           -0.93570843712325       -1.28217049058591       -0.01795862807516
C           -1.45425551345115       -2.63873497882302       -0.04350334518865
H            3.74031678598401        1.21843928803425        1.05462022473542
H            4.03799543582166        1.01519305779898       -0.68765605948198
H            2.71897433211893        2.08364782288310       -0.11983731392337
H            3.58561025647271       -1.67998067310307        0.04028321177112
H           -1.92497814764054        3.24064259680992        0.18564018400657
H           -2.65150090521771        2.28530488624433       -1.03083945776424
H           -3.05518000922169        1.94535728190030        0.66903728683013
H           -1.14755813308250       -3.19278711784017        0.84912163119778
H           -1.11533915553878       -3.18211485049228       -0.93232897169822
H           -2.54083902474955       -2.57745678980235       -0.06645234372032
H            1.35026072454744       -2.95374711436700       -0.00118514259233
25
 energy: 1.237778194806 xtb: 6.6.1 (8d0f1dd)
C            3.27190515304197        1.15485563190235        0.06313164598171
N            2.32686961857339        0.08851415312379        0.00908623576070
C            2.61389486652583       -1.26450550053413        0.03005923580111
N            1.41985800006392       -1.95408463696945        0.00931611600989
C            0.41126073513278       -1.06243011739304       -0.00237519941797
C            0.93356310234120        0.22136992794058       -0.00180536528728
C            0.13434122916806        1.39269376098444       -0.00350106316022
O            0.53333618824093        2.56158925038687       -0.03515161351072
N           -1.28226455827266        1.11680160524042        0.05421163445453
C           -2.27358348181972        2.23055386767080       -0.01214643643050
C           -1.81349279815165       -0.15627698041289       -0.00342616885470
O           -3.00652641599020       -0.38865759686147       -0.03882685166465
N           -0.93324665403767       -1.27779033382057       -0.01091258612314
C           -1.44800160939238       -2.63776668424807       -0.03773936989134
H            3.74661448014810        1.21718470367973        1.04855810908757
H            4.04712953518685        1.00627667339766       -0.69167015349288
H            2.72674121558599        2.07747602556576       -0.13045743854557
H            3.58770053508560       -1.69173315866041        0.04000272284019
H           -2.01808621428438        3.27451668528931        0.26464323189433
H           -2.58510289677696        2.34991958947203       -1.05052256350254
H           -3.10833204356621        1.90248228774780        0.60847362307984
H           -1.14006558113689       -3.19074617147331        0.85561465449798
H           -1.10465962965499       -3.18306571434673       -0.92453624389142
H           -2.53493700098369       -2.58431566181558       -0.06400259785596
H            1.34329527845074       -2.95867614672521        0.00472812559623
25
 energy: 4.523971273397 xtb: 6.6.1 (8d0f1dd)
C            3.27740904139555        1.14849015372478        0.05615011664348
N            2.33090818435655        0.08233255903700        0.00041015367679
C            2.61641233781186       -1.27307105539863        0.02895826398999
N            1.41905713427231       -1.96029228150853        0.01133307898819
C            0.41353864154551       -1.06576338246300        0.00078422859384
C            0.93532993774362        0.21721363488501       -0.00302265602582
C            0.13412456948168        1.38958216207644       -0.00258339881359
O            0.53462572236191        2.55680211545983       -0.04587072884216
N           -1.28996542297174        1.12724260649184        0.08116189220009
C           -2.29251545721056        2.24948228365684       -0.00350579514725
C           -1.81495475509720       -0.15241119095807        0.01258944235618
O           -3.00548509272903       -0.39541777870179       -0.02896874666681
N           -0.93175648854763       -1.27604634102936       -0.00200864818736
C           -1.44182752178777       -2.63830218941271       -0.03145101425394
H            3.75145865199084        1.21537096287311        1.04199065545845
H            4.05489311299235        0.99772902450302       -0.69609218154322
H            2.73280642302474        2.07100422674578       -0.14108296565269
H            3.58950674852727       -1.70393550203803        0.03852789945795
H           -2.11355379716567        3.30208029566900        0.34119810433838
H           -2.51911833745106        2.41658512843040       -1.05918389611556
H           -3.15758272576455        1.86300909068276        0.54328201967848
H           -1.13231357128205       -3.18883323704730        0.86305628817160
H           -1.09329115286105       -3.18470603687178       -0.91621260358283
H           -2.52898898863515       -2.59221378564213       -0.06102658662281
H            1.33762008304580       -2.96516207135645        0.00974243002338
25
 energy: 8.553799701256 xtb: 6.6.1 (8d0f1dd)
C            3.28210248152569        1.14159758496659        0.04918481016898
N            2.33365376417086        0.07552086369533       -0.00712301919272
C            2.61901139170476       -1.28168745681597        0.02802803474919
N            1.41903465851382       -1.96739547751663        0.01315742931769
C            0.41575870428682       -1.07029795238812        0.00483921279181
C            0.93575745349632        0.21281328226776        0.00094331177385
C            0.12971652754890        1.38684196913367        0.00796216467244
O            0.53195795661465        2.55128808552723       -0.05170267141735
N           -1.29762083201018        1.13444911867322        0.11165934891730
C           -2.30913458472697        2.27097954122407        0.00581461821595
C           -1.81663711723862       -0.15052995991825        0.02908421149740
O           -3.00416760575172       -0.40319775795459       -0.02008981518005
N           -0.93007696014976       -1.27627751904098        0.00528738225121
C           -1.43587010170969       -2.63997516671675       -0.02646433176439
H            3.75537929845394        1.21344218432691        1.03534248108868
H            4.06237015616070        0.98844230507080       -0.69999471355204
H            2.73895106441581        2.06441963774725       -0.15225413540276
H            3.59154951529037       -1.71579726742414        0.03750191560641
H           -2.21521831217104        3.32814640578763        0.40793877228103
H           -2.45102603065388        2.48411187306699       -1.05917190972024
H           -3.20046289606675        1.83298656346525        0.47203620036032
H           -1.12509639792003       -3.18820983195847        0.86915691376403
H           -1.08239428674746       -3.18709866262754       -0.90898959546873
H           -2.52317544252599       -2.60021760337504       -0.05915425210552
H            1.33862547089412       -2.97322537135780        0.01391811481340
25
 energy: 12.815490903849 xtb: 6.6.1 (8d0f1dd)
C            3.28574213324031        1.13420242654494        0.04254189575112
N            2.33508958549529        0.06796264378469       -0.01160254684242
C            2.62188962771559       -1.29048359117446        0.02645581371863
N            1.42012147027927       -1.97472541883634        0.01303489578034
C            0.41710656629846       -1.07606555374385        0.00848885098322
C            0.93545618497756        0.20804784660142        0.00793330600973
C            0.12398978678769        1.38288440944953        0.02177103999846
O            0.52618097890136        2.54486104172873       -0.05539057435541
N           -1.30489799722077        1.13760122061960        0.14307121012800
C           -2.31773451312289        2.28626637565846        0.00990918885525
C           -1.81918192420220       -0.15269078869815        0.04680333382379
O           -3.00390131915278       -0.41285137560257       -0.00997447298341
N           -0.92929323333786       -1.27860440766963        0.01313929699704
C           -1.42984623763844       -2.64348054527570       -0.02243441500058
H            3.75811705888883        1.21167358908016        1.02873694027316
H            4.06981237387443        0.97904137340424       -0.70257710747392
H            2.74417980028244        2.05708193125262       -0.16433893785853
H            3.59414513102108       -1.72753417166834        0.03543388335762
H           -2.32332585471377        3.34339608257078        0.46151614215744
H           -2.37832239576350        2.54478862728051       -1.05412660689732
H           -3.23757945661558        1.81308908588057        0.38861267441156
H           -1.11780657235555       -3.18989437207961        0.87389706219065
H           -1.07161870445510       -3.19039042874508       -0.90310629465298
H           -2.51715682798286       -2.60847474845228       -0.05868474798591
H            1.34503718535081       -2.98107823928888        0.01425182341461
25
 energy: 17.081206288562 xtb: 6.6.1 (8d0f1dd)
C            3.29040167774347        1.12622259616394        0.03548538168929
N            2.33648893423676        0.06112393786370       -0.01539363108503
C            2.62438791132618       -1.29794384703875        0.02586418683321
N            1.42141826012360       -1.97968304933725        0.01435684373914
C            0.41774375073009       -1.08043532320907        0.01284370193083
C            0.93579806602782        0.20454723618248        0.01467619158676
C            0.11930976329241        1.37969222961977        0.03006430210964
O            0.52062281770003        2.53978788162542       -0.06606346125564
N           -1.30671516666849        1.13416436844581        0.16938692141218
C           -2.31520702055254        2.29043442729301        0.01058805445279
C           -1.82254295813118       -0.15811608966689        0.05909683467367
O           -3.00597985882543       -0.42051128203391        0.00033742006667
N           -0.92963936603303       -1.28171153221644        0.02023090643705
C           -1.42434095972351       -2.64746043852440       -0.01936891675940
H            3.76000772168840        1.20690781230347        1.02212116838877
H            4.07767883170825        0.96647308537645       -0.70557065239168
H            2.75340595581918        2.05100591056930       -0.17660081185612
H            3.59590011346331       -1.73825405384288        0.03430369648798
H           -2.43559644262204        3.34259718903328        0.50008684407878
H           -2.30361942419401        2.60810692370171       -1.03268909831897
H           -3.25185221205794        1.79337029481657        0.30180813609363
H           -1.11023606341614       -3.19216875081845        0.87732441252255
H           -1.06092583733239       -3.19200594486986       -0.89916601546552
H           -2.51186526151970       -2.61753824596969       -0.05850348735415
H            1.35397283452434       -2.98614803755805        0.01650507999646
25
 energy: 20.751883206566 xtb: 6.6.1 (8d0f1dd)
C            3.29405628245692        1.11777996432095        0.03003869668412
N            2.33610036387226        0.05531070306607       -0.02146627664385
C            2.62635958603517       -1.30405648855738        0.02326234727097
N            1.42351883719002       -1.98212870803713        0.01454097251511
C            0.41676443959570       -1.08408125936446        0.01830661552385
C            0.93307441374542        0.20212732558319        0.02025374713079
C            0.11220986260524        1.37593773513333        0.03713401997244
O            0.51210199170585        2.53515881974095       -0.07889250981619
N           -1.31357927850418        1.12788555411662        0.19519703219626
C           -2.32104969362919        2.29045889896056        0.00886731515230
C           -1.82751879799699       -0.16615037940659        0.07018918151937
O           -3.00981984807485       -0.42986911812506        0.01102133984626
N           -0.93135052597874       -1.28541683742440        0.02540435811941
C           -1.41807999459804       -2.65221683403066       -0.01675805276103
H            3.76061100615221        1.19921543350650        1.01724225103898
H            4.08466303860730        0.95449546594603       -0.70710398438380
H            2.76274927288379        2.04526659840258       -0.18504888675059
H            3.59712133288187       -1.74884509790479        0.02920922107008
H           -2.54391862508375        3.32757730272188        0.55376658214002
H           -2.22436847421487        2.66431803601461       -1.00779450952381
H           -3.26451153605115        1.77838873819368        0.21091544727211
H           -1.10173670502949       -3.19421693595631        0.88088608153649
H           -1.04881663350874       -3.19385256334926       -0.89553629280250
H           -2.50580016962281       -2.62706617522311       -0.05847592871121
H            1.36297774065037       -2.98861431514684        0.01597441479868
25
 energy: 22.020380033066 xtb: 6.6.1 (8d0f1dd)
C            3.29510662010597        1.10966035856209        0.02531829144350
N            2.33460947981272        0.04883489631464       -0.02581264330234
C            2.62669996896847       -1.31046251931372        0.02028904649738
N            1.42404287513304       -1.98406141415584        0.01442132418089
C            0.41431082172971       -1.08706012469539        0.02082649873820
C            0.93022478371270        0.19966211984424        0.02159202318780
C            0.10690591679392        1.37025967812749        0.04038421007448
O            0.50490340828922        2.52933692422262       -0.09285584377690
N           -1.31936061115924        1.11896271078528        0.21688988914475
C           -2.32001071593876        2.27586450653613       -0.00403475163118
C           -1.83149800740320       -0.17459429006682        0.08468857081760
O           -3.01419754493396       -0.43496575840562        0.02189778928861
N           -0.93358352400913       -1.29078443146467        0.02680265773691
C           -1.41393952618530       -2.65796537035702       -0.01318286805363
H            3.75629910837511        1.19447324690319        1.01346997316097
H            4.09062866931708        0.94430728733662       -0.70648245216704
H            2.76834879670843        2.03916114065088       -0.19356061190581
H            3.59663883898101       -1.75855049973071        0.02213690086884
H           -2.63302946456060        3.27599976568544        0.57256863634682
H           -2.13871897751950        2.71132681039146       -0.98541432660304
H           -3.26966992541402        1.75477705229309        0.11394104821890
H           -1.09442435707321       -3.19509033946511        0.88596856202485
H           -1.03710558814362       -3.19647450238089       -0.89064689130898
H           -2.50137275770248       -2.63736017981965       -0.05859816421421
H            1.37028767506024       -2.99060640878014        0.01470364852428
25
 energy: 24.926004782468 xtb: 6.6.1 (8d0f1dd)
C            3.29614851317847        1.10269538061155        0.02095880653586
N            2.33041543650265        0.04682924662374       -0.02875890717122
C            2.62321979392096       -1.31155941218708        0.01687599499632
N            1.42370034622684       -1.98267317831010        0.01473971900514
C            0.41110845579600       -1.08856218873692        0.02340640554540
C            0.92568713038279        0.19891327024641        0.02130219667353
C            0.09984364180049        1.36510089099861        0.03263358218787
O            0.49365539588370        2.52531588527739       -0.10634522684834
N           -1.32636250468746        1.10852036660005        0.20397294553015
C           -2.32614219458208        2.26179714187920       -0.01568603402935
C           -1.83517299613230       -0.18297693921951        0.08869613045066
O           -3.01862968603257       -0.44372471027440        0.03001731568296
N           -0.93509925487608       -1.29729146923281        0.02954755067221
C           -1.41046868694573       -2.66496410560342       -0.00823848169755
H            3.75392649385914        1.18749539332708        1.01066202323743
H            4.09368382889579        0.93212187218088       -0.70735982396681
H            2.77730160305892        2.03520303297379       -0.20023750845121
H            3.59331373415937       -1.75871727052688        0.00649642937429
H           -2.74585391926043        3.23395816001980        0.60487566964160
H           -2.06313505082581        2.75508283977379       -0.95182254930468
H           -3.27959306476547        1.73246444269303        0.01705572598174
H           -1.09177577105043       -3.19872148712577        0.89394059493436
H           -1.02454518239765       -3.19876613832874       -0.88508192278120
H           -2.49702949572114       -2.64745768832903       -0.05919145589999
H            1.37779226562368       -2.98850308603728        0.01109078063045
25
 energy: 27.345116810606 xtb: 6.6.1 (8d0f1dd)
C            3.29464017047847        1.09957162283218        0.01394043616869
N            2.32398213495761        0.05102319404625       -0.03547059988927
C            2.61863911511487       -1.30609624203276        0.01051776434625
N            1.42371924072208       -1.98233656524027        0.01441194502696
C            0.40904019605479       -1.09116108135251        0.02610400304271
C            0.91907228185688        0.19816368168913        0.02024525456609
C            0.09025811196768        1.36054821737526        0.03270612715112
O            0.48482293232569        2.52175706611871       -0.10274312799007
N           -1.33522671290459        1.09877886369029        0.20373062147856
C           -2.32708168182970        2.24936237154464       -0.02749949661625
C           -1.83827615637168       -0.19145274284658        0.08224321532784
O           -3.02236743434589       -0.45423855170846        0.03424919381657
N           -0.93640784977470       -1.30149014472039        0.02298731674049
C           -1.41003280622568       -2.67086482497632       -0.00990431004588
H            3.74789731297938        1.18236874714047        1.00682221076278
H            4.09119179911355        0.92115543782140       -0.71388283249853
H            2.78319444681803        2.03396024356756       -0.20948111139554
H            3.59037983300818       -1.74852266449307       -0.00429971936397
H           -2.80741782120947        3.22682410163008        0.57048207741439
H           -1.99306132452475        2.77670077397468       -0.91449531700935
H           -3.28156918962705        1.71999502271355       -0.06811775309128
H           -1.09551776502322       -3.20419738838244        0.89331822063774
H           -1.01347408120982       -3.20185695086638       -0.88281733115281
H           -2.49491392974989       -2.65688023811409       -0.06418969900943
H            1.38237745409445       -2.98826384236838        0.00452480528697
25
 energy: 36.500379747338 xtb: 6.6.1 (8d0f1dd)
C            3.28845239129543        1.09993027330661        0.00997479579629
N            2.31854990231838        0.05424162709415       -0.03578748496128
C            2.61429730702677       -1.30192664756077        0.00621368919400
N            1.42223407063396       -1.98450105411243        0.01414615486340
C            0.40847116843828       -1.09309558128366        0.02765990903424
C            0.91524929445061        0.19623714154434        0.01996488660408
C            0.08733712680253        1.35839620304669        0.03816912954640
O            0.48174154883176        2.52027466494174       -0.08881147277126
N           -1.33890550516066        1.09592388165087        0.19193476106740
C           -2.31647579775534        2.24847726215668       -0.03308749141449
C           -1.84006311000426       -0.19837756802292        0.08244629387016
O           -3.02550218554589       -0.45500492171270        0.03333030144039
N           -0.93656551694409       -1.30554022921566        0.01981084620143
C           -1.40729577506862       -2.67682290765352       -0.00741145788804
H            3.73912829248009        1.18353102221250        1.00387371238592
H            4.08436756113389        0.91639334229571       -0.71691992943290
H            2.78051592321281        2.03248440433236       -0.22123626095536
H            3.58767652846844       -1.73904866846425       -0.01018602393799
H           -2.88157871630028        3.30288637993307        0.56359303989942
H           -1.92272073837389        2.81477454508623       -0.85796212187929
H           -3.26236333978782        1.72793284852937       -0.14447595143155
H           -1.09152719832500       -3.21146927333210        0.89473282543999
H           -1.00864846088795       -3.20286410117033       -0.88012148416624
H           -2.49167493073390       -2.66597428638690       -0.06322933333289
H            1.37588581383511       -2.99036031088439        0.00183186366025
25
 energy: 50.875280723715 xtb: 6.6.1 (8d0f1dd)
C            3.28381309900949        1.10283725164658        0.00344829446042
N            2.31522685419830        0.05734683362160       -0.03431286464357
C            2.61008168214096       -1.29656707060466        0.00718259315969
N            1.42257260607981       -1.98544442826073        0.01383346892466
C            0.40864856348634       -1.09661227242600        0.02312142340028
C            0.91514540060088        0.19365118670298        0.01347596754257
C            0.09325864067028        1.35416052603365        0.02956791977672
O            0.48264592759063        2.51875601689688       -0.08172791208136
N           -1.33593979037782        1.08921244854648        0.16657294141095
C           -2.28623672107368        2.23487086569789       -0.05563967079982
C           -1.84011784311956       -0.20725306758873        0.07051433258094
O           -3.02575235433335       -0.46056513407537        0.02411462270644
N           -0.93553300471923       -1.31172567693373        0.01356263297960
C           -1.40576652809807       -2.68407693648826       -0.00967603651733
H            3.73472443258807        1.19037772497874        0.99721004531286
H            4.07642360358410        0.91369659261564       -0.72454570926143
H            2.77385520370738        2.03203473499611       -0.23029175374848
H            3.58460412413044       -1.72765870888415       -0.00975569164162
H           -2.97861347480105        3.41002651954544        0.55827202217555
H           -1.84135378000651        2.86205023627792       -0.80731096682974
H           -3.22995608740428        1.74082746557505       -0.21849094533536
H           -1.08953952861524       -3.22091151942870        0.89139357763489
H           -1.00847969054737       -3.20823436652002       -0.88375251016801
H           -2.48989839248279       -2.67526640318219       -0.06104476172720
H            1.37558075711214       -2.99121982693872        0.00122375689871
25