25
 energy: -42.048729325625 gnorm: 0.005404056335 xtb: 6.6.1 (8d0f1dd)
C            5.24556327916248        0.00616963474166       -0.00875136610251
N            1.85284427234941        0.71189396825983        0.05947579611603
C            2.38399372669567       -0.49629582962078        0.05430250695323
N            1.39222931761561       -1.40623777496298        0.02572389039352
C            0.19332544042509       -0.74257834674608        0.01306200785826
C            0.49168591768596        0.60664391106288        0.03408330031091
C           -0.53061443818438        1.63588924686624        0.02256359157133
O           -0.32429012732917        2.82151755872361        0.03730368406672
N           -1.79894867739693        1.06225709454021       -0.01035559813626
C           -2.94229285624188        1.96788074000480       -0.02818324951651
C           -2.13068147023676       -0.28187640514920       -0.02648097149340
O           -3.26386977105058       -0.66590134048310       -0.05041195538536
N           -1.06091707390697       -1.21379512611006       -0.01487828129204
C           -1.36375703842859       -2.63152644593981       -0.03551259202157
H            5.72328887008096        0.53943718026584        0.81396958287870
H            5.97125043741635       -0.26878143264493       -0.77570101191822
H            2.35140509111451        1.59302764207125        0.07875807186213
H            3.48917927835850       -0.62958313304185        0.04577136915260
H           -2.56388150193149        2.98672039854663       -0.02576376617214
H           -3.54095176153284        1.78760694334709       -0.91990572157615
H           -3.56513969153565        1.79332912460048        0.84805192327142
H           -0.97689709688541       -3.11855245373396        0.85976292804552
H           -0.94892305780928       -3.09858110284975       -0.92893105584634
H           -2.44834531222634       -2.73198040442798       -0.05359736686512
H            1.52517575795030       -2.40844510562282        0.01681590168574
