25
 energy: -43.829456958137 gnorm: 0.113685973870 xtb: 6.6.1 (8d0f1dd)
C            3.23583610861222        1.17167353989455        0.08493372494531
N            2.29677198675491        0.08417282148519        0.03877079423119
C            2.58674426196782       -1.23202349959736        0.03021946873266
N            1.44000489899207       -1.96442066414111        0.00058467678803
C            0.39868292770650       -1.07438955040790       -0.00815584272948
C            0.92258866557391        0.21227796648547        0.01535575402307
C            0.09543962304223        1.39541441712986       -0.00478563169414
O            0.49564629397208        2.55665363346080       -0.00338697933068
N           -1.25905797043305        1.06519954924764       -0.03084637549995
C           -2.22418144036953        2.15866378549104       -0.05004127581576
C           -1.81962069246466       -0.19456025561295       -0.04701659070362
O           -3.00662641996078       -0.37506969542401       -0.07021211873390
N           -0.93209332224153       -1.29483808105318       -0.03676806369443
C           -1.46975422707548       -2.63981422275117       -0.06009458527843
H            3.71355515859932        1.21882150029821        1.06530706944189
H            4.00685548802101        1.03798089381693       -0.67376910612443
H            2.70081534677608        2.10461270867632       -0.09076935489286
H            3.57284592532870       -1.64209053685247        0.04426625521506
H           -1.67627280888322        3.09758139841483       -0.02551694421796
H           -2.82863515064484        2.09858275321888       -0.95312443953915
H           -2.88098258268908        2.08174492850273        0.81421874834409
H           -1.16512259890027       -3.18836722659801        0.83252015157330
H           -1.14026826849019       -3.16760687897649       -0.95656033742755
H           -2.55523275541761       -2.55259804637743       -0.07439018091740
H            1.43656648448098       -3.07011010429750       -0.01499044747610
25
 energy: -43.836559529315 gnorm: 0.037580897006 xtb: 6.6.1 (8d0f1dd)
C            3.24289796008019        1.17524182864796        0.08695060657518
N            2.30764065848430        0.09315478903921        0.03649503454435
C            2.60259937676951       -1.24425672135805        0.03014832051385
N            1.42960611724016       -1.95693035918251        0.00071513103982
C            0.40102453949041       -1.07188876133778       -0.00873339960983
C            0.92428415041673        0.21393190344186        0.01377778162975
C            0.10360998209845        1.38283927786562       -0.00570178972909
O            0.49709626920392        2.55474768627184       -0.00465300772750
N           -1.26539015927390        1.05119808484390       -0.03116479037133
C           -2.22289852628969        2.14898204986781       -0.04986977281409
C           -1.82374630704540       -0.19926723589077       -0.04742402837197
O           -3.02072407245766       -0.38298326119041       -0.07051384939528
N           -0.93794196766659       -1.29815262124782       -0.03712081243179
C           -1.47366219336659       -2.63994602466525       -0.06012900893386
H            3.72222670851460        1.22342170758881        1.06876044809890
H            4.01139355145692        1.04372433914696       -0.67663321066646
H            2.69631795551118        2.10080618623058       -0.08793822227934
H            3.58310700436462       -1.66131626939033        0.04448621376050
H           -1.66082528774040        3.08028835151242       -0.02527744979442
H           -2.82861471472555        2.09699868892112       -0.95414722235008
H           -2.88097242174488        2.08029340537725        0.81571281206411
H           -1.16553633321850       -3.18912291331589        0.83180665233084
H           -1.14068544106901       -3.16864793197776       -0.95564011152120
H           -2.55894898443907       -2.55212279210267       -0.07445105762119
H            1.40264706766387       -2.99350227306323       -0.01370689772112
25
 energy: -43.837172873009 gnorm: 0.016760481925 xtb: 6.6.1 (8d0f1dd)
C            3.23388581858209        1.17159813681475        0.08521139720045
N            2.30103198459997        0.09347747644441        0.03439704361576
C            2.60449103479399       -1.25198180367768        0.03153271934577
N            1.43100758094925       -1.97421681628355        0.00102737061704
C            0.40598538169948       -1.08323744515783       -0.00788579661443
C            0.91764276184979        0.20984867019655        0.01444677456535
C            0.11101673189742        1.38001098721481       -0.00326279472903
O            0.50036889299954        2.55554666421682       -0.00147114963535
N           -1.26710014114706        1.05589191906853       -0.02997146251026
C           -2.22419950189047        2.15693833694912       -0.04991870487625
C           -1.81437573735525       -0.19311098521673       -0.04659646014221
O           -3.01363782464006       -0.37778282238365       -0.07059159228012
N           -0.93658032994075       -1.30022658309167       -0.03643258681254
C           -1.47198262820472       -2.63949340386800       -0.06020851713082
H            3.70978924896290        1.21800562338877        1.06851200403605
H            4.00491034932037        1.03322366646217       -0.67450804133775
H            2.69541893655860        2.10092280968508       -0.09401886164319
H            3.58522182333418       -1.65254446584181        0.04455651106873
H           -1.67908116914923        3.09948649952925       -0.02545163686807
H           -2.83084860258594        2.10147677883528       -0.95348580285951
H           -2.88444729505930        2.08491150985542        0.81375676975702
H           -1.16429775710425       -3.19017259273896        0.83169968354001
H           -1.13920860103651       -3.16881425671109       -0.95616143068354
H           -2.55629196975747       -2.55061916179388       -0.07457057392571
H            1.42578594458103       -2.99164760786324       -0.01485649247867
25
 energy: -43.837413164310 gnorm: 0.008296328487 xtb: 6.6.1 (8d0f1dd)
C            3.23847626197721        1.17259358578026        0.08729371698629
N            2.30021457154903        0.09688613090965        0.03475954494131
C            2.60012440013467       -1.25039528204417        0.03094820722350
N            1.42583946413883       -1.97439531382382        0.00081508594178
C            0.40441107060138       -1.08052862690223       -0.00850485518595
C            0.91583752647000        0.21348964304092        0.01404524159505
C            0.10942335640950        1.38106638257377       -0.00655712007228
O            0.49052432272628        2.55814633573534       -0.00667750782455
N           -1.27028183667996        1.05365490524431       -0.03203809822871
C           -2.22331255841845        2.15336476309139       -0.05006617967803
C           -1.81599010316885       -0.19369959723798       -0.04751795769075
O           -3.01492197838051       -0.38135498389492       -0.07037437562727
N           -0.93821764931905       -1.29875213515483       -0.03707356799100
C           -1.47271165303035       -2.63828433388948       -0.05984485036219
H            3.72214090450566        1.21888929860775        1.06717927552160
H            4.00869379942404        1.04243147656683       -0.67533851913355
H            2.70255927296501        2.10471257109000       -0.08439354298710
H            3.58012503145595       -1.64991438422113        0.04326298661707
H           -1.66461486178166        3.08739030256169       -0.02584303124202
H           -2.82938562036073        2.09842167880302       -0.95407688507091
H           -2.87994222626630        2.08142453708182        0.81642962036781
H           -1.16510437507924       -3.18825085402019        0.83255623312387
H           -1.14042482757402       -3.16837097868142       -0.95556794504320
H           -2.55737482574943       -2.55211933372527       -0.07408444685289
H            1.41841746570861       -2.99891465345842       -0.01358266010913
25
 energy: -43.837436457604 gnorm: 0.005384094844 xtb: 6.6.1 (8d0f1dd)
C            3.23875456214134        1.17225284865616        0.08472769360103
N            2.30295098271013        0.09551056798288        0.03514499550987
C            2.60166520877352       -1.25068279715602        0.03305507261409
N            1.42586675201165       -1.97157243562723        0.00107466021789
C            0.40502832044741       -1.07834108251400       -0.00802031833360
C            0.91821984810016        0.21379886705007        0.01539608179632
C            0.11261749562541        1.38118179255015       -0.00247888753532
O            0.49469919142454        2.55655458224916        0.00016034756011
N           -1.26945411836524        1.05457370270484       -0.02964299546266
C           -2.22404553027899        2.15263332427939       -0.04964781337996
C           -1.81586604527339       -0.19271724111565       -0.04669178079137
O           -3.01462075952588       -0.38124509718040       -0.07072258277979
N           -0.93759736728803       -1.29713334378349       -0.03679629500760
C           -1.47207223528100       -2.63728144902618       -0.06088502246161
H            3.71630144701161        1.22646170882543        1.06742372558329
H            4.01128549421803        1.03957950819859       -0.67541104897149
H            2.69617421904809        2.09930839704959       -0.09624098600601
H            3.58214231338944       -1.65331290418794        0.04554126605202
H           -1.66757233730756        3.08737854690396       -0.02420089492518
H           -2.82831338913694        2.09760792833491       -0.95470547222781
H           -2.88386565614083        2.08077500506375        0.81430649563473
H           -1.16492561656590       -3.18884442582816        0.83071909511222
H           -1.13976017993123       -3.16700375748440       -0.95681861668092
H           -2.55707324591386       -2.55149356163212       -0.07532404489696
H            1.41396557836515       -3.00049755028039       -0.01421430500252
25
 energy: -43.837468414467 gnorm: 0.003676599873 xtb: 6.6.1 (8d0f1dd)
C            3.23806405251466        1.17169724418764        0.08772963889314
N            2.30302170135543        0.09545729830671        0.03433422907862
C            2.60283432527329       -1.24992485132842        0.03045782623776
N            1.42733491191151       -1.97027501046810       -0.00053680040626
C            0.40524822886682       -1.07876730289019       -0.00906486102513
C            0.91796023104735        0.21339977897239        0.01358139578669
C            0.11333095579666        1.38079982210056       -0.00616141700201
O            0.49539321362004        2.55588364730085       -0.00556590050041
N           -1.27014130908569        1.05474142152056       -0.03165777526336
C           -2.22429259053792        2.15395274577529       -0.05025424314711
C           -1.81615797385321       -0.19294804014802       -0.04703095759152
O           -3.01501857055292       -0.38169943412601       -0.06986572891188
N           -0.93766621834298       -1.29787798970250       -0.03682912697619
C           -1.47202547237957       -2.63832321249278       -0.05922110557204
H            3.71657341822619        1.21811932615311        1.07023386531726
H            4.00837380648697        1.03996025062397       -0.67458753717064
H            2.69669353887029        2.10090602430092       -0.08695153665099
H            3.58384362481091       -1.65252387206562        0.04237059449246
H           -1.67053817325400        3.09049080410834       -0.02658302870211
H           -2.83145367185967        2.09953044659812       -0.95335710426033
H           -2.88241351000332        2.08344077306090        0.81503400816901
H           -1.16462029721278       -3.18910398464668        0.83285286111728
H           -1.14014536748901       -3.16925415038808       -0.95466990539136
H           -2.55708660050237       -2.55204579598749       -0.07331521196726
H            1.41739267855091       -2.99814480473261       -0.01519380933490
25
 energy: -43.837473667003 gnorm: 0.002972048591 xtb: 6.6.1 (8d0f1dd)
C            3.23778086645609        1.17224269473079        0.08529274634164
N            2.30164226186961        0.09607718842651        0.03489821104559
C            2.60165386835811       -1.24979783814096        0.03290116915838
N            1.42701152180621       -1.97136137661764        0.00237120512925
C            0.40464513038638       -1.08013982676227       -0.00750281483912
C            0.91631286056199        0.21315761638427        0.01518022565573
C            0.11260939663264        1.38060348667246       -0.00448828213602
O            0.49240147654341        2.55677434677922       -0.00372063283831
N           -1.27101945021255        1.05373124441359       -0.03094377001460
C           -2.22327667720503        2.15384716011666       -0.04955594932634
C           -1.81640498376512       -0.19357395695585       -0.04741885205648
O           -3.01534292468338       -0.38204122404929       -0.07145285810096
N           -0.93834493841114       -1.29899161346421       -0.03680483516338
C           -1.47274761525340       -2.63891380146680       -0.06102724011333
H            3.71977957533087        1.21973577668263        1.06586164435319
H            4.00708365455392        1.03880532833360       -0.67753522700319
H            2.70053404339649        2.10372095099109       -0.08935100687556
H            3.58229854405014       -1.65120747012864        0.04520490072761
H           -1.66771747169723        3.08962713953975       -0.02443069990972
H           -2.82895085251738        2.10014740182778       -0.95381558694371
H           -2.88157688448385        2.08244212118690        0.81561605598499
H           -1.16582387856600       -3.18993534769305        0.83103997448296
H           -1.14003578685444       -3.16838852219552       -0.95704934930837
H           -2.55765001990094       -2.55189542948198       -0.07590759136703
H            1.41964321586221       -2.99717491509615       -0.01161306766448
25
 energy: -43.837484474218 gnorm: 0.002115204607 xtb: 6.6.1 (8d0f1dd)
C            3.23784503031115        1.17213393150501        0.08670926814671
N            2.30202976451765        0.09543708871309        0.03453261782883
C            2.60116969574977       -1.25073157143029        0.03151177395369
N            1.42630284566127       -1.97197901315208       -0.00035661809853
C            0.40471708429581       -1.07998450259532       -0.00878317581398
C            0.91669210833233        0.21328314692540        0.01430155256387
C            0.11353938874043        1.38106435229212       -0.00455890714801
O            0.49297699908581        2.55730020786990       -0.00318329775508
N           -1.27050122983544        1.05405660412259       -0.03083002937696
C           -2.22345046926010        2.15309866587250       -0.05020691944993
C           -1.81589827203025       -0.19289344644633       -0.04683982887600
O           -3.01480340985689       -0.38124166671431       -0.06993077989233
N           -0.93812783147914       -1.29833551863749       -0.03686344991998
C           -1.47244124661317       -2.63811654403137       -0.05966263720054
H            3.71693759396664        1.22242893936576        1.06863719401856
H            4.01004156838747        1.04038043141343       -0.67360008143450
H            2.69906776709030        2.10213065493900       -0.09054991752557
H            3.58147671141885       -1.65261816710813        0.04348577513884
H           -1.66765557884776        3.08867761831130       -0.02571990485105
H           -2.82882758121612        2.09787080689958       -0.95464713195949
H           -2.88197418789564        2.08150900321602        0.81487054487251
H           -1.16433813683515       -3.18820157726305        0.83252624062152
H           -1.14035320784103       -3.16798439298583       -0.95560654998662
H           -2.55732449173533       -2.55141910640252       -0.07341622373088
H            1.41740401814613       -2.99837481064610       -0.01607114490632
25
 energy: -43.837488232961 gnorm: 0.001527814179 xtb: 6.6.1 (8d0f1dd)
C            3.23822527364855        1.17170295124179        0.08637771659886
N            2.30285032649466        0.09515673165902        0.03453154616200
C            2.60190871178438       -1.25048125688170        0.03175010821667
N            1.42679869607655       -1.97110471495763        0.00106198701450
C            0.40506477983077       -1.07933712126219       -0.00834787990026
C            0.91740565068307        0.21352985126911        0.01431588916734
C            0.11410009286097        1.38122872055823       -0.00524466315891
O            0.49421010246934        2.55691720002389       -0.00433563477632
N           -1.27048796388102        1.05456926069593       -0.03118725381481
C           -2.22420871174594        2.15343498249068       -0.04973638573550
C           -1.81589123271985       -0.19264572491863       -0.04719418736861
O           -3.01468429193938       -0.38144379770751       -0.07053214074844
N           -0.93772356854918       -1.29790844190115       -0.03688261538365
C           -1.47197658933665       -2.63807636465394       -0.06030525079139
H            3.71791623627779        1.22055915556230        1.06820968710224
H            4.00882917278294        1.04049189228942       -0.67581519386509
H            2.69697604423433        2.10066231468090       -0.08922138736363
H            3.58261549465835       -1.65274839290885        0.04371970574484
H           -1.66927105938048        3.08935955349971       -0.02545217378223
H           -2.83087747149554        2.09909479371875       -0.95332945104098
H           -2.88259929690018        2.08238152331290        0.81546592757254
H           -1.16496442404738       -3.18901802029845        0.83171062329534
H           -1.13936995039251       -3.16820005736348       -0.95588581244334
H           -2.55692616715053       -2.55190244026751       -0.07508089526671
H            1.41658507799456       -2.99873146384868       -0.01284389621570
25
 energy: -43.837486466185 gnorm: 0.001425317634 xtb: 6.6.1 (8d0f1dd)
C            3.23798173363158        1.17225083072664        0.08631928502260
N            2.30226787920409        0.09588983227805        0.03483974572074
C            2.60192045670944       -1.24952402112116        0.03193607413025
N            1.42740438247699       -1.97074404302602        0.00017256323134
C            0.40481990631895       -1.07985124771877       -0.00829830104248
C            0.91665421542316        0.21340434137719        0.01489058013038
C            0.11343229880656        1.38071074069385       -0.00409550166512
O            0.49286011394812        2.55664849618697       -0.00286101100602
N           -1.27111953680504        1.05375146278304       -0.03075290939557
C           -2.22339789643475        2.15366167978874       -0.05030322214722
C           -1.81646094467908       -0.19344883097772       -0.04694314521253
O           -3.01528252146649       -0.38235797429238       -0.07064127491137
N           -0.93811421026620       -1.29875689956220       -0.03666849043224
C           -1.47281708021143       -2.63875747935184       -0.05981439433929
H            3.71797141527638        1.22024967122179        1.06795267754289
H            4.00835195451460        1.03878674688234       -0.67557464103173
H            2.69953122948140        2.10280000790052       -0.08971845501473
H            3.58286880577112       -1.65108676283847        0.04405579678458
H           -1.66763672010311        3.08923220342149       -0.02533017671803
H           -2.82861573083366        2.09985802727887       -0.95487079854513
H           -2.88248218016267        2.08302081927085        0.81435347812961
H           -1.16537783237778       -3.18974869634540        0.83206918968511
H           -1.14131534129631       -3.16898711989092       -0.95577967207020
H           -2.55776933222083       -2.55186893114361       -0.07358398252221
H            1.41882986755258       -2.99764171950899       -0.01560504510486
25
 energy: -43.816989826877 gnorm: 0.107707139432 xtb: 6.6.1 (8d0f1dd)
C            3.23422301784670        1.17676802081436        0.08553822005538
N            2.29342607181662        0.09169920678306        0.03720466936858
C            2.58831682169340       -1.25021889010462        0.03057100534406
N            1.44136463567115       -1.99465767021510        0.00023334622342
C            0.40610132735675       -1.09027284543086       -0.00845530954452
C            0.91156856778431        0.20699540212555        0.01381913124452
C            0.09520443245597        1.38469579242640       -0.00473961937012
O            0.49353806067466        2.56746493217550       -0.00333063691370
N           -1.26703516824395        1.06816252247887       -0.03083374222058
C           -2.22912371797428        2.16225407005590       -0.05007086506674
C           -1.82140205803211       -0.18893048777500       -0.04707585434432
O           -3.01293089056782       -0.37139519350628       -0.07034720501243
N           -0.93612391100936       -1.28649853989113       -0.03666415164398
C           -1.46967335905747       -2.63319795540081       -0.05989461319363
H            3.71451476202312        1.22293708874086        1.06568622029211
H            4.00578273184090        1.04164860233976       -0.67396967280315
H            2.70243083506709        2.11152291035779       -0.09015072747897
H            3.57713149418707       -1.63089739244043        0.04566664088462
H           -1.68130761793518        3.10206628083650       -0.02550311157563
H           -2.83295284506654        2.10290344443596       -0.95306574153491
H           -2.88550055884502        2.08605471299152        0.81393055718854
H           -1.15968034325021       -3.18085122665181        0.83260111597774
H           -1.13499682778643       -3.16006231549123       -0.95621215130091
H           -2.55495778099496       -2.54859873059066       -0.07417776947756
H            1.50870682584718       -3.18756858282304       -0.01555815068397
25
 energy: -43.829899417807 gnorm: 0.042137409597 xtb: 6.6.1 (8d0f1dd)
C            3.24041689483149        1.17425228523255        0.08700568965478
N            2.30563247233099        0.09165742720401        0.03506266775663
C            2.60429832748996       -1.25526098455441        0.03069400541178
N            1.43482905613004       -1.97663162197660        0.00069389276449
C            0.40624654655127       -1.08902537535802       -0.00912006620227
C            0.91866966354916        0.20351533137290        0.01260583343177
C            0.10413997189248        1.37063121495898       -0.00561721437004
O            0.49640820049864        2.54815982918747       -0.00425613110323
N           -1.27005596736904        1.05321369582506       -0.03113026893901
C           -2.22567127331070        2.15222014166236       -0.04988131577591
C           -1.82314240133894       -0.19725305093332       -0.04742557217635
O           -3.02087721817304       -0.38206319581078       -0.07057951194639
N           -0.94002041838798       -1.29530059044486       -0.03709622364316
C           -1.47508776516144       -2.63694096161604       -0.06004616322759
H            3.72053494861422        1.22387639081225        1.06862143103593
H            4.00949407225611        1.04463346434617       -0.67675117972709
H            2.69534013619798        2.10137351735248       -0.08764021685896
H            3.59133109862424       -1.64931444765553        0.04572452429102
H           -1.66537279732437        3.08497196389184       -0.02525059709945
H           -2.83171776902473        2.10076447774437       -0.95393839412179
H           -2.88430488864356        2.08401669727437        0.81525846444169
H           -1.16228659255477       -3.18383656288168        0.83177135383316
H           -1.13762402211932       -3.16333449672634       -0.95536489065355
H           -2.56016152015401       -2.55119985685433       -0.07429951001735
H            1.45560575009691       -3.05110213581181       -0.01383902234529
25
 energy: -43.830633705638 gnorm: 0.020171466763 xtb: 6.6.1 (8d0f1dd)
C            3.23018011556361        1.16996520626080        0.08566846828993
N            2.29889743630430        0.08559417233478        0.03336656441080
C            2.60263278513987       -1.26534787431361        0.03193142615232
N            1.43712985230685       -2.00398523692634        0.00057151402552
C            0.41076420290107       -1.10459681409733       -0.00871097354463
C            0.91422402043264        0.19662377081344        0.01304793825521
C            0.11054500225220        1.37207890685824       -0.00394891020666
O            0.49782535546831        2.54931640666690       -0.00197958265930
N           -1.27108983349359        1.05885603697700       -0.03021809290474
C           -2.22804915051620        2.15993678393978       -0.04993526386345
C           -1.81533873357936       -0.19093768164614       -0.04668051308777
O           -3.01496956865538       -0.37542781635727       -0.07046899806290
N           -0.93772622713735       -1.29825009521109       -0.03655506919656
C           -1.47376725453310       -2.63543011519723       -0.06004098895259
H            3.70965119492640        1.22136430832812        1.06747099059995
H            4.00219553150936        1.03771190563737       -0.67428409188211
H            2.69526468392795        2.10315704972474       -0.09196309880503
H            3.59016566984830       -1.64792572564635        0.04596568053697
H           -1.68280141832002        3.10232250130095       -0.02547204564279
H           -2.83542908407648        2.10536253789129       -0.95336177906784
H           -2.88886887417029        2.08875481133558        0.81368871928402
H           -1.16060069058776       -3.18238590691030        0.83199839661779
H           -1.13574988557509       -3.16121410299779       -0.95585966411051
H           -2.55753961589336       -2.54611086103775       -0.07427351757254
H            1.48907899145872       -3.03740901148669       -0.01475552419926
25
 energy: -43.831083620374 gnorm: 0.007575166578 xtb: 6.6.1 (8d0f1dd)
C            3.23558434662230        1.17287688169811        0.08709713881001
N            2.29911067500392        0.09082256898729        0.03359724034517
C            2.59928795128612       -1.26166558831549        0.03112694961122
N            1.43254632186810       -2.00520853316937        0.00043505352241
C            0.40997109106886       -1.09996320870166       -0.00910598166497
C            0.91350920306828        0.20178466642063        0.01288127490888
C            0.10874456235462        1.37551044992509       -0.00596666030329
O            0.48901424943790        2.55468219492966       -0.00535475037936
N           -1.27352350579918        1.05673356530694       -0.03155380829674
C           -2.22696539051025        2.15645169445168       -0.05001984916917
C           -1.81739328065471       -0.19157887353452       -0.04741986396467
O           -3.01685663256007       -0.37921526419987       -0.07058605951237
N           -0.93825553091323       -1.29642131500441       -0.03695740683522
C           -1.47266378841978       -2.63497619426857       -0.05987150374673
H            3.72055904665226        1.22266970852034        1.06681762224646
H            4.00720107614874        1.04509080941714       -0.67499605116032
H            2.70242193241030        2.10793094639003       -0.08538958957114
H            3.58659397008256       -1.64296759351914        0.04449218687041
H           -1.66977800051801        3.09135741185438       -0.02556660146669
H           -2.83303651907325        2.10202023506625       -0.95421698348821
H           -2.88462136332079        2.08504926416898        0.81589399988996
H           -1.15986501556673       -3.18253453206913        0.83205851672244
H           -1.13524492770543       -3.16229185062129       -0.95515994754151
H           -2.55695813239676       -2.55067675237152       -0.07410867496341
H            1.46724216693582       -3.05345753512046       -0.01292466644934
25
 energy: -43.831101650998 gnorm: 0.006000152942 xtb: 6.6.1 (8d0f1dd)
C            3.23493440274003        1.17276820397220        0.08536478943188
N            2.30119057745432        0.09075120706573        0.03423058868436
C            2.60326600506282       -1.25988171569354        0.03334119002245
N            1.43548559606055       -2.00220349274416        0.00034440890817
C            0.41112298951605       -1.09835899592044       -0.00855654087922
C            0.91504590458949        0.20112487307068        0.01399620059388
C            0.11170317968589        1.37404609317339       -0.00334509759996
O            0.49490536276111        2.55143768496423       -0.00079230782018
N           -1.27275105399849        1.05663981120894       -0.02996232971843
C           -2.22703740218454        2.15595834818973       -0.04978905933497
C           -1.81716762595732       -0.19106298622596       -0.04670715601513
O           -3.01653809037460       -0.37964684716258       -0.07052992216099
N           -0.93754198949345       -1.29562684495040       -0.03662484020182
C           -1.47456532327061       -2.63366551205973       -0.06040388773662
H            3.71407764998240        1.22718470576231        1.06785803028183
H            4.00774418457609        1.04170810043975       -0.67529504879443
H            2.69387031889592        2.10187335553108       -0.09457061696964
H            3.59107384019407       -1.64283870968874        0.04711511179294
H           -1.67285619859113        3.09227668108568       -0.02471966682313
H           -2.83238619060234        2.10178462030378       -0.95424347918849