25
 energy: -43.832436652738 gnorm: 0.098156939542 xtb: 6.6.1 (8d0f1dd)
C            3.24228874136258        1.17499444243850        0.08619630977119
N            2.30547136915406        0.08833936124799        0.04036906693650
C            2.59726030776376       -1.22036279425022        0.03245817233133
N            1.43826149966097       -1.92562205597639        0.01531243443579
C            0.39747452241381       -1.06443430623449        0.00149866483794
C            0.93310906249460        0.22540569130827        0.01772654980996
C            0.10581560288142        1.40113986381050       -0.00407419312166
O            0.50163845837431        2.55132275405610       -0.00332763864993
N           -1.25147001992406        1.05302596072698       -0.03429348141772
C           -2.21025975423928        2.15398664355128       -0.05595576859172
C           -1.81893568472928       -0.18776904323753       -0.04626119136045
O           -3.01486620011583       -0.37139930686830       -0.07372516052310
N           -0.95839898124448       -1.30653328625909       -0.02780526442437
C           -1.51364083921055       -2.64520970626485       -0.05272364560397
H            3.72901817863404        1.22272495684416        1.06533512577623
H            4.01078715216302        1.05555125255263       -0.68027075558979
H            2.70151050843726        2.10919544937943       -0.07925897610924
H            3.58238980615784       -1.64142139713119        0.04750941468021
H           -1.65681038444194        3.08797670990357       -0.02965212850973
H           -2.81345798239279        2.09775611224153       -0.96141955654828
H           -2.86883992730128        2.08503345453375        0.80731262032565
H           -1.11732666990886       -3.23211554252472        0.77519113567301
H           -1.26423319081066       -3.14298196289710       -0.95509130056680
H           -2.62829696919577       -2.68889221995254       -0.04715854296752
H            1.38637536203969       -2.93062562751998        0.00225162368782
25
 energy: -43.836366757867 gnorm: 0.035224309076 xtb: 6.6.1 (8d0f1dd)
C            3.24313513647766        1.18020375517807        0.08822503363748
N            2.30671033836482        0.09908158038647        0.03823133705814
C            2.60153186264181       -1.23590945990371        0.03295146781165
N            1.42472100337919       -1.93487647425774        0.01292424894663
C            0.39334456761073       -1.06378874120495        0.00028342510764
C            0.92277418557899        0.22589854984840        0.01662577161010
C            0.10659797918023        1.39175007277110       -0.00478918534992
O            0.49638814204856        2.56177303702755       -0.00452385607978
N           -1.26391928693994        1.04601082569115       -0.03335802110819
C           -2.21510594722285        2.14910179357699       -0.05572576453507
C           -1.82638666784408       -0.19462416795695       -0.04589469315926
O           -3.02575169783275       -0.37856494329466       -0.07488090156569
N           -0.95614664889171       -1.30580355950709       -0.02870580334302
C           -1.49276633002569       -2.64783835226185       -0.06109662866860
H            3.73260298338719        1.22502752989238        1.06655502345729
H            4.00849177585701        1.05798091579856       -0.68142984779128
H            2.69662094146550        2.10820028900534       -0.07653760795177
H            3.58010720317743       -1.65992386682116        0.04974185492879
H           -1.64559489144029        3.07543253908938       -0.03044802213123
H           -2.81783987002113        2.09851204212170       -0.96209724625108
H           -2.87423405539668        2.08512938052679        0.80898197380529
H           -1.12207725486385       -3.22605171138910        0.78799440423216
H           -1.23201051830312       -3.15179459320686       -0.98606159911433
H           -2.59204307633487       -2.61714391687755       -0.01728724173372
H            1.36571409397040       -2.93869712075399        0.00046539246914
25
 energy: -43.837431857502 gnorm: 0.013877303147 xtb: 6.6.1 (8d0f1dd)
C            3.24496775316235        1.18422353577461        0.08691882583181
N            2.30696091912056        0.10918867008237        0.03594734569639
C            2.60750188314225       -1.23364591756604        0.03334210925268
N            1.42500584920543       -1.93385866443207        0.01554207762051
C            0.39077839185172       -1.06519805792339        0.00308564330655
C            0.91827311717808        0.22545482554845        0.01716969097329
C            0.11496560757625        1.38712123864991       -0.00387012099475
O            0.50305755322250        2.56304780467579       -0.00380677190278
N           -1.26349204084893        1.04858986383342       -0.03276836091100
C           -2.21092334490800        2.15363010496241       -0.05600614171142
C           -1.82487559471935       -0.19189684332492       -0.04489020505685
O           -3.02563564140152       -0.36895304191073       -0.07219463666166
N           -0.96080895216156       -1.30815062768577       -0.02339513395156
C           -1.51047627400795       -2.65290005208736       -0.05635433706205
H            3.73187644289081        1.22587080066618        1.06636605771277
H            4.01202111079179        1.05608595864842       -0.68047364506178
H            2.70154800243067        2.11190474005508       -0.08089163710113
H            3.58632711444134       -1.64740410124090        0.04708366578954
H           -1.64865265760106        3.08523423145383       -0.03030794888039
H           -2.81318651595230        2.10085001387179       -0.96223675923853
H           -2.87026110490695        2.08744719524487        0.80821234304676
H           -1.12898085724095       -3.23627921331985        0.78339444916259
H           -1.24216015384684       -3.15429878386809       -0.98438609568047
H           -2.60446669395738       -2.66032190698649       -0.02998854184590
H            1.37550005456162       -2.93665636964321        0.00465164194876
25
 energy: -43.837510493898 gnorm: 0.008813645500 xtb: 6.6.1 (8d0f1dd)
C            3.24552205477324        1.17918776260642        0.08994846346039
N            2.30759219655793        0.10699651887540        0.03623947972551
C            2.60775285534190       -1.23586289129294        0.03323335542945
N            1.42554551219044       -1.93321913672543        0.01064638649491
C            0.39383603116970       -1.06398210920635       -0.00217358613808
C            0.91959244002377        0.22591024423314        0.01557449494282
C            0.11708478148710        1.38656768929847       -0.00574744174228
O            0.49866053272303        2.56213298150071       -0.00351218848605
N           -1.26395730504109        1.05015787934785       -0.03602947856469
C           -2.21507135043822        2.15026077749390       -0.05650163394862
C           -1.82048804297834       -0.19122059552671       -0.04993617554912
O           -3.01996216391437       -0.37250072115458       -0.07707745033529
N           -0.95620046568876       -1.30419832059718       -0.02760121552054
C           -1.51207925782494       -2.64479948392956       -0.04998305989466
H            3.73311495963033        1.21906389196712        1.06880891447942
H            4.01060474012991        1.05548763324269       -0.67993672589442
H            2.70039524924586        2.10679329065845       -0.07335287765126
H            3.58534915190416       -1.64914222859155        0.04874604965222
H           -1.65558794117572        3.08276554781106       -0.02995751834580
H           -2.81891126848046        2.09605973617622       -0.96172800181658
H           -2.87340681890440        2.08097788470858        0.80830322361013
H           -1.11626976509528       -3.22418804704504        0.78508224870210
H           -1.24970095416982       -3.14869082543245       -0.97380456416964
H           -2.60789899297040       -2.64962718021644       -0.02615008794198
H            1.37934778952702       -2.93584489472345       -0.00294709621657
25
 energy: -43.837573423482 gnorm: 0.006031253366 xtb: 6.6.1 (8d0f1dd)
C            3.24249446325567        1.17942631070850        0.08567756264653
N            2.30577398784696        0.10552307255090        0.03711884040886
C            2.60508187606975       -1.23683079656683        0.03666172036603
N            1.42342459361576       -1.93333232427416        0.01717299653910
C            0.39288584593508       -1.06465087655882        0.00280890278044
C            0.91836217262347        0.22512781596960        0.01933809457951
C            0.11640416498965        1.38559773016973       -0.00279573881030
O            0.49476896509494        2.56034795832576       -0.00365576555309
N           -1.26558941182211        1.04937315560274       -0.03168292810694
C           -2.21221877047817        2.15200326205613       -0.05549406909798
C           -1.82133422755438       -0.19286833576067       -0.04427958118400
O           -3.02065381203289       -0.37538772934166       -0.07296484743661
N           -0.95611591081981       -1.30511005018517       -0.02539755469892
C           -1.50833223773927       -2.64694283747954       -0.05596237154950
H            3.73087494617494        1.22668506284144        1.06374646545109
H            4.00804190446178        1.05580607632743       -0.68369758024668
H            2.69736147314883        2.10706956166028       -0.08163528764322
H            3.58258451946969       -1.65040993696894        0.04939785049504
H           -1.64593159240503        3.08039887478961       -0.03033550366120
H           -2.81459457395012        2.09995802915019       -0.96182981281480
H           -2.87163914134796        2.08901484710731        0.80894069088720
H           -1.11890306521845       -3.23039160140196        0.77912916374175
H           -1.24142736864806       -3.14770581868836       -0.97923781780910
H           -2.60474859261250       -2.64737631559286       -0.03630517606989
H            1.37829375996480       -2.93623973096230        0.00542526106803
25
 energy: -43.837612984992 gnorm: 0.004328632332 xtb: 6.6.1 (8d0f1dd)
C            3.24423592489585        1.18079647700650        0.08915493510695
N            2.30634279486927        0.10676279792956        0.03528578019291
C            2.60491697313768       -1.23585269624415        0.03238455761709
N            1.42260495004021       -1.93256158906105        0.01286127668971
C            0.39158451036927       -1.06453351965355        0.00035857307772
C            0.91830947372056        0.22578803630951        0.01636601120429
C            0.11754711862678        1.38682947588298       -0.00520747561693
O            0.49683587087166        2.56158253594031       -0.00531169492046
N           -1.26560265025403        1.04995290124622       -0.03367515171846
C           -2.21203623182557        2.15268363922700       -0.05640324428610
C           -1.82288534495403       -0.19241075233859       -0.04561469966883
O           -3.02311039436443       -0.37258619535907       -0.07296883142676
N           -0.95815237122064       -1.30628902996980       -0.02618238776643
C           -1.50796160711220       -2.65083467165762       -0.05468160459150
H            3.73098676103753        1.22456527264066        1.06853350644701
H            4.01286602965910        1.05784427935762       -0.67743851537443
H            2.70287389752775        2.11123521297910       -0.07721676652065
H            3.58324702896075       -1.64914944661374        0.04423801728342
H           -1.64825454760972        3.08280428615876       -0.03019874456418
H           -2.81451227831273        2.10099970729726       -0.96267481882966
H           -2.87131955782367        2.08705588869873        0.80791527230527
H           -1.12529505795628       -3.23297941741500        0.78481853419956
H           -1.24211014594263       -3.15497072280177       -0.97821432737199
H           -2.60358368743279       -2.65190832875400       -0.02670126462164
H            1.37733650911488       -2.93573873732757        0.00071657743544
25
 energy: -43.837633941621 gnorm: 0.003005662176 xtb: 6.6.1 (8d0f1dd)
C            3.24480133872386        1.18006344129781        0.08697635886158
N            2.30750300994475        0.10643551786555        0.03636582547005
C            2.60644500852211       -1.23642441476956        0.03595451305286
N            1.42366686793947       -1.93287655966837        0.01482379082826
C            0.39253889336480       -1.06458539244524        0.00099705349784
C            0.91923582108469        0.22578112434767        0.01754898874444
C            0.11938829918763        1.38718339006150       -0.00400728993687
O            0.49886706890674        2.56218301480677       -0.00246958340276
N           -1.26478932737889        1.05056668800312       -0.03390201582234
C           -2.21363215164034        2.15112112441237       -0.05575397549965
C           -1.82186844263135       -0.19145563941499       -0.04729528408029
O           -3.02213546874606       -0.37126842565938       -0.07564363959431
N           -0.95760233114905       -1.30517197695231       -0.02661708759525
C           -1.50968239506630       -2.64831365694690       -0.05550562637590
H            3.73418679672424        1.22363450289490        1.06512416516953
H            4.01007918309344        1.05558579371113       -0.68288464200533
H            2.70067662660937        2.10890305107725       -0.07867076640782
H            3.58511757154919       -1.64906421668782        0.05062743411951
H           -1.65356445364449        3.08342533477360       -0.02963036257252
H           -2.81695574260824        2.09736756782520       -0.96140516506172
H           -2.87256466785240        2.08285634500833        0.80872281062392
H           -1.12310004474997       -3.23009835967246        0.78245181159872
H           -1.24515912425477       -3.15000333185268       -0.98063176936345
H           -2.60536347591249       -2.65064808944391       -0.02801951448860
H            1.37877510800664       -2.93611142909330        0.00298748452146
25
 energy: -43.837642753990 gnorm: 0.002448585254 xtb: 6.6.1 (8d0f1dd)
C            3.24306126377875        1.17978761635063        0.08839552711519
N            2.30671953783652        0.10596267425496        0.03604729886106
C            2.60596920746801       -1.23675007052230        0.03413545662408
N            1.42354090157229       -1.93311146557595        0.01336978908402
C            0.39256555550167       -1.06494022008539        0.00096115546899
C            0.91856176329342        0.22540047410369        0.01735742778629
C            0.11862974122402        1.38636311768560       -0.00443352538665
O            0.49645741686806        2.56153577376283       -0.00437654496212
N           -1.26568690193780        1.04966768334169       -0.03348493938629
C           -2.21235711600992        2.15172361777404       -0.05639619564340
C           -1.82198061609925       -0.19245320849023       -0.04575543930151
O           -3.02189458788773       -0.37347685543675       -0.07311432476157
N           -0.95724636479906       -1.30524471529861       -0.02551865162824
C           -1.50928874293654       -2.64776666249441       -0.05370462229984
H            3.73037192690805        1.22341711550829        1.06747093159470
H            4.00934278272788        1.05658484132055       -0.68059129798146
H            2.69769654319802        2.10772762707001       -0.07736526892365
H            3.58449979222013       -1.64917007815011        0.04702507625109
H           -1.64811588668818        3.08155580062392       -0.03128897862999
H           -2.81551392846875        2.09932684377456       -0.96228183430519
H           -2.87152662632431        2.08752052124894        0.80825906017696
H           -1.11926138604231       -3.22865691302490        0.78323254327183
H           -1.24353368695984       -3.14894323306845       -0.97781167482913
H           -2.60533722488457       -2.65065129974595       -0.03068880377853
H            1.37919060446403       -2.93632358144835        0.00070134986474
25
 energy: -43.837653169945 gnorm: 0.001274696888 xtb: 6.6.1 (8d0f1dd)
C            3.24453474305909        1.17998438292533        0.08770807901199
N            2.30687528829997        0.10641638201474        0.03578611268238
C            2.60534597880257       -1.23630333534135        0.03445679972940
N            1.42301909163354       -1.93252888175377        0.01440363140626
C            0.39226015130060       -1.06450919679295        0.00089230314035
C            0.91854888961231        0.22598374221054        0.01714779111310
C            0.11836376424414        1.38687166823575       -0.00446982060524
O            0.49586444698945        2.56193966650857       -0.00412336586218
N           -1.26598090586741        1.04974159264848       -0.03369208119205
C           -2.21290700069786        2.15162456209791       -0.05571611913309
C           -1.82214420973250       -0.19257457398282       -0.04663662746030
O           -3.02205406612552       -0.37361423958016       -0.07452378706456
N           -0.95740998864670       -1.30553295515150       -0.02630376240900
C           -1.50896234171147       -2.64877018616038       -0.05460730474578
H            3.73209484485252        1.22445143565781        1.06659902289739
H            4.01174908883729        1.05593144772043       -0.68019214493668
H            2.70196298781874        2.10941063629926       -0.07902872070297
H            3.58365393376261       -1.64925417640227        0.04719263136130
H           -1.64954579637437        3.08196096798137       -0.02901176101883
H           -2.81561426489422        2.10012023960416       -0.96194831441895
H           -2.87239288243268        2.08569932598975        0.80854618886165
H           -1.12228153169236       -3.23060624048065        0.78317535076737
H           -1.24347401719460       -3.15160506911455       -0.97807454871618
H           -2.60498072486627       -2.64999244310718       -0.03019701842583
H            1.37833848904566       -2.93575934854823        0.00276098000179
25
 energy: -43.837641991574 gnorm: 0.002257825781 xtb: 6.6.1 (8d0f1dd)
C            3.24344273114102        1.18050321752749        0.08811602840248
N            2.30710744794364        0.10589529974579        0.03641233264601
C            2.60578057369083       -1.23676575972801        0.03477721282872
N            1.42330377469854       -1.93309925837999        0.01353854714928
C            0.39228791728170       -1.06505063515773        0.00100919822430
C            0.91886689739469        0.22539087146226        0.01785051694639
C            0.11994647118410        1.38694195571256       -0.00384842040677
O            0.49893956296521        2.56161604005786       -0.00344473199597
N           -1.26487080253296        1.05039186329587       -0.03308751402385
C           -2.21238083307524        2.15180618748852       -0.05679023368039
C           -1.82182088532819       -0.19163592277741       -0.04514971153425
O           -3.02204974466111       -0.37137716106238       -0.07313879793982
N           -0.95770386471693       -1.30549864236511       -0.02587240887856
C           -1.50900194333009       -2.64904942155686       -0.05534350522883
H            3.73271343434320        1.22411520166730        1.06626121922882
H            4.00895382912304        1.05821030944145       -0.68177329042647
H            2.69863448110020        2.10916091361726       -0.07641392067963
H            3.58441270818532       -1.64949030777469        0.04839700293634
H           -1.65115442553168        3.08354202512835       -0.03256195232227
H           -2.81575980863269        2.09726516726193       -0.96238954312269
H           -2.87121940310858        2.08604037277205        0.80795731968050
H           -1.12271568554948       -3.23165770896343        0.78205094545529
H           -1.24461542598472       -3.15073113327193       -0.98033813955371
H           -2.60473391846665       -2.65105517891800       -0.02698170532653
H            1.37850087988940       -2.93638289174482        0.00090706590298
25
 energy: -43.825186225032 gnorm: 0.084566831001 xtb: 6.6.1 (8d0f1dd)
C            3.24723004085584        1.18372116979109        0.08816032032964
N            2.31172624513913        0.10154671920133        0.04109872584813
C            2.61411024043058       -1.22217423576751        0.03634501776858
N            1.44735209638034       -1.91853209095510        0.02875138028995
C            0.39897797921940       -1.07430959064684        0.01536378350814
C            0.92617940383699        0.23374601334169        0.02160524075869
C            0.11658268629612        1.39608697081704       -0.00397053901859
O            0.50663610208939        2.56092654851783       -0.00318668341410
N           -1.24863741358887        1.04701208954433       -0.04183458648058
C           -2.20168972575975        2.15492323442007       -0.06209402867083
C           -1.80922459159027       -0.18447755126018       -0.04277929386195
O           -3.02263119282457       -0.35956051177593       -0.08106809180829
N           -0.98343469475997       -1.31697362438201       -0.00997308287859
C           -1.55736879568513       -2.64947143355598       -0.04497628781803
H            3.74592023660225        1.22954809071547        1.06532770460150
H            4.01081452302092        1.07693668597606       -0.68689393258660
H            2.70395535776559        2.11977791152896       -0.06653029618936
H            3.59687968772370       -1.64093365809004        0.05491115598089
H           -1.64242111000646        3.08456647781910       -0.03435212010527
H           -2.80280224855548        2.10203661858519       -0.96947121465616
H           -2.86223602738188        2.09311470330092        0.79971875119196
H           -1.06134667681867       -3.26989064840592        0.72128089728995
H           -1.38171635272563       -3.11247402065443       -0.98032818704706
H           -2.69427008308070       -2.81852999330365        0.00251780865209
H            1.40384303609326       -2.92356265398619        0.01540752446602
25
 energy: -43.829487955616 gnorm: 0.042458365215 xtb: 6.6.1 (8d0f1dd)
C            3.24299257853848        1.18493516750018        0.08976028086198
N            2.30690858028818        0.10432369531233        0.03931103791447
C            2.60666327222786       -1.23472908116728        0.03703739563704
N            1.43009405228014       -1.93049139648343        0.02564833900844
C            0.39006033018799       -1.07445908235479        0.01348418553114
C            0.91551990141522        0.22636265596737        0.02168634447754
C            0.11270878044142        1.38705998064543       -0.00332908827613
O            0.49833463384161        2.56097420538351       -0.00374047064403
N           -1.26351937789815        1.04379644383862       -0.03845246138542
C           -2.20841910716399        2.15187109966313       -0.06238145947104
C           -1.82138309922222       -0.19344812545670       -0.04340434963226
O           -3.02690454309958       -0.36895222700246       -0.08157774280506
N           -0.97477769862956       -1.31560646525961       -0.01210653806300
C           -1.51728402507745       -2.65795480297060       -0.06445352168127
H            3.74383749908180        1.22720857689050        1.06407218066363
H            4.00415980507300        1.07444912227000       -0.68688187942290
H            2.69651607586126        2.11580237675302       -0.06371416773247
H            3.58610015896822       -1.65476542202639        0.05773489599308
H           -1.63256965483825        3.07409882758594       -0.03580673115019
H           -2.80864611158341        2.10321490849208       -0.97034518479133
H           -2.86885966565557        2.09192654300711        0.80114799290678
H           -1.07301491029149       -3.26655939433565        0.73251559730894
H           -1.32869326577149       -3.12514128886093       -1.02520584696955
H           -2.62932798655322       -2.69556993282955        0.05836039034488
H            1.38193250025532       -2.93529316378655        0.01367076752686
25
 energy: -43.831831630622 gnorm: 0.013571572518 xtb: 6.6.1 (8d0f1dd)
C            3.24719607150930        1.19006962827178        0.08881008678217
N            2.30906445476064        0.11152034829458        0.03748532028357
C            2.61064073118909       -1.23051507351889        0.03682422008579
N            1.43049938438221       -1.92881887593097        0.02808220868451
C            0.38589571192326       -1.07417709216596        0.01711316084369
C            0.91515496969920        0.22445869344413        0.02176773469790
C            0.11935133037498        1.38584573444430       -0.00409468270892
O            0.50413478843267        2.56174563415496       -0.00563553566716
N           -1.26180401668709        1.04664553640932       -0.03788169479357
C           -2.20363953917991        2.15517980322872       -0.06275179249062
C           -1.82427704599592       -0.19156940553105       -0.04187968600588
O           -3.02789372170789       -0.35922484411975       -0.07709793472748
N           -0.97967355618534       -1.31764106691875       -0.00232430495009
C           -1.54079938565453       -2.66304452074612       -0.05207068492281
H            3.74692319041052        1.23086397629967        1.06326277108050
H            4.00971735223652        1.07657371868438       -0.68645181775896
H            2.70303057210519        2.12058977317798       -0.06674437302289
H            3.59175915242018       -1.64484621174833        0.05496030869278
H           -1.63208961541371        3.08061346530827       -0.03615545243233
H           -2.80378387220718        2.10508946210211       -0.97029615086655
H           -2.86391045507651        2.09466076357431        0.80086391905689
H           -1.07928318314785       -3.27315001157880        0.72761865906125
H           -1.34590135435048       -3.12143585647210       -1.01671296832010
H           -2.63788400253779       -2.75367747605188        0.02852410304335
H            1.39000076137657       -2.93270288183660        0.01781455250509
25
 energy: -43.831653211665 gnorm: 0.011834442677 xtb: 6.6.1 (8d0f1dd)
C            3.24859908133279        1.18788835471668        0.09287439777016
N            2.31234641039497        0.11130766455358        0.03760198037830
C            2.61599161485603       -1.23149738183519        0.03672722078171
N            1.43501318013823       -1.92862491079032        0.02165321635143
C            0.39050459342432       -1.07293776029925        0.00719246523993
C            0.91867900323216        0.22444940395700        0.01906589854570
C            0.12411114524216        1.38678418686352       -0.00469669462810
O            0.50324951899827        2.56361304162883        0.00044589507503
N           -1.25924267391361        1.04823831247787       -0.04226150479453
C           -2.20711723749400        2.15054724642192       -0.06313411584417
C           -1.81970756034194       -0.19153339495882       -0.05159340215143
O           -3.02197621829218       -0.36124685325233       -0.08900662971037
N           -0.97317978555586       -1.31546605552858       -0.01153512443972
C           -1.55125567179082       -2.65726530541790       -0.04286043060963
H            3.74572011782877        1.22525173339500        1.06853221055209
H            4.00925845675802        1.07575895170566       -0.68435268471874
H            2.70070375505629        2.11631885597129       -0.06089123741170
H            3.59657861893042       -1.64550022590856        0.05760069587077
H           -1.64381359844052        3.08022521517436       -0.03334948027330
H           -2.80826716541066        2.10000155422075       -0.97011958021599
H           -2.86816960895273        2.08527097260976        0.79979258100843
H           -1.06340363611676       -3.26041359191572        0.72567551189940
H           -1.36809317914033       -3.12122079436992       -1.00426193833593
H           -2.65298364502892       -2.74512597250414        0.04496070031646
H            1.39888320696204       -2.93177002614021        0.00897001549433
25
 energy: -43.831999973473 gnorm: 0.004982120687 xtb: 6.6.1 (8d0f1dd)
C            3.24626732786383        1.18764786117959        0.08850164600652
N            2.30984086562548        0.11092311708658        0.03848184108408
C            2.61284828418720       -1.23244443932842        0.03965907581403
N            1.43145738762197       -1.92881216875481        0.02939308654983
C            0.38825870820523       -1.07233891468629        0.01520874177797
C            0.91637656920825        0.22435438198318        0.02365808338576
C            0.12241096557132        1.38645203268607       -0.00291684577343
O            0.49990881148743        2.56328707815177       -0.00419599228110
N           -1.26134795442551        1.04781736719075       -0.03701686015325
C           -2.20482398215373        2.15306647966972       -0.06226130738630
C           -1.82211927555849       -0.19252824339997       -0.04275644985264
O           -3.02437704798185       -0.36287150773264       -0.08044223950581
N           -0.97359511239039       -1.31571939529908       -0.00645403888124
C           -1.54560628970204       -2.66049749662048       -0.05044194711830
H            3.74550789535210        1.22877407616522        1.06278407117920
H            4.00590945740557        1.07393629330537       -0.68943873034683
H            2.69920844248463        2.11646478569739       -0.06707608046846
H            3.59276313216738       -1.64726426964912        0.05661313350217
H           -1.63534723579904        3.07929444390385       -0.03619460069278
H           -2.80583240410713        2.10306138400067       -0.96943544631878