25
 energy: -43.138607722496 gnorm: 2.671389535325 xtb: 6.6.1 (8d0f1dd)
C            3.21786164340000        1.13591514650000        0.01837059260000
N            2.27034809790000        0.05199982890000        0.00038279530000
C            2.54167221030000       -1.23971668410000       -0.00834188300000
N            1.39367826450000       -1.95088267900000       -0.00850347120000
C            0.35269634020000       -1.06748964300000        0.00059917290000
C            0.90759959010000        0.20069750900000        0.00663590170000
C            0.07590235260000        1.39864294500000       -0.00284827040000
O            0.48715076820000        2.53168346660000       -0.01725767220000
N           -1.27221500230000        1.06666939660000        0.00165480230000
C           -2.23229981500000        2.16656245330000       -0.00245172030000
C           -1.84872931540000       -0.19179276200000        0.00496135950000
O           -3.03273030250000       -0.36103538130000        0.00858583760000
N           -0.96599111670000       -1.30060631840000        0.00174701630000
C           -1.52030655580000       -2.64076660390000       -0.00239033190000
H            3.71480285180000        1.18589984860000        0.98803183970000
H            3.97079415090000        0.99383197990000       -0.75543416370000
H            2.68321036910000        2.07051068580000       -0.15067179540000
H            3.52469367910000       -1.66989040330000       -0.01523639120000
H           -1.67672429040000        3.10039111610000        0.00486339690000
H           -2.85755792270000        2.10547813320000       -0.89185337000000
H           -2.87119733260000        2.09858159720000        0.87661144540000
H           -1.20589108080000       -3.18768007210000        0.88663215920000
H           -1.21982032550000       -3.17678505510000       -0.90288069810000
H           -2.60531402170000       -2.54255916880000        0.00649952960000
H            1.32879827740000       -2.95942079410000       -0.01653446370000
25
 energy: -47.533192098287 gnorm: 6.142159467210 xtb: 6.6.1 (8d0f1dd)
C            3.21788960973070        1.13595305446105        0.01837845456558
N            2.27080772794095        0.05223054923226        0.00037365262770
C            2.54292356046329       -1.24137979300414       -0.00835846912309
N            1.38444080095349       -1.93282238616110       -0.00833046187506
C            0.35555193371761       -1.06556787888300        0.00062056284470
C            0.90740534498806        0.20146763536516        0.00663680472096
C            0.07648434771825        1.39949830321420       -0.00284191503082
O            0.48698757366502        2.53224947587278       -0.01726062903691
N           -1.26380326555213        1.05286056837057        0.00162636006017
C           -2.23244503221343        2.16403506369473       -0.00244038310913
C           -1.59401202351023       -0.42019541942108        0.00303426129449
O           -3.00173018671134       -0.36808444409438        0.00849098795115
N           -0.94966355868484       -1.32020414101557        0.00167720650689
C           -1.52026972196018       -2.64198416501642       -0.00239180007344
H            3.71481440279659        1.18589438629672        0.98803753795501
H            3.97079719736644        0.99382450340848       -0.75543913230250
H            2.68322919346240        2.07049519350494       -0.15067241167378
H            3.52470879234730       -1.67014108611863       -0.01523971771823
H           -1.67679490286345        3.10025404137519        0.00486329888238
H           -2.85758159610905        2.10540162029470       -0.89186175370707
H           -2.87122420969865        2.09850215347966        0.87661927153730
H           -1.20592992466074       -3.18777859503168        0.88665249358781
H           -1.21985660635737       -3.17688282781207       -0.90290001331505
H           -2.60531973014251       -2.54242796614352        0.00649898460106
H            1.02302178741382       -2.70695930426885       -0.01460157227012
25
 energy: -55.072941306895 gnorm: 9.097209449602 xtb: 6.6.1 (8d0f1dd)
C            3.21787566237417        1.13599752045484        0.01838289779949
N            2.27094155734401        0.05277402541749        0.00037043647642
C            2.54419277068625       -1.24277172919690       -0.00837386067304
N            1.38227591231534       -1.91165494624915       -0.00813413070828
C            0.36009636874474       -1.06317237958426        0.00064912312077
C            0.90727391748270        0.20221880336464        0.00664050866785
C            0.07626606022436        1.40054804861442       -0.00283905356787
O            0.48714982507001        2.53283946004271       -0.01726647103355
N           -1.25675341083363        1.04189137235360        0.00160346986926
C           -2.23262374834554        2.16153076479817       -0.00243334033740
C           -1.33974425176812       -0.64405521107859        0.00110581212118
O           -2.97502152977098       -0.37399703023579        0.00839632130205
N           -0.92750305542057       -1.34931524527088        0.00159719590159
C           -1.52002628803949       -2.64409274039869       -0.00239358609192
H            3.71480837368666        1.18592965809929        0.98804661793087
H            3.97078696804851        0.99385717605238       -0.75544540801456
H            2.68319751644228        2.07052511779418       -0.15066992574937
H            3.52475987350758       -1.67033704715527       -0.01524259082030
H           -1.67673604207083        3.09990530858616        0.00486385273834
H           -2.85760957073079        2.10521252255531       -0.89184040133783
H           -2.87125472771747        2.09830980505735        0.87659722764326
H           -1.20593989007735       -3.18798133780708        0.88672806105973
H           -1.21986535439762       -3.17708017309604       -0.90297547362094
H           -2.60533931058508       -2.54221429181065        0.00649885950256
H            0.70922388793084       -2.45662890970725       -0.01269452427831
25
 energy: -65.454026052483 gnorm: 12.684498659315 xtb: 6.6.1 (8d0f1dd)
C            3.21778326957294        1.13624147615931        0.01838890735950
N            2.27098674852140        0.05378507632973        0.00036154524227
C            2.54546747170827       -1.24388062040203       -0.00839826784290
N            1.38415742745485       -1.89897259757172       -0.00802011916354
C            0.36819694430051       -1.06134209029566        0.00069594778342
C            0.90704792877390        0.20323048981717        0.00664944769414
C            0.07568207941452        1.40153348386275       -0.00283398736720
O            0.48730829251468        2.53351269102560       -0.01726565213031
N           -1.25041878052197        1.03476007520908        0.00158833375532
C           -2.23304219029831        2.15943873631165       -0.00242125111491
C           -1.11379769099208       -0.80349109030963       -0.00102107231763
O           -2.95617472504002       -0.37860638091863        0.00832555712345
N           -0.86180989494321       -1.45679874004717        0.00163670385574
C           -1.51958813910621       -2.64959167113160       -0.00240344996046
H            3.71471580265528        1.18620822756470        0.98805710654642
H            3.97069625616087        0.99415305405831       -0.75545735865412
H            2.68300466020962        2.07073937116440       -0.15066456610552
H            3.52493102864134       -1.67031823088287       -0.01525699746989
H           -1.67683768672099        3.09940182995798        0.00487869424407
H           -2.85775858208033        2.10483202382724       -0.89180981207432
H           -2.87140151582738        2.09791984182951        0.87659121679477
H           -1.20579703030990       -3.18851387096348        0.88689571168311
H           -1.21972424216064       -3.17759206399937       -0.90315936541541
H           -2.60522863322079       -2.54192310421175        0.00649660341690
H            0.38203271539364       -2.18648737478350       -0.01068225798291
25
 energy: -79.119847438548 gnorm: 15.724217411902 xtb: 6.6.1 (8d0f1dd)
C            3.21758199330286        1.13684174370894        0.01839238576413
N            2.27116665636588        0.05499052535254        0.00034602261365
C            2.54638432010710       -1.24412585233337       -0.00843394867526
N            1.38381941735229       -1.89387880544116       -0.00800330955344
C            0.37878530758108       -1.05829560620756        0.00076291085595
C            0.90696836277301        0.20450838904956        0.00666805361386
C            0.07475486339041        1.40237278102327       -0.00282147696466
O            0.48725266621208        2.53417595930190       -0.01724985820729
N           -1.24584108976189        1.03245445713448        0.00159111243541
C           -2.23349717481925        2.15792351519174       -0.00239111161828
C           -0.90002364815883       -0.89272316867658       -0.00371940085526
O           -2.94318115861927       -0.38132112657536        0.00828230107285
N           -0.79197838151599       -1.63842066206231        0.00238285979887
C           -1.52000754193422       -2.65883967743060       -0.00241430217531
H            3.71449084921705        1.18685704137148        0.98806082649707
H            3.97048539776001        0.99485635486889       -0.75547381261846
H            2.68258555853682        2.07123581371502       -0.15065504523778
H            3.52524357921701       -1.66994880827771       -0.01529341672672
H           -1.67734232547421        3.09885972360539        0.00491935374631
H           -2.85811812309603        2.10415065214749       -0.89175770126620
H           -2.87175015261718        2.09721508449403        0.87661248164872
H           -1.20541533867088       -3.18947471299783        0.88709844218382
H           -1.21934732025704       -3.17850968837870       -0.90340901524042
H           -2.60489286806569       -2.54173687958500        0.00648926591072
H            0.07230766527486       -1.91092851139853       -0.00881199910230
25
 energy: -95.844790675392 gnorm: 18.340621341686 xtb: 6.6.1 (8d0f1dd)
C            3.21789075958459        1.13631643871372        0.01839997367587
N            2.27159910536075        0.05519651955597        0.00035411235973
C            2.54628571761917       -1.24500517939871       -0.00842484664431
N            1.38315465602775       -1.88968158062756       -0.00797233865803
C            0.39261439069941       -1.04867514060368        0.00088318857879
C            0.90827583090764        0.20585221847519        0.00670298057170
C            0.07417201708926        1.40290510208736       -0.00282758900141
O            0.48810513994899        2.53460085774764       -0.01727193335343
N           -1.24260065834169        1.03101125854998        0.00157972974203
C           -2.23281407481597        2.15744904625163       -0.00241219027202
C           -0.64486739392596       -1.06216082905974       -0.00631728994157
O           -2.93167926087043       -0.38256527551058        0.00823356199940
N           -0.78068295299728       -1.75541444794718        0.00338027773473
C           -1.52345172127616       -2.66753850420335       -0.00237385733009
H            3.71475178123985        1.18612310849012        0.98806983202156
H            3.97070446543999        0.99405347166462       -0.75547588196852
H            2.68302559077836        2.07073775516558       -0.15065872865716
H            3.52490710225060       -1.67082812685513       -0.01527728058289
H           -1.67669210104074        3.09916437771547        0.00489701115021
H           -2.85762602704618        2.10462719042929       -0.89176708103665
H           -2.87126364036824        2.09769997474420        0.87658128283909
H           -1.20632939583569       -3.19008928865597        0.88735442252085
H           -1.22024159433386       -3.17908911382063       -0.90363725923346
H           -2.60559217932409       -2.54061543606815        0.00649785709144
H           -0.22121404267006       -1.62583585524010       -0.00734633570586
25
 energy: -88.920903053748 gnorm: 260.224128247236 xtb: 6.6.1 (8d0f1dd)
C            3.21955116635755        1.13250413347943        0.01841544603142
N            2.27242592980367        0.05340240924228        0.00040918783936
C            2.54494109532290       -1.24800303030451       -0.00831890664393
N            1.38065483963475       -1.88668374701082       -0.00783763804718
C            0.42619982665367       -1.03518591912925        0.00117636658902
C            0.91100978232848        0.20659475577933        0.00673063946601
C            0.07524962758480        1.40330219177844       -0.00288381643473
O            0.49165974374127        2.53469467836568       -0.01738847722851
N           -1.23867407239115        1.02980930362902        0.00148975099179
C           -2.22958230141118        2.15947992745231       -0.00256046393662
C           -0.39687995111134       -1.23277151969295       -0.00921607889091
O           -2.92261084695064       -0.37964708540346        0.00814421560227
N           -0.86507259948530       -1.90518201167418        0.00638336506993
C           -1.53233189941162       -2.67671292037505       -0.00226926730206
H            3.71634061417896        1.18165403455429        0.98809378135155
H            3.97208686065437        0.98918656082386       -0.75544191328567
H            2.68574745364445        2.06753072339165       -0.15069598941290
H            3.52285124176688       -1.67523607713374       -0.01513861492176
H           -1.67271688373284        3.10138370167160        0.00472107972435
H           -2.85482106257354        2.10820937505449       -0.89191728828195
H           -2.86850507806792        2.10137211854615        0.87641339653330
H           -1.21058451307449       -3.18940273601837        0.88782922911446
H           -1.22442989313458       -3.17841104804694       -0.90390102629467
H           -2.60912866663954       -2.53691408055110        0.00655062254590
H           -0.43294889958763       -1.30673519682817       -0.00761598227846
25
 energy: -104.201142977637 gnorm: 13.370959896304 xtb: 6.6.1 (8d0f1dd)
C            3.21646401781514        1.14040941368128        0.01836248952397
N            2.27215764476281        0.05911207207708        0.00029548238288
C            2.54772739646252       -1.24194884991687       -0.00859613871355
N            1.38567911172690       -1.88449503250891       -0.00812941836113
C            0.43879416498240       -1.03076600066067        0.00112568555542
C            0.91095022626076        0.20904208835609        0.00671905663032
C            0.07134009770938        1.40319359579922       -0.00271356846217
O            0.48505342186395        2.53572561763119       -0.01712076048207
N           -1.24146013055487        1.02691087234903        0.00170072186611
C           -2.23517896453870        2.15339385090104       -0.00216379241863
C           -0.28748745084067       -1.12905804197584       -0.01265813508385
O           -2.92111228199848       -0.38737697458366        0.00830373829613
N           -0.88183719379321       -1.94031025119864        0.00698043358923
C           -1.52727666034881       -2.68329532896154       -0.00245033778813
H            3.71315817494452        1.19069543033443        0.98801656662763
H            3.96928641822852        0.99907431514264       -0.75556080374156
H            2.68023578264838        2.07407578937885       -0.15061348560196
H            3.52688794951451       -1.66658276778769       -0.01552486501406
H           -1.68085521957625        3.09677493144280        0.00518804846657
H           -2.86046473640916        2.10066853050976       -0.89149180866085
H           -2.87402241372729        2.09359836355486        0.87684572541229
H           -1.20271066686512       -3.19313920350768        0.88765086630052
H           -1.21669122006779       -3.18197305941670       -0.90424806846266
H           -2.60295988883068       -2.54381401246212        0.00644645377837
H           -0.52524606526875       -1.38167680657797       -0.00519246773882
25
 energy: -102.676262318855 gnorm: 17.762374821357 xtb: 6.6.1 (8d0f1dd)
C            3.21827854017442        1.13661602237182        0.01814279090288
N            2.27548451318850        0.05958596243117        0.00015785244281
C            2.54745782230279       -1.24424516774945       -0.00880260676367
N            1.40295895814873       -1.90323101910997       -0.00837215520460
C            0.67646504315189       -0.98408852724253        0.00552481648820
C            0.92367865136943        0.21885019701241        0.00676619628104
C            0.07114799887858        1.40133301387141       -0.00266029367464
O            0.48862463982495        2.53583595990022       -0.01709127962032
N           -1.24935275332813        1.03752146487747        0.00182606315826
C           -2.23063689150457        2.15654687648462       -0.00191732442657
C           -0.58951929238118       -0.98979574694974       -0.01761651376439
O           -2.94925386250065       -0.38060483326531        0.00859528664321
N           -0.93582811711989       -1.99676587804056        0.01001631238692
C           -1.56520401926056       -2.72398209402228       -0.00284965039688
H            3.71491954792103        1.18613304786419        0.98781889895067
H            3.97067084444707        0.99422998412451       -0.75587488096025
H            2.68297507454697        2.07090185999258       -0.15076247330087
H            3.52487262267092       -1.67089239025346       -0.01584087874897
H           -1.67670963162893        3.09909076153333        0.00541952826003
H           -2.85768857302359        2.10428215596734       -0.89116461636310
H           -2.87111274848839        2.09717688169469        0.87710759163097
H           -1.20816411560239       -3.19566895572389        0.88979379690182
H           -1.22225507167348       -3.18433982794135       -0.90642965338938
H           -2.60907949608462       -2.54059676944471        0.00662086166217
H           -0.37229816992888       -1.46565443678252       -0.00723605119533
25
 energy: -106.338490118733 gnorm: 5.252936293754 xtb: 6.6.1 (8d0f1dd)
C            3.21746170424158        1.14019371734486        0.01816329834927
N            2.27853009358621        0.06469604284868        0.00022457877093
C            2.55011149297141       -1.24314101511959       -0.00869226892830
N            1.41099668393601       -1.90460216895589       -0.00826788289945
C            0.82929685172484       -0.95192098660159        0.00838176345968
C            0.93326248950426        0.23068910258754        0.00685261309359
C            0.06892411835990        1.40168163148334       -0.00271684605552
O            0.48610710981087        2.53721384386602       -0.01721855104750
N           -1.24693063082878        1.03424969429242        0.00172916794990
C           -2.23184490175200        2.15211476838920       -0.00207862414765
C           -0.48561472164384       -1.06095678605341       -0.02000250479471
O           -2.93306324541871       -0.38529409447902        0.00847748873421
N           -0.93934749609227       -2.02457451386962        0.01231286870264
C           -1.60271174376601       -2.77570618656238       -0.00336759437532
H            3.71362049341564        1.19003474527660        0.98791683305638
H            3.96963695958614        0.99832279290763       -0.75588177637152
H            2.68068810767662        2.07366836859906       -0.15080264730766
H            3.52674642968057       -1.66736424916014       -0.01570144811043
H           -1.68016849798226        3.09703581814681        0.00523340483595
H           -2.85998659510376        2.10075655912711       -0.89134475530634
H           -2.87343768465874        2.09370360983920        0.87694670307682
H           -1.20649222739480       -3.20154497076339        0.89214944096532
H           -1.22052414820524       -3.19018745336816       -0.90864043164392
H           -2.61014986181053       -2.54361647023093        0.00668909928153
H           -0.61467926573710       -1.34721325794437       -0.00919031138789
25
 energy: -106.298278180766 gnorm: 4.689483785280 xtb: 6.6.1 (8d0f1dd)
C            3.22154870090535        1.13978360437010        0.01852862043169
N            2.29074402846673        0.07178300992331        0.00068193830446
C            2.55665875848188       -1.24172431061913       -0.00780831519360
N            1.45132185895034       -1.96580995398235       -0.00838225660096
C            0.76427261768669       -0.94646367017800        0.00833772219728
C            0.95072046299985        0.25961612078509        0.00717040569919
C            0.06601361243591        1.40211211123098       -0.00312298267902
O            0.48921732319085        2.53873450003008       -0.01793959188373
N           -1.25831577994589        1.06716999062643        0.00122268693374
C           -2.22820089897789        2.15722454900929       -0.00331971778155
C           -0.35874169756701       -0.95599820537980       -0.01561002404919
O           -2.97532155849506       -0.36543859826677        0.00800716328677
N           -1.05811944974877       -2.18377244955471        0.02093134966023
C           -1.67089945908045       -2.86046578922433       -0.00404007868677
H            3.71463237954699        1.18817008510743        0.98852489607544
H            3.97104043159113        0.99584779135662       -0.75542474931053
H            2.68226786365931        2.07183138231565       -0.15082638671795
H            3.52772065296615       -1.66896828721978       -0.01449811751378
H           -1.67788507914103        3.09850560189757        0.00391257834975
H           -2.85811521090609        2.10198537854957       -0.89257908956269
H           -2.87194873828820        2.09543712447774        0.87555147477246
H           -1.21317910745228       -3.21238973572988        0.89854729421276
H           -1.22660171662222       -3.20109475751654       -0.91415572718816
H           -2.62692670209559       -2.54219763093883        0.00680741971865
H           -0.50147177846070       -1.22563931946973       -0.01934489457449
25
 energy: -106.916615593387 gnorm: 1.178498218374 xtb: 6.6.1 (8d0f1dd)
C            3.22861566905026        1.14373644950789        0.01880667710120
N            2.32349407999381        0.09239590014628        0.00108319843374
C            2.58122442363617       -1.24106558929540       -0.00689570477788
N            1.51059373357582       -2.01692706282956       -0.00824517330993
C            0.75315005628317       -0.92605262772940        0.01199553343021
C            0.99860089337682        0.34154108128236        0.00777648047166
C            0.06002169325611        1.40503642984273       -0.00362406135514
O            0.48931749883840        2.54376662413561       -0.01897743278051
N           -1.25137824074445        1.06792027933542        0.00046466132469
C           -2.22232619393280        2.14811356396456       -0.00482395542719
C           -0.40140082443446       -0.87769034482588       -0.01135838022165
O           -2.93937752247479       -0.37272575161784        0.00724155674445
N           -0.92692641740525       -2.13112273424674        0.03385732265163
C           -1.86220748066498       -3.10000007921482       -0.00827116172999
H            3.71505176826362        1.18977255847058        0.98923098260571
H            3.97219286357514        0.99695680152518       -0.75515118748469
H            2.68213700422416        2.07204095180141       -0.15104528353749
H            3.53249207781544       -1.66859616657851       -0.01311512257002
H           -1.67854550048724        3.09734007353695        0.00222452247991
H           -2.85786495508955        2.09954091420831       -0.89391438840190
H           -2.87209989486072        2.09364578981623        0.87367839551605
H           -1.22366611046370       -3.24215023479465        0.91497373159682
H           -1.23639832637462       -3.23095770619707       -0.92986904656149
H           -2.66385544817766       -2.54320797883951        0.00720038239319
H           -0.55041333267870       -1.12307259980411       -0.03207092869134
25
 energy: -106.993622687760 gnorm: 0.493728385409 xtb: 6.6.1 (8d0f1dd)
C            3.23363927372269        1.14797313834043        0.01855063932475
N            2.33557327986361        0.09965907353601        0.00064532929393
C            2.58852521705009       -1.24231184168745       -0.00751056081033
N            1.51935140123566       -2.00955974954173       -0.00823592073109
C            0.84702697216494       -0.91903297266405        0.01466004700014
C            1.02114430711521        0.35585087681928        0.00793654899965
C            0.05912116061822        1.40889246076314       -0.00336879586893
O            0.48791078917382        2.54829805335588       -0.01875386622365
N           -1.24765773657855        1.06284629379177        0.00071499074075
C           -2.22076489518006        2.14310535276080       -0.00419426401956
C           -0.48619809681786       -0.87340515058611       -0.01873831720064
O           -2.92342725813774       -0.37742077363903        0.00745664918534
N           -0.91308070937028       -2.13981555389722        0.03561959655744
C           -1.85821408482824       -3.11814486222442       -0.00844682182699
H            3.71601088820276        1.19147788965482        0.98958490965506
H            3.97336341939577        0.99897636796963       -0.75605901073173
H            2.68184488908485        2.07320794137125       -0.15110389148132
H            3.53749613505924       -1.66811506307257       -0.01383041608585
H           -1.67946694723496        3.09652487899416        0.00289184761700
H           -2.85842450165228        2.09792603238134       -0.89302995301261
H           -2.87242417557848        2.09175561568564        0.87415489130225
H           -1.22869132523669       -3.25302255993863        0.91674453430000
H           -1.24185151065884       -3.24138660119400       -0.93242712105369
H           -2.67702991439808       -2.53932779884952        0.00731538627787
H           -0.63334506291479       -1.11671250652940       -0.02940481330778
25
 energy: -107.030386890408 gnorm: 0.294794885006 xtb: 6.6.1 (8d0f1dd)
C            3.24188303574944        1.15396058013497        0.01856858563134
N            2.35266030191162        0.10755975601781        0.00030305527616
C            2.59984083688112       -1.24125637674172       -0.00766151613273
N            1.52991746004589       -2.00407755074887       -0.00787195089291
C            0.83628110145743       -0.92764872996598        0.01590836356079
C            1.04307724044597        0.36698597768099        0.00828609065369
C            0.05855072168571        1.41366435534011       -0.00332371075541
O            0.48639213194711        2.55386258772032       -0.01891834982259
N           -1.24617300846471        1.06139638302021        0.00076605894605
C           -2.21915207368873        2.13897172931523       -0.00426695303437
C           -0.52360448201578       -0.87758503826858       -0.01998572237571
O           -2.91707183011303       -0.37990726504366        0.00737334907858
N           -0.89670419049693       -2.12780004448217        0.03728861543246
C           -1.84621040494255       -3.12610353563503       -0.00837354956532
H            3.71775157274811        1.19346129463204        0.99062532358356
H            3.97579913764435        1.00097202302334       -0.75692666611723
H            2.68215473428931        2.07427716864827       -0.15113622105042
H            3.54514349381012       -1.66802730619032       -0.01385944394109
H           -1.67989887574847        3.09577226546942        0.00280994394489
H           -2.85846327828700        2.09630617962001       -0.89279215085347
H           -2.87246579592242        2.09013185012289        0.87376221725934
H           -1.23627776161988       -3.26680122517986        0.91912352909832
H           -1.24957405680633       -3.25485168053632       -0.93516393966442
H           -2.69293866594267       -2.53572225541927        0.00734907919196
H           -0.67048583046766       -1.11930260093381       -0.03071241955146
25
 energy: -107.100084895561 gnorm: 0.560396172607 xtb: 6.6.1 (8d0f1dd)
C            3.27014609688953        1.17446347378310        0.01888316281827
N            2.40518669073048        0.12919162468992       -0.00057663250221
C            2.63613947025494       -1.23569477565573       -0.00757409062301
N            1.56641912883351       -1.99051184153522       -0.00638218217670
C            0.78972322871481       -0.94285257189083        0.01968858690773
C            1.10923093309706        0.39314972954807        0.00967801257313
C            0.05908635780630        1.42816766355769       -0.00343614765117
O            0.48134199258996        2.57197055116974       -0.01988141708555
N           -1.24204633770032        1.06276522108811        0.00066244373805
C           -2.21366266618583        2.12703755965024       -0.00527186435101
C           -0.61892013411156       -0.87485553330982       -0.01934149956462
O           -2.90263040308569       -0.38484496748656        0.00677059649210
N           -0.86397712036238       -2.11701152929126        0.04436221472755
C           -1.82110754080334       -3.15357271035126       -0.00754067726127
H            3.72449126795043        1.20031020724177        0.99488733690940
H            3.98539565497208        1.00748036139000       -0.75989263219079
H            2.68396113032130        2.07791880242468       -0.15125287263226
H            3.57164218627403       -1.66859327293182       -0.01319956596383
H           -1.68094810449839        3.09319425435937        0.00170033268959
H           -2.85798905236379        2.09101634709807       -0.89277547081127