25
 energy: -42.136000808921 gnorm: 0.002206315876 xtb: 6.6.1 (8d0f1dd)
C            3.92041341570716        2.86610406425784        0.11534248565331
N            2.20621704563956       -0.65584853542803       -0.04422363592014
C            2.25897503047861       -1.95254436336262       -0.08292658433476
N            1.01180515110683       -2.52225445248919       -0.09207881290353
C            0.12709696709484       -1.49508846764406       -0.05931447373355
C            0.89337982114794       -0.32168365129612       -0.03008789429735
C            0.25747058201328        0.97508375586147        0.01468403977432
O            0.82147371146928        2.04626183594174        0.03878764325491
N           -1.13519293629037        0.87220413496343        0.02786902091209
C           -1.90217320753630        2.10694722794139        0.08138949472497
C           -1.90031046982661       -0.28119915861654        0.00586777180715
O           -3.10195233800652       -0.24901407023272        0.03038314549758
N           -1.21623693334006       -1.50813007310244       -0.04877347147420
C           -1.97947543799141       -2.73693386484392       -0.07975079887180
H            4.34199550881220        3.11671865096124        1.07134170025116
H            4.56533220371131        2.77325635633851       -0.73808563067433
H            2.85926061950107        2.70447019228472        0.01871059470620
H            3.16472192352920       -2.52449429438748       -0.10077278149125
H           -1.20786482911673        2.94235376359206        0.02823439128044
H           -2.60605444788698        2.14131219748482       -0.75059157819383
H           -2.47332610910846        2.15131171154135        1.00977345246489
H           -1.74169436701657       -3.35487314586133        0.78781849978254
H           -1.77192905182604       -3.29102686821389       -0.99643424723590
H           -3.03706409884873       -2.47470961452851       -0.05227167774681
H            0.80556376068320       -3.50998478956218       -0.12371903533152
