72
 energy: 0.000000000000 xtb: 6.6.1 (8d0f1dd)
N           -1.47310921155849        2.74401293103706        2.22063921685122
C           -1.55658879776851        2.16490285539332        1.13274273951491
C           -2.74549199786261        2.05621232186130        0.23826248438941
C           -3.31377553111525        0.64333411542669        0.32332512650568
C           -4.30230156009016        0.24487110156316       -0.58026161703006
C           -4.85238763031941       -1.02286490450319       -0.53363588718165
O           -5.81419972815119       -1.48606034185536       -1.36157882725342
C           -6.39655633239252       -0.60827000183299       -2.29568474302620
C           -4.39972501531283       -1.94646102182611        0.44396929121966
O           -4.98748311285188       -3.16145997157803        0.41085992006324
C           -4.66362127904578       -4.10093827755394        1.40909127743729
C           -3.42072513477031       -1.54561384810496        1.33436546260297
C           -2.88302799614223       -0.26315800396994        1.27400150770375
C           -2.19303798107274        2.30467000305896       -1.18742977106749
C           -1.26651538239283        1.17243369445008       -1.65249429687285
C            0.01082524939134        1.09745454476277       -0.89354803499847
N            0.61779393476578       -0.02034948052406       -0.57705522512502
C            2.00145210352228       -0.02376006389122       -0.15611399603240
C            2.92554934655222       -0.53865282675074       -1.27700088804721
C            4.35756843073516       -0.43050757231754       -0.83075544324989
C            5.07346135469827        0.73206409086248       -1.03980965825901
C            6.38627986649936        0.84224441421807       -0.60344822702769
C            7.00047264773336       -0.20824756335880        0.05722314418200
O            8.26703657141718       -0.21011313101264        0.52410943644933
C            9.06912227848686        0.92943601033931        0.31863058007678
C            6.27039964270142       -1.40439753960823        0.28033466008274
O            6.94829939911432       -2.38012925705718        0.92751999079483
C            6.31537317745639       -3.61583200086742        1.15217711710877
C            4.96302794628964       -1.49347471867959       -0.16064430359178
C           -0.05511211367372       -1.29906247805359       -0.62085686319744
C           -3.86758037025447        3.07992600430699        0.58498060215443
C           -4.49286159663096        2.77383493050346        1.94313289484366
C           -3.39165179876499        4.52917666589254        0.54797523472093
H           -4.66030026466202        0.94509067363451       -1.31640568823548
H           -6.85037928558380        0.25803162192116       -1.80468845313260
H           -7.17287442604349       -1.18600110843259       -2.79318157561361
H           -5.66836817451085       -0.26952966318766       -3.04040255244073
H           -4.88416720672258       -3.71589460520039        2.40913542187496
H           -5.29223570620378       -4.96637458756866        1.20969236903657
H           -3.61139813139015       -4.39919835331056        1.35529357841967
H           -3.07077796610445       -2.21868765711333        2.10002662693138
H           -2.14562754426994        0.02067850696302        2.01001344383370
H           -3.02188875377605        2.38238012313952       -1.88813545054866
H           -1.65198530896729        3.25146700677685       -1.20556284570283
H           -1.81103374245520        0.23006524641044       -1.62116301628650
H           -0.99335688527853        1.37490212198123       -2.69443256973690
H           -0.67628064361333        1.65183887049447        0.61785727145403
H            0.63525841192517        1.98466369793744       -0.92314021190751
H            2.11132552493482       -0.65949692842762        0.72532613231274
H            2.30680473056284        0.98978251704176        0.11078972794250
H            2.76694198818247        0.06750735147374       -2.17075252200790
H            2.67954581369920       -1.57455627803457       -1.51167743520200
H            4.62169998552446        1.56295612048703       -1.56123579000624
H            6.92357674630170        1.75715815945204       -0.79119596719031
H            8.65159112996149        1.81001823324363        0.81701555159939
H            9.20136171144928        1.14042857828877       -0.74698991949293
H           10.03428838009630        0.69003240176163        0.76064937965836
H            7.05567174969094       -4.23621171795340        1.65347565939075
H            5.43848001056755       -3.50813558175093        1.79970565785717
H            6.02060041905269       -4.09420497120334        0.21253282636366
H            4.40102758497114       -2.40127266373392       -0.00490198249042
H           -0.22071299714579       -1.61775583601871       -1.65116008982042
H           -1.01972258008625       -1.24102717432227       -0.10935206830928
H            0.55899954147532       -2.04486085926761       -0.12333730421426
H           -4.63991875734388        2.95501092798550       -0.18098088071825
H           -3.76095216473977        2.90314704960906        2.73380821053058
H           -4.87457614030224        1.75695641518947        1.97884603101694
H           -5.31925552549014        3.45579210326349        2.12325564252114
H           -2.60025590131176        4.69225046143352        1.27368918226171
H           -3.03987406413880        4.81897652321898       -0.43870975059559
H           -4.22191740670577        5.18069648090034        0.80616693961239
H           -0.59832433787845        2.77744694953323        2.72958984441332
72
 energy: -5.799941786968 xtb: 6.6.1 (8d0f1dd)
N           -1.49896812961278        2.78031452974691        2.24928245066237
C           -1.55122083860547        2.15614476738485        1.16089135585048
C           -2.74478953146208        2.06187227029158        0.25270233108690
C           -3.30996879850109        0.65004803492188        0.33374995623483
C           -4.30081842274155        0.25267400256142       -0.56632919189706
C           -4.84896077562293       -1.01386776992627       -0.52238186464678
O           -5.82453693227204       -1.47438550591227       -1.35378767141370
C           -6.39829448204878       -0.58829827705887       -2.28007621317029
C           -4.39740279088791       -1.93728229847333        0.44696927662984
O           -4.99419583369707       -3.16117235669706        0.41113464386741
C           -4.66223314435966       -4.09916341113499        1.40228104422737
C           -3.41897654878604       -1.54260622472740        1.33883300110552
C           -2.88190211668666       -0.26083963943648        1.28248486687789
C           -2.18755319104435        2.30698880409703       -1.17261878316103
C           -1.25951091942074        1.18450807166601       -1.66257636820886
C            0.00933509098470        1.13107169678544       -0.89249515986207
N            0.63713111215600       -0.04694258447066       -0.55997286155028
C            2.00596659727237       -0.03563149994692       -0.15772903945285
C            2.93946569493233       -0.54059022919037       -1.27918797192276
C            4.36437134744994       -0.43473648878149       -0.83892305652332
C            5.08192049903956        0.72966852441621       -1.04075492153840
C            6.39276247013642        0.83997435163279       -0.60098230938662
C            7.00318737670563       -0.21279746169504        0.05668309561868
O            8.28173042273009       -0.21633300699927        0.52763059241430
C            9.07600401332062        0.92273508139569        0.32115680858909
C            6.27599381244812       -1.40468258272412        0.27667981449822
O            6.95886851747609       -2.38850379622611        0.92656000321212
C            6.32202785231905       -3.62013428795930        1.14637876943251
C            4.97095979141027       -1.49622035431956       -0.16652506411914
C           -0.04743291282920       -1.30430356643425       -0.62287567220233
C           -3.88427111392753        3.06823886107682        0.57468058771836
C           -4.50808244408848        2.76770174331190        1.93698314975259
C           -3.43268860607781        4.52009707989202        0.50936961850413
H           -4.65597693548174        0.95506824532575       -1.30238474607768
H           -6.84764200099310        0.27982488237142       -1.78601831348824
H           -7.17895671841217       -1.15953273791145       -2.77983481425615
H           -5.66992637016210       -0.24805368699280       -3.02448791266119
H           -4.87749991734103       -3.71980047935454        2.40656072769528
H           -5.29107627326262       -4.96540213646042        1.20278054770149
H           -3.60942900282649       -4.39676105642859        1.34471559393390
H           -3.06492340987218       -2.22227045960919        2.09802642004587
H           -2.13629156512938        0.01824572966876        2.01140361225649
H           -3.01871962359021        2.39868749530242       -1.87144407049796
H           -1.63829634219335        3.25030278629111       -1.18214895434602
H           -1.79958945633481        0.23896546005664       -1.61558467694825
H           -1.01540789065742        1.38396799311298       -2.71426920583245
H           -0.68251086172206        1.65478226345502        0.66367342142472
H            0.65518509203118        1.99107832875235       -0.94692571051920
H            2.12527611368169       -0.66978097522189        0.72764256639936
H            2.30522540732218        0.97993219505096        0.11289155095082
H            2.77043172364140        0.07034665234747       -2.16760576548109
H            2.68462617536815       -1.57452355555141       -1.51569882459845
H            4.62755677330009        1.56180498640851       -1.55786784990259
H            6.93047519645197        1.75619872929516       -0.78534270153548
H            8.65901336467788        1.80418473619903        0.82014521281284
H            9.20805439414774        1.13709931427431       -0.74490873044520
H           10.04285465742207        0.68466417423647        0.76189517128457
H            7.06136092815535       -4.24336141878033        1.64724080245878
H            5.44389354701427       -3.51384400257359        1.79289803734775
H            6.02585287685229       -4.09765650574660        0.20586495229588
H            4.40678717299071       -2.40310303971665       -0.01087924401342
H           -0.21839212142733       -1.62104712325614       -1.65812354485968
H           -1.01259143391337       -1.24413680752381       -0.11120576127604
H            0.56292054363136       -2.05574585254979       -0.12685779860573
H           -4.64553409123352        2.95287905926847       -0.21067435212697
H           -3.76884062020056        2.87813325638967        2.72567902207978
H           -4.89826382051855        1.75341924143893        1.96440250081867
H           -5.32528484994146        3.45791437731840        2.13036272317620
H           -2.59859877938091        4.69507981957129        1.17382481557739
H           -3.13416375175153        4.77625445952817       -0.50184009424804
H           -4.25031890468281        5.17438305995447        0.80182720068624
H           -0.60742860758290        2.77374617983991        2.74302957642122
72
 energy: -5.596422633498 xtb: 6.6.1 (8d0f1dd)
N           -1.50682951282752        2.78912131063860        2.26604545214133
C           -1.55405250245297        2.15965800218259        1.18009445170545
C           -2.74294921031154        2.06368871527789        0.26271348913243
C           -3.30484323291451        0.65178364787676        0.34362481645781
C           -4.29842129586903        0.25920516852967       -0.55497778705786
C           -4.84897540116894       -1.00582449370309       -0.51368599273683
O           -5.82925426150864       -1.45949311706744       -1.34322227897398
C           -6.39926811161940       -0.56694327323756       -2.26540825652252
C           -4.39646803787364       -1.93296430277228        0.45119214848571
O           -4.99679879653974       -3.15538511712506        0.41200605738890
C           -4.66184112700268       -4.09876563787503        1.39696403970558
C           -3.41530168182685       -1.54291136988900        1.34241433948502
C           -2.87636222402781       -0.26161621942257        1.28955927592387
C           -2.17915439474807        2.31148155834754       -1.15911759473739
C           -1.25475117582853        1.19052524916423       -1.65909252853742
C            0.01532809734756        1.13466324710909       -0.89012467310001
N            0.64092536830026       -0.04732583146579       -0.55698503484471
C            2.01105224780277       -0.03968410557948       -0.15705095010041
C            2.94512468047312       -0.54130513580934       -1.27994598538931
C            4.37061841159451       -0.43653316190437       -0.84076169900175
C            5.08870015061542        0.72813406476414       -1.03965924674056
C            6.39954894728986        0.83746714887706       -0.59903541397059
C            7.01040530358579       -0.21691651894137        0.05594215864328
O            8.28926718155376       -0.22152576568607        0.52665550811822
C            9.08356362922529        0.91775936044439        0.32199332058613
C            6.28287358459658       -1.40887556188976        0.27355232013887
O            6.96545380025796       -2.39451443904853        0.92178719104061
C            6.32735289902569       -3.62596074354786        1.13910014157684
C            4.97755522186535       -1.49893502288547       -0.16994259589318
C           -0.04333932385387       -1.30563595366181       -0.62360572077485
C           -3.89889336534171        3.05890677411662        0.56576320503408
C           -4.52311194887539        2.76069172271184        1.92926081465575
C           -3.46976219443098        4.51151471741863        0.46905290601823
H           -4.65372718224036        0.96544059611843       -1.28694571233361
H           -6.84438157988990        0.30143176954176       -1.76780581934362
H           -7.18257495924378       -1.13266652088599       -2.76704308796813
H           -5.66946832463958       -0.22672965580265       -3.00847242741637
H           -4.87327832513896       -3.72448165142722        2.40369965345681
H           -5.29150667749771       -4.96388948862551        1.19510282509119
H           -3.60914653562406       -4.39583447703313        1.33456701035992
H           -3.05989291983962       -2.22650080310342        2.09738720540409
H           -2.12736717894914        0.01365459653516        2.01653222865238
H           -3.00966562413771        2.41338215443271       -1.85704479917777
H           -1.62395052040151        3.25117356672296       -1.16111727963687
H           -1.79388612159553        0.24491484242577       -1.60749539368589
H           -1.02369732930830        1.38978119789864       -2.71516370726183
H           -0.68207316527975        1.65751151727683        0.69087833487913
H            0.66366012136496        1.99339792541548       -0.94865628530722
H            2.13304545901603       -0.67459892514994        0.72789207018169
H            2.30935834336255        0.97514876988888        0.11499153372806
H            2.77608254957086        0.07227885282384       -2.16636598403265
H            2.69097445126458       -1.57469707988747       -1.51912720554478
H            4.63409735984181        1.56177771499744       -1.55396244655736
H            6.93737988573059        1.75407794395896       -0.78168199058203
H            8.66653613620044        1.79778700489974        0.82327145210563
H            9.21482603186038        1.13488047421560       -0.74364977767271
H           10.05098524975379        0.67917766245238        0.76147104284528
H            7.06581479024509       -4.25127491803204        1.63877488795813
H            5.44928208009945       -3.51961814971852        1.78570316501589
H            6.02999775808420       -4.10143442529364        0.19781517635357
H            4.41303801597555       -2.40576967560235       -0.01557441469426
H           -0.21398547451635       -1.61960262383538       -1.66042423257075
H           -1.00850531616143       -1.24564703620588       -0.11235506173547
H            0.56513690946844       -2.06032058154998       -0.12886944383243
H           -4.64699227855321        2.94388111493866       -0.23797047953872
H           -3.78133950142119        2.85603307925628        2.71919648624712
H           -4.92324067880418        1.75001815882871        1.95105206401955
H           -5.33122145460621        3.45851764638760        2.13338764906928
H           -2.59753910872967        4.70535425745123        1.07134960743577
H           -3.22923444884337        4.73836691740700       -0.56311710879425
H           -4.27555835682950        5.16410496783039        0.79576305765176
H           -0.61887031032193        2.77721315220844        2.76751605869002
72
 energy: -4.927290911453 xtb: 6.6.1 (8d0f1dd)
N           -1.51568607733905        2.79864028281071        2.28205824355374
C           -1.55683565207231        2.16473722350023        1.19814042388044
C           -2.74136929231859        2.06586672644082        0.27258239440464
C           -3.29936065848296        0.65337383673688        0.35301809368508
C           -4.29593539164061        0.26556917780989       -0.54392940711980
C           -4.84911540202388       -0.99782075203287       -0.50508633956302
O           -5.83439517519205       -1.44459437741679       -1.33253017211183
C           -6.40111371847750       -0.54562973855752       -2.25033362094928
C           -4.39555986281842       -1.92851026506693        0.45540314425713
O           -4.99930668685168       -3.14949829335016        0.41317907490824
C           -4.66085337156175       -4.09819871430337        1.39169920877025
C           -3.41144699608934       -1.54322314503689        1.34572999592831
C           -2.87032105697279       -0.26265438059156        1.29599851240324
C           -2.17084605050245        2.31668010055867       -1.14521681321853
C           -1.25031596401446        1.19605652177353       -1.65230783319742
C            0.02197656907388        1.13798541671528       -0.88699783180873
N            0.64533048348075       -0.04818216131407       -0.55430103818225
C            2.01645130439203       -0.04392048994154       -0.15639704299131
C            2.95075726006474       -0.54201226102975       -1.28081233940612
C            4.37675900016482       -0.43840870465144       -0.84254230903911
C            5.09532293839040        0.72652079891636       -1.03845106580971
C            6.40610212323190        0.83503799733402       -0.59697933392642
C            7.01717062930611       -0.22085907111376        0.05554198280995
O            8.29623422179053       -0.22663400369479        0.52645382513700
C            9.09095029893232        0.91246334758473        0.32338894645020
C            6.28941804486052       -1.41290217550955        0.27056019242906
O            6.97185543144909       -2.40001656722051        0.91749985476345
C            6.33309716684316       -3.63146719551515        1.13257590380381
C            4.98399357618916       -1.50178473884339       -0.17353317331140
C           -0.03883089345335       -1.30683281559914       -0.62571088160268
C           -3.91289252630711        3.04978803812746        0.55685856816496
C           -4.53721264253287        2.75310516726466        1.92178425594100
C           -3.50617926610887        4.50378885274729        0.42824874886795
H           -4.65118379564265        0.97530393833199       -1.27227331853148
H           -6.84183474447117        0.32294018649445       -1.74894310588432
H           -7.18738096976039       -1.10581451916679       -2.75332790492037
H           -5.67046670344849       -0.20543786687183       -2.99264729401689
H           -4.86823878856391       -3.72927572900232        2.40102862862534
H           -5.29137246918645       -4.96214505491573        1.18752968404334
H           -3.60832303008959       -4.39484490323906        1.32406961458292
H           -3.05468801357377       -2.23061053210881        2.09658942352498
H           -2.11805360963239        0.00871162167042        2.02107890847523
H           -3.00098921709106        2.42758967853340       -1.84208432142718
H           -1.61050903151121        3.25337604227473       -1.14007654933992
H           -1.78905899743134        0.25027593307806       -1.59829044561456
H           -1.03139383712353        1.39603872348721       -2.71206380616513
H           -0.68218627839386        1.66016136686067        0.71785909172299
H            0.67450974695771        1.99375893265285       -0.95142211057729
H            2.14028354940302       -0.68057241104240        0.72728319462924
H            2.31472708112448        0.96984378003997        0.11869412148181
H            2.78127582832932        0.07446018588672       -2.16497711312820
H            2.69663007144417       -1.57468621513980       -1.52283781392610
H            4.64045328420128        1.56150240133484       -1.55011604927482
H            6.94376885969358        1.75237148705561       -0.77697117042991
H            8.67450545735561        1.79162782633462        0.82659924869673
H            9.22166408665260        1.13177728994231       -0.74191414389686
H           10.05875737679410        0.67289240230282        0.76170794500066
H            7.07111495778244       -4.25825766642098        1.63113329279980
H            5.45505689994420       -3.52567125074644        1.77934856416333
H            6.03510249000134       -4.10521968177300        0.19056072233704
H            4.41909084942599       -2.40858474222955       -0.02072763170273
H           -0.21008676069261       -1.61746507430382       -1.66398485440633
H           -1.00351882344374       -1.24791914982402       -0.11376603639573
H            0.56894481538988       -2.06447318447940       -0.13383910397328
H           -4.64744116520466        2.93369603119552       -0.26507846415545
H           -3.79183421128901        2.83287763108265        2.71110740506211
H           -4.94794401241675        1.74612241032489        1.93883909423438
H           -5.33553633024033        3.45881596542286        2.13782809235110
H           -2.59810735328809        4.71676830466188        0.96550729144272
H           -3.32711980105056        4.70204526692024       -0.62202808483550
H           -4.29915191917208        5.15353965290442        0.79108782477692
H           -0.63140305441550        2.78106365586129        2.79078116210651
72
 energy: -3.813011321693 xtb: 6.6.1 (8d0f1dd)
N           -1.52481001094228        2.80785286026213        2.29793707458761
C           -1.55893678291645        2.17037153693155        1.21561028582547
C           -2.73959128370805        2.06820754389240        0.28252853666266
C           -3.29376111456008        0.65498093192347        0.36252377784731
C           -4.29345878034093        0.27192428458540       -0.53284665608439
C           -4.84920513629775       -0.98979832131065       -0.49652039742829
O           -5.83925483753347       -1.42978467620407       -1.32197681825529
C           -6.40274404358892       -0.52472945706554       -2.23565072718234
C           -4.39468239790289       -1.92394040287586        0.45970508558964
O           -5.00160778769255       -3.14345666337816        0.41437337266887
C           -4.65980374137839       -4.09755007885348        1.38637424954242
C           -3.40769851844318       -1.54352288381634        1.34919927841133
C           -2.86430548114781       -0.26372570039663        1.30262413675359
C           -2.16217300871204        2.32220283371086       -1.13101603084903
C           -1.24592536943980        1.20146251010233       -1.64469244094748
C            0.02889438003153        1.14114091761503       -0.88360416273721
N            0.65000134359963       -0.04889048767293       -0.55126940949617
C            2.02215480925460       -0.04762914372360       -0.15559897691461
C            2.95631113644136       -0.54245154827552       -1.28159123753355
C            4.38287355805721       -0.44018037366215       -0.84430359599719
C            5.10203211986479        0.72492195047548       -1.03747623450729
C            6.41281344890159        0.83251415632347       -0.59532958061023
C            7.02394810054044       -0.22490041672457        0.05485869308804
O            8.30312294059271       -0.23186471524624        0.52610191924431
C            9.09829217531272        0.90705623353960        0.32484182103900
C            6.29594384278333       -1.41706148087479        0.26724210067234
O            6.97822697824316       -2.40562332026501        0.91281515331924
C            6.33882947716600       -3.63705136369826        1.12582753787136
C            4.99035957878948       -1.50468869608962       -0.17729260807183
C           -0.03389632726190       -1.30774028447813       -0.62766797922932
C           -3.92658479628308        3.04077211533112        0.54760329827981
C           -4.55085929063749        2.74599669965723        1.91397369346776
C           -3.54364328115141        4.49671843398658        0.38671283903111
H           -4.64893866184649        0.98500245838413       -1.25762815534221
H           -6.83950611730362        0.34399554732988       -1.73081024597795
H           -7.19170365862056       -1.07970821165315       -2.73995759489473
H           -5.67120068475850       -0.18469528304355       -2.97723030777492
H           -4.86323466889730       -3.73424393100399        2.39828523972971
H           -5.29109514179770       -4.96032169828111        1.17976260942085
H           -3.60744269425299       -4.39370668973224        1.31368240127436
H           -3.04992562355870       -2.23460422157249        2.09618184445864
H           -2.10913822277115        0.00371876269534        2.02617948845033
H           -2.99169620782102        2.44175930527432       -1.82689032522887
H           -1.59706988249356        3.25607115625241       -1.11898846394776
H           -1.78484586638217        0.25574478514532       -1.58816116265050
H           -1.03849515351311        1.40255436536599       -2.70770879108573
H           -0.68206200247443        1.66196468634764        0.74480420275460
H            0.68586256365126        1.99361697704845       -0.95316844278423
H            2.14774741325825       -0.68590668273394        0.72682928299594
H            2.32110285319933        0.96499376430137        0.12244752437532
H            2.78639763891559        0.07681040150005       -2.16359545324666
H            2.70201853203826       -1.57438207328078       -1.52636071334252
H            4.64697743655798        1.56127074675936       -1.54656224315114
H            6.95039694488875        1.75051521613636       -0.77269073155244
H            8.68242051541862        1.78529483569186        0.83007890633404
H            9.22861388670465        1.12863694019925       -0.74007555810676
H           10.06642651228527        0.66638707991270        0.76201685674254
H            7.07647248056094       -4.26520090898103        1.62327356992569
H            5.46088297630951       -3.53184623742313        1.77287389475240
H            6.04024528729006       -4.10913783652998        0.18310719407102
H            4.42508083059192       -2.41147426419912       -0.02599587916973
H           -0.20520298482892       -1.61476457086507       -1.66724919648650
H           -0.99809553431602       -1.25015532197705       -0.11480810625184
H            0.57329935604630       -2.06829338398883       -0.13878181575901
H           -4.64926971835591        2.92128267123392       -0.29118086738366
H           -3.80218287481827        2.81042165800856        2.70257270640602
H           -4.97260226367798        1.74298413333156        1.92583267719886
H           -5.33941309985407        3.45944700754625        2.14135683282638
H           -2.60476734021416        4.72875716820196        0.85668478845201
H           -3.42492010590966        4.66544435678619       -0.67748014375312
H           -4.32207042713730        5.14436507652608        0.78515298935734
H           -0.64461787107396        2.78481454259010        2.81441834878639
72
 energy: -2.342384115843 xtb: 6.6.1 (8d0f1dd)
N           -1.53432694693310        2.81696378613108        2.31394178743390
C           -1.56134980686817        2.17649510980398        1.23302790086449
C           -2.73781876230567        2.07059792159060        0.29228960656664
C           -3.28780802991662        0.65640770863908        0.37189966424663
C           -4.29070777177657        0.27812935526491       -0.52170422579038
C           -4.84924166082523       -0.98180463368015       -0.48782876424406
O           -5.84410088334107       -1.41480590126975       -1.31125608856946
C           -6.40456775904317       -0.50350264662663       -2.22052749785335
C           -4.39360153332173       -1.91945581364066        0.46402913650837
O           -5.00367582455916       -3.13743513828672        0.41574213694534
C           -4.65866656467377       -4.09689324718429        1.38115827027559
C           -3.40351740924554       -1.54403216502788        1.35241915251672
C           -2.85777351850502       -0.26500551226966        1.30891274060254
C           -2.15348387275587        2.32767472251390       -1.11702070321050
C           -1.24167607054071        1.20660286371501       -1.63709099762217
C            0.03603604339452        1.14416057376639       -0.88073192776085
N            0.65480798517625       -0.04958578027233       -0.54805908763948
C            2.02798705125103       -0.05118922598692       -0.15489840753111
C            2.96205766362129       -0.54294602414044       -1.28237678864597
C            4.38902438728874       -0.44191667496608       -0.84560710660828