25
 energy: 0.000000000000 xtb: 6.6.1 (8d0f1dd)
C            3.23720163006194        1.16630919979326        0.08434469647475
N            2.29877817382611        0.07527477071623        0.03981603040599
C            2.58028210190900       -1.21425402444508        0.03006176031096
N            1.43813958087363       -1.93419271955128        0.00098261760884
C            0.39035688448383       -1.05887472636071       -0.00790371836672
C            0.93510056364412        0.21347819449412        0.01709077491437
C            0.09450143893243        1.40504303904423       -0.00410947031874
O            0.49712751527797        2.54126714362870       -0.00342325688240
N           -1.25076640035757        1.06271879480407       -0.03085478223738
C           -2.21907211982101        2.15522099834493       -0.05001256985998
C           -1.81739487048744       -0.20012725993278       -0.04692818574614
O           -2.99983886758376       -0.37846417018721       -0.07008878229737
N           -0.92618586207120       -1.30210215599479       -0.03682761578324
C           -1.46982264913417       -2.64643102187190       -0.06029820460571
H            3.71247264356769        1.21471455160235        1.06488849150277
H            4.00791497605742        1.03430808813993       -0.67357694370751
H            2.69910007168542        2.09770118228144       -0.09130154882931
H            3.56654120610678       -1.63682992603973        0.04233140067262
H           -1.67107961066214        3.09322851271934       -0.02552706933167
H           -2.82428953597071        2.09428624779827       -0.95318082946668
H           -2.87644029173232        2.07745725625962        0.81450067533302
H           -1.17061996399332       -3.19584890659852        0.83242232437030
H           -1.14560257411436       -3.17511610292205       -0.95688275822323
H           -2.55549792440841       -2.55659984320617       -0.07459039797972
H            1.38130855184625       -2.94313852034425       -0.01389874181052
25
 energy: -5.392281121005 xtb: 6.6.1 (8d0f1dd)
C            3.24439047803070        1.17876529317871        0.08675395646149
N            2.30885307234878        0.09635962721652        0.03777790169492
C            2.60088357317662       -1.23162291885707        0.03012811076072
N            1.42905763778140       -1.93985133411194        0.00089639911251
C            0.39725800385548       -1.05654651320869       -0.00824360171449
C            0.93089500744553        0.22256934497167        0.01529051048735
C            0.10230383901263        1.39593275076115       -0.00524142328464
O            0.49867438931034        2.56191132042623       -0.00460979387887
N           -1.25953952808258        1.05015458319596       -0.03111834284586
C           -2.21998844043359        2.14605934375855       -0.04985892495430
C           -1.82261862697778       -0.20124338923881       -0.04733496054600
O           -3.01923563452402       -0.38361119262734       -0.07046009038057
N           -0.93364195398421       -1.30182547993639       -0.03707008531261
C           -1.47489763353446       -2.64328179850748       -0.06029040232348
H            3.72301350666985        1.22478870651972        1.06863699665461
H            4.01237712988728        1.04452070994756       -0.67644812381790
H            2.69741277515266        2.10335155172000       -0.08845547322284
H            3.57935621996536       -1.65737535670664        0.04281933599581
H           -1.65868534376677        3.07747739866622       -0.02534354784504
H           -2.82532789097499        2.09241764151271       -0.95427864176402
H           -2.87752536883468        2.07574437210974        0.81600998825297
H           -1.17430390346876       -3.19600297344728        0.83179251981431
H           -1.14921843943950       -3.17547752317000       -0.95615869649344
H           -2.56001545383165       -2.55063292755322       -0.07466667118821
H            1.36273725315254       -2.94355263444787       -0.01349304351513
25
 energy: -6.544292956947 xtb: 6.6.1 (8d0f1dd)
C            3.25100786666020        1.18692167562746        0.08893618393695
N            2.31587543566197        0.10864717168819        0.03433292368705
C            2.61231280663997       -1.24292585398086        0.03049868836479
N            1.42018630511779       -1.93825681947081        0.00138389780349
C            0.40197334027349       -1.05380310981807       -0.00877911008298
C            0.92800154972604        0.22960202656177        0.01281293592765
C            0.10923286772563        1.38377114936394       -0.00713624341541
O            0.48824628004960        2.56433279774277       -0.00712598775416
N           -1.26807359524190        1.03879691910304       -0.03168079307046
C           -2.21949039225293        2.13836897193839       -0.04968168206924
C           -1.82293916425812       -0.20349831294618       -0.04775324395077
O           -3.02348313238953       -0.39138424603621       -0.07068160847232
N           -0.93819855129980       -1.30057399411497       -0.03730689759946
C           -1.47970526025234       -2.63934452551015       -0.06022511818167
H            3.73686258733608        1.23588623985974        1.06916672203348
H            4.01829714277659        1.06142342669162       -0.67839081717187
H            2.69892811960028        2.10949198559660       -0.08142516074050
H            3.58478362204595       -1.67290039469407        0.04369329132968
H           -1.64275516870675        3.06110855352317       -0.02514587466590
H           -2.82577620013836        2.09148153341932       -0.95434946981132
H           -2.87748085329618        2.07488568687792        0.81686828961286
H           -1.18154649901573       -3.19596980687314        0.83137983197764
H           -1.15622662385397       -3.17582346962361       -0.95549566188008
H           -2.56454461598049       -2.54126855649325       -0.07475609577813
H            1.34672680100872       -2.93994044626059       -0.01210510388206
25
 energy: -6.637093526206 xtb: 6.6.1 (8d0f1dd)
C            3.25346792905142        1.18967479989707        0.08991211699897
N            2.31911137575765        0.11017520732542        0.03158396414018
C            2.61456507111759       -1.24674941188398        0.03083755431407
N            1.41852380459101       -1.93656548897512        0.00220681850161
C            0.40383146946958       -1.05389036056676       -0.00917843431562
C            0.92854448391376        0.23136287826669        0.01102304406167
C            0.11200851880966        1.38051999627166       -0.00894089981637
O            0.47872364695223        2.56378065770212       -0.00965338573916
N           -1.27188110716169        1.03506076075465       -0.03240899535762
C           -2.21884214889378        2.13598206618549       -0.04966009879896
C           -1.82209042196320       -0.20607195363606       -0.04813670490460
O           -3.02218122453002       -0.39798444048567       -0.07086909474797
N           -0.93791383855143       -1.30091776847889       -0.03741474821457
C           -1.48229047196252       -2.63796895820192       -0.06005543501200
H            3.74457083228925        1.23898058868306        1.06801325330816
H            4.02016709553292        1.07424098969400       -0.68014549954117
H            2.69987579247899        2.11323295906786       -0.07386115075351
H            3.58537975873353       -1.67957686018165        0.04428328362580
H           -1.63444695164254        3.05377249524079       -0.02520669154708
H           -2.82578721607693        2.09196112987550       -0.95398733606148
H           -2.87655407766763        2.07524144012780        0.81725502465539
H           -1.18792506938561       -3.19616578906181        0.83181488019011
H           -1.16226432273003       -3.17646967558076       -0.95535346751061
H           -2.56699909190236       -2.53409769465570       -0.07475989857887
H            1.34262083170637       -2.93849896521178       -0.01026420274907
25
 energy: -6.651212529747 xtb: 6.6.1 (8d0f1dd)
C            3.25492979745251        1.19207109332906        0.09115753933997
N            2.32293143917449        0.10954234802002        0.02763296767533
C            2.61598232403265       -1.24916474536926        0.03125220996796
N            1.41959979100846       -1.93498023345849        0.00364964020809
C            0.40567351918150       -1.05486543468077       -0.00978741054785
C            0.93060831192941        0.23205257470515        0.00834359430168
C            0.11524140383187        1.37926259368298       -0.01194834013375
O            0.46872851657719        2.56365079471016       -0.01367032304255
N           -1.27454365383067        1.03202408026774       -0.03378792306548
C           -2.21776266735901        2.13409334440552       -0.04976113801598
C           -1.82092547497391       -0.20936117181274       -0.04884113014782
O           -3.02007145424126       -0.40529894514769       -0.07115957868254
N           -0.93605086724163       -1.30219783715822       -0.03754196760230
C           -1.48554919405182       -2.63719691448820       -0.05965047779247
H            3.75278508871330        1.23760921141291        1.06627627518509
H            4.01922283674370        1.09083888503498       -0.68384287188431
H            2.69850664798627        2.11668297022577       -0.06121643748719
H            3.58567493618524       -1.68501837292245        0.04491437599599
H           -1.62713425579276        3.04757598645803       -0.02558915332006
H           -2.82584693059375        2.09313347236277       -0.95337172544584
H           -2.87474039285623        2.07604382033503        0.81780666180820
H           -1.19670366855756       -3.19684105949622        0.83283901547419
H           -1.17040941692488       -3.17802025610668       -0.95501301503944
H           -2.56998082526995       -2.52515386231575       -0.07468813723069
H            1.34204885681302       -2.93745373982165       -0.00696875437092
25
 energy: -6.627730375312 xtb: 6.6.1 (8d0f1dd)
C            3.25483576929968        1.19411146121423        0.09278852153639
N            2.32633350969268        0.10820371081802        0.02305530392749
C            2.61725843765412       -1.24964531340056        0.03151871547315
N            1.42256687373413       -1.93415073243838        0.00540387428103
C            0.40714422759557       -1.05615145066427       -0.01060818805427
C            0.93304472197538        0.23183094022791        0.00493703433128
C            0.11874287844775        1.37911893019857       -0.01592729699841
O            0.46308403964787        2.56403120583053       -0.01879274240129
N           -1.27496241291981        1.02968822210703       -0.03579043706902
C           -2.21627060796207        2.13256316833646       -0.05005383229721
C           -1.81975158226566       -0.21194766861315       -0.04982038021508
O           -3.01827448730973       -0.41006100362903       -0.07148672634528
N           -0.93381637734204       -1.30403032618692       -0.03769800832555
C           -1.48907704269509       -2.63711780560228       -0.05896389590156
H            3.76042077139450        1.23077967406117        1.06439921231212
H            4.01429145491214        1.10835542695085       -0.68937504860168
H            2.69375571054483        2.11884854541169       -0.04432836030884
H            3.58640481699778       -1.68757260644786        0.04529647055550
H           -1.62282773596924        3.04398872972799       -0.02642390933040
H           -2.82590806280622        2.09407339682216       -0.95268507179081
H           -2.87203458661686        2.07639569661959        0.81853288904702
H           -1.20568991316859       -3.19784648007241        0.83428963272962
H           -1.17850365939711       -3.18040524906401       -0.95412999559090
H           -2.57304991956078       -2.51704187931465       -0.07450549282362
H            1.34449784405291       -2.93698999072066       -0.00259837199237
25
 energy: -6.537714367242 xtb: 6.6.1 (8d0f1dd)
C            3.25301859112636        1.19777382489742        0.09650115015682
N            2.33131887575580        0.10622533939150        0.01418382022794
C            2.61990843677222       -1.24907035263404        0.03163307765445
N            1.42841982753667       -1.93367557488537        0.00864733140499
C            0.40944011987284       -1.05862047582286       -0.01244738533470
C            0.93682360060548        0.23069653326899       -0.00219458530552
C            0.12496727563523        1.37883119610840       -0.02432300160060
O            0.45910063482699        2.56463056000248       -0.02946644730246
N           -1.27348952378211        1.02616570619536       -0.04025706415165
C           -2.21311274267764        2.13001066377429       -0.05090487139102
C           -1.81750799019534       -0.21513460166255       -0.05192447610629
O           -3.01551127964576       -0.41478484880261       -0.07206897931244
N           -0.93034319470857       -1.30758094931828       -0.03806934235063
C           -1.49562422168623       -2.63740239998120       -0.05728806037423
H            3.77478269304886        1.21278342777728        1.06058274515865
H            4.00054913329642        1.14153689334010       -0.70133745325374
H            2.68173706519261        2.12176426765238       -0.00796176462875
H            3.58862040738458       -1.68925002231130        0.04551454290569
H           -1.61769499592635        3.03998772024545       -0.02863983404543
H           -2.82597671844934        2.09462097758634       -0.95145443243066
H           -2.86592426815339        2.07572170741781        0.82005057117703
H           -1.22111675683413       -3.19955243397946        0.83746559651557
H           -1.19203277400575       -3.18543046411309       -0.95157976324756
H           -2.57861713486234       -2.50435281225601       -0.07396180045672
H            1.35047960780905       -2.93686527971896        0.00633432223857
25
 energy: -6.025260085141 xtb: 6.6.1 (8d0f1dd)
C            3.24652171714138        1.20705908442595        0.10735752982077
N            2.34175902414414        0.10242129381148       -0.00898753114807
C            2.62704555106680       -1.24681130408568        0.03131612834438
N            1.44233435310560       -1.93381267861216        0.01652587585006
C            0.41489207209484       -1.06512101464840       -0.01784599859208
C            0.94485700787616        0.22695014128772       -0.02182934176566
C            0.13960354647091        1.37723408047146       -0.04737655158879
O            0.45648102374568        2.56496976667289       -0.05857742436183
N           -1.26772487767448        1.01851141530043       -0.05291313806570
C           -2.20470031315490        2.12406669000656       -0.05359810861987
C           -1.81150094587517       -0.22103805463852       -0.05775567163486
O           -3.00892804803891       -0.42182883203243       -0.07341804315207
N           -0.92290346891044       -1.31642233174495       -0.03928165176702
C           -1.51196504457848       -2.63823456100014       -0.05229568723073
H            3.81363122703058        1.16080200928383        1.04919321958759
H            3.95896212212410        1.22879883910827       -0.73312857694630
H            2.64877145098796        2.12798377345645        0.09319723979720
H            3.59533401042762       -1.69053995035338        0.04526489464559
H           -1.60677908977186        3.03232002050167       -0.03548633429165
H           -2.82640927040535        2.09423048473093       -0.94828206804913
H           -2.84879650044585        2.07220886670872        0.82413743529883
H           -1.25799662557787       -3.20281305088335        0.84653493091909
H           -1.22380662463572       -3.19866121320403       -0.94351485972776
H           -2.59236236062469       -2.47566423747310       -0.07214217504350
H            1.36589473141404       -2.93758063491820        0.02993980386882
25
 energy: -5.423306292478 xtb: 6.6.1 (8d0f1dd)
C            3.23912599783342        1.21405279602063        0.11785790618251
N            2.34764827645367        0.10061558394425       -0.02845855738910
C            2.63280900050117       -1.24371676579393        0.03101809137874
N            1.45276436109073       -1.93506212919440        0.02222874723387
C            0.41873318922182       -1.07061500687498       -0.02359774873076
C            0.94974289583099        0.22295453298099       -0.04017872885879
C            0.14959422171281        1.37545858551472       -0.06826607222873
O            0.46118989205965        2.56390981330468       -0.08422665472813
N           -1.26120053395590        1.01395904872991       -0.06459384868125
C           -2.19773065121581        2.12008958829797       -0.05561319627159
C           -1.80650506310093       -0.22373703319829       -0.06306953598204
O           -3.00416403373169       -0.42255411138294       -0.07402447315078
N           -0.91826289330974       -1.32335821958467       -0.04098611883790
C           -1.52449989401288       -2.63907675755293       -0.04773918620095
H            3.84491934134389        1.11586647746787        1.03637178665834
H            3.91861800104345        1.29954722898869       -0.75406558628036
H            2.62391847000257        2.12881462109587        0.17934996732833
H            3.60160609374855       -1.68795701937372        0.04429863879655
H           -1.60040258322630        3.02886377167449       -0.04167257176221
H           -2.82775488918720        2.09261357402101       -0.94455662699277
H           -2.83305439844359        2.06762700729521        0.82865759314893
H           -1.28489818685887       -3.20389222924165        0.85469905306458
H           -1.24660810061614       -3.20962917612700       -0.93557636822467
H           -2.60247242348464       -2.45678593749982       -0.07035805714110
H            1.37909857823700       -2.93895964133992        0.04953544381654
25
 energy: -4.600954672873 xtb: 6.6.1 (8d0f1dd)
C            3.22323846446989        1.22258041232718        0.13684323093481
N            2.34999194095706        0.10088922004871       -0.05877325561743
C            2.64091850081983       -1.23537138225064        0.03159318632917
N            1.46646534994981       -1.93963088428444        0.02903574680521
C            0.42275260734424       -1.07897519766594       -0.03549212664627
C            0.95302664525699        0.21476535062547       -0.07317570817802
C            0.15940242622432        1.37220597879930       -0.10388412253692
O            0.48527623237673        2.55970018155540       -0.12606058545264
N           -1.24670116773008        1.01143125765868       -0.08481698793024
C           -2.18729615259255        2.11640016395665       -0.05760654681854
C           -1.79906977753193       -0.22249729585337       -0.07209516765712
O           -2.99879541842997       -0.41104902366645       -0.07354151008194
N           -0.91466102920524       -1.33298389762642       -0.04541304248153
C           -1.54089924040274       -2.64091551209575       -0.04023815212871
H            3.88658220760615        1.04501858541161        1.00996366781635
H            3.84566644805742        1.39909167650775       -0.77117554990818
H            2.59229022234641        2.11875673990481        0.31040736754781
H            3.61263329491113       -1.67456938670318        0.04118884107071
H           -1.59819573578466        3.03128644374182       -0.05158933935544
H           -2.83232206520941        2.08732692522472       -0.93574571776279
H           -2.80564478122300        2.05664087693525        0.83874022997100
H           -1.31634243603380       -3.20196167614055        0.86808642640647
H           -1.27231665735526       -3.22618699791991       -0.92106883641494
H           -2.61465742182496       -2.44013474493065       -0.06728369347939
H            1.40087221093959       -2.94278921138793        0.07913554171586
25
 energy: -4.480315846116 xtb: 6.6.1 (8d0f1dd)
C            3.20309360889158        1.22400006043356        0.15679251383144
N            2.33772257054453        0.10831742571264       -0.08301065883114
C            2.64599315923546       -1.22278184253536        0.03597738995133
N            1.47059567424266       -1.94868095121855        0.02958543996138
C            0.42256932429234       -1.08476260000754       -0.05123005161568
C            0.94620295960986        0.20443332352792       -0.10878417262636
C            0.15286504796793        1.36723489968698       -0.13798380780887
O            0.53730555181945        2.55036603163358       -0.16199487150991
N           -1.22724834622245        1.01856429504495       -0.10463974459111
C           -2.18011016494952        2.11864434886794       -0.05658363238645
C           -1.79365024069775       -0.21065572852016       -0.08036552299705
O           -2.99837102568158       -0.37755373696305       -0.06974625681078
N           -0.91936817926773       -1.33739867511046       -0.05290087432583
C           -1.54697227433138       -2.64244460569611       -0.03371647545031
H            3.90226600337675        0.99163647741267        0.97473612892505
H            3.77012632692495        1.45556798972316       -0.75027253866987
H            2.58358215616170        2.08517211003628        0.40516090104092
H            3.62401338755303       -1.64613928253949        0.03483913891405
H           -1.61051361679870        3.04804284420627       -0.05981444124299
H           -2.84131204162444        2.07750511578940       -0.92213884832823
H           -2.77822418880496        2.04066259503391        0.85299638545435
H           -1.31850643668456       -3.19222353976043        0.87997895746463
H           -1.27136613091750       -3.23752754636790       -0.90537126041801
H           -2.61716073193229       -2.45192204676291       -0.06452802697523
H            1.41868227522855       -2.94902835945511        0.10004822519195
25
 energy: -2.052891739594 xtb: 6.6.1 (8d0f1dd)
C            3.18836188167957        1.23285207369968        0.18590379509916
N            2.34177883627856        0.11121119038669       -0.12796143424359
C            2.65804791434192       -1.22141712507077        0.04207162071228
N            1.48038154532341       -1.95324806945051        0.03512348726418
C            0.43120867861580       -1.09521939462163       -0.07316983536101
C            0.94904037083990        0.19455999684379       -0.16111062129261
C            0.15837343139956        1.35604879589699       -0.19364587582465
O            0.55276992367505        2.53891872125003       -0.22497722019752
N           -1.21633607874700        1.01432274458479       -0.13605521646383
C           -2.16698795089710        2.11461156397013       -0.05845163690700
C           -1.78227177952831       -0.21186805398366       -0.09388766018984
O           -2.98840791289010       -0.37307564596425       -0.06628480348738
N           -0.91526641639184       -1.34565391711495       -0.06369971323765
C           -1.56611458614693       -2.63960799735083       -0.02224528447062
H            3.96035590945677        0.90660431005716        0.92906189766905
H            3.67691824461393        1.60859895336812       -0.75995416692592
H            2.55235201255659        2.06144064291137        0.59870774770375
H            3.63797652079200       -1.63922933824979        0.02624203664254
H           -1.59421460948632        3.04235057458427       -0.07572849777150
H           -2.85463243274704        2.07289552509697       -0.90430197644456
H           -2.73686820974137        2.03072322466672        0.87019512671411
H           -1.35570889628291       -3.18031097346893        0.90274200782657
H           -1.30137123588294       -3.25917809474150       -0.88196832370123
H           -2.63372237678529       -2.42493265860471       -0.05964014384768
H            1.43655188388989       -2.95236844652304        0.14006858688223
25
 energy: -3.243770123835 xtb: 6.6.1 (8d0f1dd)
C            3.19694737726360        1.22918981952163        0.19346616188979
N            2.34584328896786        0.11249310043766       -0.13278336223809
C            2.65902390251540       -1.23559047341338        0.05031882774979
N            1.46967375983602       -1.94955116931533        0.02922846662464
C            0.43660381096194       -1.09421364107912       -0.08284031851427
C            0.94980734785745        0.19611652810206       -0.17367234599131
C            0.15009234224899        1.34756618013596       -0.20951567975566
O            0.52230645324550        2.53028989525944       -0.24094448659966
N           -1.23001466232006        1.01277260542030       -0.14339291912454
C           -2.16800920836948        2.11600264215766       -0.05632336346722
C           -1.78006352532295       -0.21828644949541       -0.09616208831509
O           -2.98315541638468       -0.39378163862375       -0.06100914655262
N           -0.91406932458561       -1.33835862150935       -0.07254802128231
C           -1.56172075254429       -2.63154987930612       -0.01995640873603
H            3.96123432069985        0.92297917811023        0.91658887282003
H            3.68409642745311        1.63686343892789       -0.73448755396249
H            2.56763619213596        2.04441142493051        0.62413280831134
H            3.63561790112506       -1.65685792249589        0.01382849061816
H           -1.57447933136158        3.02827152234775       -0.07958859423391
H           -2.86651782375220        2.07826794205281       -0.89262446924113
H           -2.72780337568563        2.03998556444212        0.87716357764953
H           -1.35074911056288       -3.16577684514033        0.91089233474959
H           -1.29702427096796       -3.25958187307763       -0.87529495276575
H           -2.63439770814573       -2.41422976009460       -0.05852819462584
H            1.42133605362808       -2.94840296612295        0.14108626114029
25
 energy: -3.065387819215 xtb: 6.6.1 (8d0f1dd)
C            3.18676288187312        1.22966637613513        0.22609950690176
N            2.34529238649591        0.11625770022688       -0.15310365320370
C            2.65922453728847       -1.23828153514915        0.06620041516095
N            1.46535283986209       -1.94744668955336        0.02544937800604
C            0.44145036790885       -1.09686542190867       -0.10986726944190
C            0.95041528965152        0.19176972299543       -0.21615963376628
C            0.13951745460355        1.34008044524444       -0.26329852830121
O            0.50809779367700        2.51711479666350       -0.30705816874300
N           -1.23445609693062        1.01493593161373       -0.17400105231326
C           -2.16396593032924        2.11943037840489       -0.05331076814082
C           -1.77563898244447       -0.22290676911444       -0.10800844243044
O           -2.97762947348435       -0.40149774789782       -0.04928616935499
N           -0.91243596029030       -1.33311447310084       -0.09463335029198
C           -1.55852462272241       -2.62491545329800       -0.01131176610988
H            3.99877083803756        0.87698681291375        0.87637350822099
H            3.62005342218428        1.71414718562699       -0.67911753479257
H            2.57971978749206        2.00150250236416        0.74418418706975
H            3.63640988399322       -1.65668261587513       -0.02388403144378
H           -1.55922820813775        3.02240023988163       -0.09651029528502
H           -2.89475059452684        2.08420600123892       -0.86277613339575
H           -2.68976292663749        2.04545303366904        0.90089901529370
H           -1.34814557741090       -3.13634697055400        0.93346144228434
H           -1.29321117079468       -3.27241226687357       -0.85180329353028
H           -2.63303923518466       -2.40972279949948       -0.05444505905557
H            1.42193596376180       -2.94472978198185        0.16294159281016
25
 energy: -3.217870581633 xtb: 6.6.1 (8d0f1dd)
C            3.16814815666081        1.22171630245184        0.27884512069538
N            2.34403890148900        0.11708347972027       -0.16637800310320
C            2.65087632025165       -1.23566667768579        0.10309710449274
N            1.45913786799237       -1.94507293636229        0.02352529893366
C            0.44132983872384       -1.09744594082890       -0.15031849277063
C            0.95366068518582        0.18614470932718       -0.26973505123087
C            0.12799366858560        1.33763667657550       -0.34237534916894
O            0.49618671357725        2.50396428164757       -0.42519843282165
N           -1.23731076319068        1.02155938864571       -0.22047477974743
C           -2.15788732093294        2.12749638548121       -0.04749552670666
C           -1.77540074325822       -0.22679252713104       -0.12475373991068
O           -2.97661240683449       -0.39987346136852       -0.02662010978572
N           -0.91252676076230       -1.32282282955726       -0.13435692643745
C           -1.54290717619537       -2.61974178978514       -0.00043342050892
H            4.04062224901918        0.81537825298237        0.81228955229366
H            3.51339265976309        1.80733733093666       -0.57777992036880
H            2.59993499666622        1.91025560986256        0.91753930384138
H            3.62640422417830       -1.65164644946525       -0.11173905998922
H           -1.55175574164464        3.02595197872300       -0.12683527328325
H           -2.93820263999744        2.09708205985665       -0.81170935208710
H           -2.62876943260646        2.05783621165357        0.93790610948604
H           -1.32352161284270       -3.08641299924483        0.96501415754174
H           -1.26901183208311       -3.29074661093629       -0.81546026346790
H           -2.61844541192641       -2.42628134882987       -0.04958383691282
H            1.42284022811723       -2.93791049449666        0.19006478716389
25