25
 energy: -43.832806960862 gnorm: 0.129534265358 xtb: 6.6.1 (8d0f1dd)
C            3.27474468461441        1.16631248461197        0.08728768929702
N            2.31984528654643        0.09963220008719        0.03566316959675
C            2.60741882213153       -1.23742572050710        0.02873222151401
N            1.41176591787292       -1.93012649786289       -0.00745489228313
C            0.40581216043009       -1.03721730249930       -0.01034912297603
C            0.93055085580739        0.24865349659563        0.01120308055106
C            0.05135446505036        1.37687139293503        0.01158497608522
O            0.46499261907706        2.56680509116595        0.00764519797530
N           -1.33443870905277        1.04322884588858       -0.02790385327818
C           -2.26989593188394        2.15114800553603       -0.04907013192269
C           -1.90897215477410       -0.20736370123184       -0.04658534815725
O           -3.05849082515154       -0.41509356683020       -0.07169641928497
N           -0.94363093110068       -1.27557767928506       -0.03520038931609
C           -1.45510224446326       -2.63448598136638       -0.05839413074515
H            3.76435136543326        1.22544046224775        1.08641650969087
H            4.09638899486254        0.98076379478416       -0.64079997254996
H            2.79631089214991        2.09104612113363       -0.13858282919712
H            3.58536367537166       -1.67081298005954        0.03755350939435
H           -1.69429052180779        3.06678271246427       -0.02183003051333
H           -2.87263836353926        2.12255803171063       -0.95314563337529
H           -2.92953106846163        2.10658720106365        0.81323371213919
H           -1.14835837915038       -3.18498211768294        0.83391140982620
H           -1.12198302532398       -3.16590978106628       -0.95331842814259
H           -2.53116421138800       -2.54666780099305       -0.07463828598046
H            1.35357286153934       -2.94074562426759       -0.01996654289738
25
 energy: -43.838117522891 gnorm: 0.039122410493 xtb: 6.6.1 (8d0f1dd)
C            3.27626269064670        1.16499387165530        0.08784065893489
N            2.31492932088364        0.10848735259785        0.03472378449205
C            2.60076101465458       -1.23916989538277        0.02985504820823
N            1.40644930113968       -1.92889990788651       -0.00541108845172
C            0.39914966786602       -1.03809876741882       -0.01075136872680
C            0.92468446446248        0.24828669401583        0.01109769825583
C            0.06891854403972        1.38150879695968        0.00440236537082
O            0.45146241896718        2.56586583328873        0.00800919397368
N           -1.31377956235306        1.04295172374815       -0.02831799228949
C           -2.25740200527431        2.14863586342609       -0.04791112083369
C           -1.87720732312100       -0.20384507711295       -0.04666292810786
O           -3.05933448046593       -0.41554010539811       -0.07104377357078
N           -0.94253075378283       -1.28139842332398       -0.03613698466012
C           -1.45631976052276       -2.63478857832007       -0.05863282428326
H            3.74747876244882        1.22573553965019        1.08281137752174
H            4.07961974601538        0.98470385089891       -0.64303806796126
H            2.78001441212440        2.09907584701409       -0.13206379899437
H            3.57375641509426       -1.67327392296689        0.03697989761172
H           -1.67878299967846        3.06801305856864       -0.02177961296345
H           -2.86403734453542        2.11511673649565       -0.95326655585156
H           -2.92063965692084        2.09923378963518        0.81586815585474
H           -1.14550961540342       -3.18343710152595        0.83340715103027
H           -1.11878175827225       -3.16445415811538       -0.95267336400516
H           -2.53973198852565       -2.55618895621604       -0.07467114723857
H            1.34454672530263       -2.93409297771448       -0.01833923786554
25
 energy: -43.837990862732 gnorm: 0.022765399881 xtb: 6.6.1 (8d0f1dd)
C            3.30122180950888        1.15381944002254        0.08840404639857
N            2.31861408343100        0.11457004301870        0.03493179267315
C            2.60579319211910       -1.23971876987608        0.03076520571303
N            1.41115395194081       -1.92686177992707       -0.00688518751665
C            0.39757082798948       -1.03810421357877       -0.00955779491812
C            0.92149944824466        0.24847492522256        0.01616244651221
C            0.07160416526639        1.38395279939522        0.01045476110655
O            0.43973408793208        2.56310146226581        0.01225244841224
N           -1.32073657070233        1.04494806773677       -0.02422981935420
C           -2.27906167287512        2.14628673890586       -0.04951202798405
C           -1.86450504704724       -0.20314900574491       -0.04433121569814
O           -3.06089677197984       -0.42314280160028       -0.07244483367347
N           -0.94372837155793       -1.28114328740440       -0.03479414703153
C           -1.45630718282873       -2.62991299889078       -0.05859418143122
H            3.76907083883773        1.22098323559185        1.07879378051824
H            4.10090259485143        0.96590585467417       -0.63414674572582
H            2.81291439063160        2.09692900216429       -0.14314619663294
H            3.58036797112943       -1.66957779740197        0.03565375516779
H           -1.71005073590890        3.07227227863289       -0.02185482245267
H           -2.88626585460372        2.11440052282343       -0.95594027521024
H           -2.94862935676835        2.09910039114003        0.81063089049805
H           -1.15177351536538       -3.18185496088174        0.83398337260007
H           -1.12493885336553       -3.16162716127370       -0.95391230401735
H           -2.54032139630443       -2.53947213632324       -0.07451620029791
H            1.35074420221450       -2.93075876211889       -0.02387128220523
25
 energy: -43.838840772596 gnorm: 0.010347101123 xtb: 6.6.1 (8d0f1dd)
C            3.28597239851392        1.15985882699287        0.09020203680605
N            2.31429910137551        0.11157437681661        0.03279106080723
C            2.60504566469080       -1.24253769879516        0.02964526649935
N            1.41035140305705       -1.93086120696631       -0.00645434656048
C            0.39471885021369       -1.04290753929182       -0.01148235990130
C            0.91810844274975        0.24256909922703        0.01305744080967
C            0.07368087018273        1.38065790547631        0.00630610034383
O            0.44702906400334        2.55876865193221        0.00586678924869
N           -1.32203862012929        1.04252717715051       -0.02700625433810
C           -2.26621286812724        2.15220881463997       -0.04834275852952
C           -1.86731441350185       -0.20404000487244       -0.04629371494271
O           -3.06176032075544       -0.41964913452480       -0.07223377107935
N           -0.94860906120669       -1.28384965626288       -0.03617676776305
C           -1.45484162465912       -2.63483710093649       -0.05841443682970
H            3.75333140666649        1.22884842481085        1.08200341874573
H            4.08508827387941        0.98696167887495       -0.63801215174337
H            2.78586125897501        2.09721725670595       -0.13605440183740
H            3.58135884371236       -1.66973389009814        0.03679382294883
H           -1.68312666849575        3.06874926955871       -0.02171429787059
H           -2.87285956895570        2.12615835768016       -0.95387429086978
H           -2.92807769922140        2.10972887159666        0.81634575148707
H           -1.14742784037429       -3.18512783385590        0.83428070044863
H           -1.12106342734165       -3.16672094556742       -0.95285158253783
H           -2.53823336106936       -2.55021446863840       -0.07443986351460
H            1.35069613060728       -2.93592814508073       -0.01964592437695
25
 energy: -43.838805122690 gnorm: 0.009302448059 xtb: 6.6.1 (8d0f1dd)
C            3.28458322501311        1.16040992209651        0.08821512459743
N            2.31457453067939        0.11230818699432        0.03274223379478
C            2.60140451256945       -1.24148986507323        0.03038894552555
N            1.40642836440451       -1.92703517960018       -0.00506381353686
C            0.39507890384140       -1.03710371959515       -0.01018703754152
C            0.92008784535583        0.24794072621371        0.01348833989736
C            0.07646314752950        1.38678367073639        0.00742470607795
O            0.45019652573176        2.56754894225833        0.01146559773250
N           -1.31954630966640        1.04350259908064       -0.02670528329142
C           -2.26452888942687        2.14682763784612       -0.04900709446893
C           -1.86795248352874       -0.20175519601648       -0.04581103263537
O           -3.05854443389458       -0.41478975218915       -0.07120301045099
N           -0.94820358193060       -1.27933536715012       -0.03520358560367
C           -1.45484670793549       -2.63110207510714       -0.05886589184517
H            3.75299909395709        1.22161089018924        1.08151915252782
H            4.08134190488675        0.97906999504398       -0.64420993739302
H            2.78859916500889        2.09904276598707       -0.13413152098477
H            3.57533108239896       -1.67256522158943        0.03700250709696
H           -1.68791018364675        3.06721734953471       -0.02200021116238
H           -2.86637840912509        2.10726624593745       -0.95615411781883
H           -2.92609224520135        2.09187345003016        0.81436073247709
H           -1.14510022058326       -3.18107639320976        0.83295990509454
H           -1.11804196307908       -3.16054397382283       -0.95347376480352
H           -2.53865586584443       -2.55280224699484       -0.07521384514876
H            1.34268922727557       -2.93238230502800       -0.01804163268640
25
 energy: -43.838960546661 gnorm: 0.003018897475 xtb: 6.6.1 (8d0f1dd)
C            3.28640269767532        1.16053734615680        0.08952026956643
N            2.31540960878651        0.11258244870804        0.03285254674629
C            2.60354434203719       -1.24130110960773        0.03036180868120
N            1.40951173741436       -1.92818117012985       -0.00666629136576
C            0.39618060736468       -1.03976572347913       -0.01126630311495
C            0.91981455566183        0.24593806619190        0.01245542564258
C            0.07548766076958        1.38391842895621        0.00518685727952
O            0.44649100406874        2.56425654784477        0.00767460376220
N           -1.32191322649824        1.04202256565816       -0.02760933266218
C           -2.26588432296619        2.14911795096768       -0.04816188464218
C           -1.86742098987214       -0.20441275679833       -0.04632222458527
O           -3.05938527164693       -0.41923885725525       -0.07140010888442
N           -0.94756755897595       -1.28196582420576       -0.03596775902493
C           -1.45612782645800       -2.63296174979899       -0.05824462113707
H            3.75292071654047        1.22589147220610        1.08287669947289
H            4.08684690370377        0.97995415588399       -0.63795070396073
H            2.79070662072092        2.09890313717333       -0.13668325142704
H            3.57825436081989       -1.67060559624654        0.03664405675713
H           -1.68664609648504        3.06806581328765       -0.02157095913953
H           -2.87168942178436        2.11763246837090       -0.95330492952310
H           -2.92825405854986        2.10143931718200        0.81535408263699
H           -1.14844895610245       -3.18340251710674        0.83414316525127
H           -1.12207284132314       -3.16492619119366       -0.95249702926073
H           -2.53991107237756       -2.55060723411959       -0.07413189204636
H            1.34772706226616       -2.93346990207365       -0.02099675957191
25
 energy: -43.838932688704 gnorm: 0.004033034462 xtb: 6.6.1 (8d0f1dd)
C            3.28630724563749        1.15950324209886        0.08811979437287
N            2.31529187209962        0.11131657828550        0.03360162179113
C            2.60352121252172       -1.24269500410296        0.03070407856688
N            1.40942423483808       -1.92933817947542       -0.00423520619552
C            0.39572773601754       -1.04088934445223       -0.00896740163919
C            0.91918541107182        0.24461056266728        0.01587852663539
C            0.07607921555006        1.38288699851192        0.00984614220202
O            0.44735498496731        2.56222459950240        0.01094477947852
N           -1.32299747067125        1.04262728539198       -0.02550413911188
C           -2.26703098614656        2.15042255494007       -0.04943185973181
C           -1.86763875407012       -0.20388312038978       -0.04511172689274
O           -3.06039077803485       -0.41823707001304       -0.07269013572232
N           -0.94815294762894       -1.28187291972572       -0.03468024852216
C           -1.45438240922205       -2.63317680588763       -0.05937025135721
H            3.75778966766558        1.22508843439100        1.07883386260304
H            4.08370651110336        0.98331786936701       -0.64335770075665
H            2.78784981948795        2.09726740306834       -0.13500039423273
H            3.57870387627979       -1.67147691705439        0.03570804127372
H           -1.68795878745230        3.06942408387978       -0.02225589021294
H           -2.87142202055211        2.12008258619356       -0.95597891450691
H           -2.93178130806760        2.10513703038086        0.81269862094828
H           -1.14618393895340       -3.18427205440170        0.83256382594787
H           -1.11856636916784       -3.16307131729840       -0.95432175748772
H           -2.53807388638760       -2.55090773210544       -0.07599342667403
H            1.34761410390386       -2.93466767719953       -0.01770477532554
25
 energy: -43.838970301446 gnorm: 0.001327935895 xtb: 6.6.1 (8d0f1dd)
C            3.28620370886599        1.15984056551984        0.08945858302155
N            2.31537403882364        0.11176214895592        0.03265539373034
C            2.60331908613221       -1.24212457351338        0.03022610305637
N            1.40931611525580       -1.92866826992780       -0.00632225855942
C            0.39584426312393       -1.04024597549160       -0.01126953054004
C            0.91941488745085        0.24535249677272        0.01294556634097
C            0.07653696192858        1.38362802476118        0.00628748337301
O            0.44760879253137        2.56331394199657        0.00796101563827
N           -1.32254236787387        1.04249518413009       -0.02721128909034
C           -2.26658339590928        2.14934825457440       -0.04850051509086
C           -1.86760580620258       -0.20379853072501       -0.04615538156268
O           -3.05999154514797       -0.41785889065476       -0.07169323182054
N           -0.94807988577021       -1.28151402125787       -0.03597488075346
C           -1.45510589840775       -2.63271354238271       -0.05842271284331
H            3.75418558931965        1.22511419672477        1.08212194304882
H            4.08580146030100        0.98190672295345       -0.63941649819874
H            2.78936967365861        2.09778858470815       -0.13557908775674
H            3.57842206432265       -1.67103508281806        0.03680326887452
H           -1.68778514788989        3.06850371835836       -0.02176331645348
H           -2.87213716316478        2.11778635953582       -0.95413651027581
H           -2.92904806797298        2.10162886422452        0.81518833400446
H           -1.14665891258423       -3.18277638445384        0.83403355091721
H           -1.12038391197861       -3.16401383663871       -0.95289639430508
H           -2.53876589419348       -2.55027440974739       -0.07429997831982
H            1.34726759017090       -2.93402445903233       -0.01974419098483
25
 energy: -43.838952290732 gnorm: 0.002694899113 xtb: 6.6.1 (8d0f1dd)
C            3.28615911960901        1.16100017424981        0.08841149233179
N            2.31534820464796        0.11290601455862        0.03348625457572
C            2.60332095235317       -1.24071474799649        0.03098850360661
N            1.40981436606738       -1.92772076286940       -0.00554015698904
C            0.39609023663364       -1.03996707346181       -0.00965664326184
C            0.91924537166785        0.24621101159796        0.01433703045180
C            0.07616363750458        1.38404568921791        0.00775504039300
O            0.44562648517442        2.56460598053177        0.01037509923763
N           -1.32277820959213        1.04149257465928       -0.02636001035060
C           -2.26513174029488        2.14897725164065       -0.04865346807405
C           -1.86773968607597       -0.20503546699328       -0.04547392500816
O           -3.05950742398302       -0.41952151824903       -0.07168839743801
N           -0.94788719333892       -1.28226823011278       -0.03490978683752
C           -1.45662832821271       -2.63340162805259       -0.05889394081132
H            3.75389272139128        1.22712352809754        1.08130055368416
H            4.08585111592923        0.97901640081555       -0.63981797639479
H            2.79104052855280        2.09926943004901       -0.13851799865952
H            3.57847863695088       -1.66945223454528        0.03600362483623
H           -1.68474182047009        3.06719531299393       -0.02170267716262
H           -2.86934459599071        2.11745016238600       -0.95496205854765
H           -2.92853525124611        2.10216678581793        0.81420743815270
H           -1.15022556520891       -3.18522556863429        0.83309045655447
H           -1.12229687890926       -3.16470844794834       -0.95344282836402
H           -2.54033707059804       -2.55091905820553       -0.07568673089247
H            1.34809862222809       -2.93310449297486       -0.02035342958217
25
 energy: -43.838970224836 gnorm: 0.001037621086 xtb: 6.6.1 (8d0f1dd)
C            3.28619952229200        1.16039423779715        0.08900219880105
N            2.31544878441747        0.11228047931185        0.03315392370426
C            2.60323868394072       -1.24145447366413        0.03055886821655
N            1.40957428832876       -1.92813755531548       -0.00584609194965
C            0.39602461253504       -1.04009555285717       -0.01032973067560
C            0.91929252087491        0.24591695962432        0.01369415757026
C            0.07652292349524        1.38396324219000        0.00688013149618
O            0.44640776882046        2.56419489102958        0.00906350917147
N           -1.32286295004071        1.04201962689554       -0.02689964491062
C           -2.26588034314282        2.14928752762141       -0.04862112129001
C           -1.86767269331671       -0.20451304733760       -0.04587606861587
O           -3.05963851901699       -0.41888741607741       -0.07176744050873
N           -0.94791674991124       -1.28189213176670       -0.03536927086640
C           -1.45577813293079       -2.63314565925632       -0.05860652015472
H            3.75439161819066        1.22567202014654        1.08166047298445
H            4.08566533318877        0.98043509135308       -0.63985475748521
H            2.79024898986611        2.09862226735933       -0.13643623267180
H            3.57833729506935       -1.67042066720598        0.03611800555702
H           -1.68639930753691        3.06806159494243       -0.02181260314596
H           -2.87092228806038        2.11792942173917       -0.95446644258606
H           -2.92897671435308        2.10226220132095        0.81453245670956
H           -1.14823034787660       -3.18407448737098        0.83356314981144
H           -1.12117590136718       -3.16443526753419       -0.95309057461002
H           -2.53950106311947       -2.55103413808521       -0.07490694990283
H            1.34757890444294       -2.93352807828786       -0.02004795919839
25
 energy: -43.811297366000 gnorm: 0.251198403334 xtb: 6.6.1 (8d0f1dd)
C            3.31110951748478        1.15401034058882        0.08871315138389
N            2.34200770890614        0.12135240369431        0.02576753371837
C            2.62859924024990       -1.26515353464495        0.02270776798619
N            1.38920435701236       -1.91110075956609       -0.01867947963106
C            0.40998913946016       -1.00988654695877       -0.01412719331102
C            0.92596652013806        0.28400195947925        0.00628047076566
C           -0.00271199829414        1.36709949395048        0.03481390174870
O            0.41873184311299        2.57736727496797        0.02058347374486
N           -1.42072340231212        1.03901717208428       -0.02281312103962
C           -2.32105780736194        2.15302945556348       -0.04742866583963
C           -2.00008513455904       -0.21857082714519       -0.04558578050846
O           -3.10353353764604       -0.46894830488752       -0.07357426874967
N           -0.95302228398302       -1.24427469411668       -0.03295838099840
C           -1.43803515891096       -2.62594597997616       -0.05653521455341
H            3.80675649832820        1.23263884842836        1.12071424241801
H            4.17394887574117        0.91407919108699       -0.60450295766358
H            2.89352087894481        2.08522169775534       -0.18626390071254
H            3.58982603738793       -1.70704685886225        0.02399705610261
H           -1.72972445547754        3.05928301541462       -0.01741862074071
H           -2.92312242547588        2.14711008489425       -0.95124101780309
H           -2.98512855322176        2.13080792026547        0.81047434971250
H           -1.12609516131984       -3.17421904960484        0.83600944220302
H           -1.09815025772311       -3.15722390206940       -0.94987729070834
H           -2.50437524701588       -2.55183476137480       -0.07495957480996
H            1.32882568619774       -2.92869068712455       -0.02939080851249
25
 energy: -43.830713698501 gnorm: 0.061297669537 xtb: 6.6.1 (8d0f1dd)
C            3.31381870857038        1.14523435454131        0.08971015903664
N            2.32515754919569        0.12246286480596        0.02810357367543
C            2.60201642807983       -1.24905887207804        0.02521015637340
N            1.38704553921546       -1.91355258322031       -0.01577720897332
C            0.39653036899942       -1.01697264290895       -0.01421596867997
C            0.91950740453778        0.27356247972897        0.00844020292006
C            0.02558520950321        1.37683175990920        0.01978500223272
O            0.39706682918207        2.57118297897620        0.02501341757282
N           -1.37563089112686        1.04180110891126       -0.02275143933886
C           -2.30470846564348        2.15207098678622       -0.04549679313986
C           -1.93872114504572       -0.20963488151002       -0.04504150841763
O           -3.10503292162682       -0.46214667415737       -0.07237351693585
N           -0.94920375301991       -1.26069339396886       -0.03428147395888
C           -1.43886128007922       -2.62916547469958       -0.05683941846811
H            3.77421233189896        1.22894125829359        1.10449169311078
H            4.14990813783593        0.91616161469235       -0.60288899836211
H            2.87826328154681        2.09301047048364       -0.17745979842236
H            3.56872317894939       -1.69083079818967        0.02293774839371
H           -1.71831350177066        3.06666066125668       -0.01749200185544
H           -2.91287831111862        2.13789060529133       -0.95183011351426
H           -2.97574394062864        2.12258671112742        0.81444649293998
H           -1.12142362336139       -3.17238138312531        0.83605274687528
H           -1.09282895754607       -3.15486279614851       -0.94989213795311
H           -2.51914765631055       -2.56535901877211       -0.07486935616193
H            1.32738035942598       -2.92161638418296       -0.02827634474735
25
 energy: -43.831469832708 gnorm: 0.022621671177 xtb: 6.6.1 (8d0f1dd)
C            3.34266363251825        1.13631004626996        0.09504285555614
N            2.32938443651688        0.12361922531551        0.03066253202831
C            2.60360404752730       -1.24449794063008        0.02429331850381
N            1.39357220047046       -1.90959990950883       -0.01742690489593
C            0.39196492489488       -1.01273623074062       -0.01302113196161
C            0.91894723532590        0.27332133334566        0.01667348538950
C            0.02690310791008        1.38378903347116        0.02750112393481
O            0.38311263556940        2.56771207304336        0.02246612035584
N           -1.38082379773455        1.04061599212356       -0.01761231093762
C           -2.32920253919768        2.14716377419516       -0.04763262774542
C           -1.91971524263932       -0.21129529763278       -0.04242522475743
O           -3.10130095675197       -0.47165331235574       -0.07470430973172
N           -0.95168359235460       -1.26005927116522       -0.03318728501899
C           -1.43803321388923       -2.62061667021162       -0.05702822351734
H            3.80442310563839        1.22606341753820        1.09724747907840
H            4.16691283940570        0.90398031011871       -0.59477368474771
H            2.90719701501069        2.08969064671888       -0.18506919998707
H            3.57344393727274       -1.69773345750517        0.02015152494758
H           -1.74424390342978        3.06231259887307       -0.01710137688997
H           -2.93507050437344        2.13298621721946       -0.95619144371421
H           -3.00389990399449        2.11765236948955        0.80961958263472
H           -1.13023562358746       -3.16824274394824        0.83657872862342
H           -1.10144233573943       -3.15016415590337       -0.95119711366750
H           -2.51995549423406       -2.54200723821941       -0.07506119498567
H            1.32619886952834       -2.91448785805872       -0.03309960429255
25
 energy: -43.832192471429 gnorm: 0.019202423289 xtb: 6.6.1 (8d0f1dd)
C            3.32853936160089        1.14400215975131        0.09689368911282
N            2.32369846086274        0.12059775347212        0.02440823291209
C            2.60268218351477       -1.24614659924374        0.02265836854082
N            1.39433823801528       -1.91412156719575       -0.01767107693636
C            0.38543171183181       -1.01742223159546       -0.01737349644916
C            0.91369864139680        0.26570159962864        0.01025144520953
C            0.03084657725303        1.38319935316879        0.02196423015287
O            0.38942051538105        2.56269018457691        0.02059528848068
N           -1.38155208789542        1.03689621102332       -0.02056791285065
C           -2.31418595661178        2.15641940362666       -0.04566234142978
C           -1.91685146298458       -0.21250542436828       -0.04521727691771
O           -3.10254655559269       -0.46716619179462       -0.07426935134483
N           -0.96050135547775       -1.26473356452093       -0.03572856241625
C           -1.43449006624451       -2.62735226235862       -0.05653336851211
H            3.77489100798997        1.23541950158095        1.10393649699216
H            4.14970357791605        0.92493636996832       -0.59761070118289
H            2.87485211547831        2.09228503483050       -0.18341667240461
H            3.57442634317257       -1.70129793803834        0.02436026627752
H           -1.71050211608873        3.05978431461815       -0.01683643098669
H           -2.91938344691700        2.14959319675791       -0.95264109004576
H           -2.97871802103745        2.13271248377025        0.81729558540032
H           -1.12204291943470       -3.17349448461662        0.83668207829700
H           -1.09453023554527       -3.15792645460637       -0.94904648489437
H           -2.51736378555607       -2.56085153203356       -0.07427639715947
H            1.32286015463567       -2.91909636455908       -0.02748940364336
25
 energy: -43.832421860718 gnorm: 0.008122653007 xtb: 6.6.1 (8d0f1dd)
C            3.32793164823206        1.14368465531189        0.09313630884112
N            2.32430451785752        0.12328053019549        0.02513821476658
C            2.60194875056427       -1.24414994676050        0.02437346869619
N            1.39356293491846       -1.91198964089038       -0.01499270218197
C            0.38860754505072       -1.01406594677441       -0.01308946108200
C            0.91575104042031        0.27067432366007        0.01158760085605
C            0.03351077921386        1.38727670839296        0.02219193091202
O            0.39506716159422        2.57197986671880        0.02921853898105
N           -1.37976594614724        1.03881633738355       -0.02078908153873
C           -2.31392826817107        2.15213646687323       -0.04739138313515
C           -1.92035775342034       -0.21028285390138       -0.04363297649337
O           -3.10208491220748       -0.46128551919756       -0.07207440818630
N           -0.95874877042901       -1.26089357352910       -0.03265108849000
C           -1.43716186124457       -2.62436412377102       -0.05685828574681
H            3.77869577931525        1.22250020725537        1.10217639817907
H            4.14810132546474        0.91111083862047       -0.60463053337497
H            2.88280397468090        2.09470949222745       -0.17919326425011
H            3.57131733964638       -1.69495699434860        0.02251472984568
H           -1.72561448196844        3.06564076498514       -0.01869151629738
H           -2.91554271485276        2.12991699144970       -0.95540573010827