25
 energy: 0.000000000000 xtb: 6.6.1 (8d0f1dd)
C            3.23720132972391        1.16630909158653        0.08434468864950
N            2.29877796055224        0.07527476373246        0.03981602671198
C            2.58028186251803       -1.21425391179017        0.03006175752192
N            1.43813944744728       -1.93419254010258        0.00098261751768
C            0.39035684826767       -1.05887462812143       -0.00790371763344
C            0.93510047688824        0.21347817468824        0.01709077332874
C            0.09450143016486        1.40504290868848       -0.00410946993748
O            0.49712746915594        2.54126690785742       -0.00342325656480
N           -1.25076628431515        1.06271869620815       -0.03085477937476
C           -2.21907191394203        2.15522079838987       -0.05001256521996
C           -1.81739470187490       -0.20012724136556       -0.04692818139228
O           -2.99983858926755       -0.37846413507442       -0.07008877579474
N           -0.92618577614240       -1.30210203518959       -0.03682761236648
C           -1.46982251276835       -2.64643077634382       -0.06029819901142
H            3.71247229913541        1.21471443890471        1.06488839270555
H            4.00791460421487        1.03430799217987       -0.67357688121503
H            2.69909982127087        2.09770098766290       -0.09130154035862
H            3.56654087521359       -1.63682977417947        0.04233139674524
H           -1.67107945562430        3.09322822573871       -0.02552706696334
H           -2.82428927394145        2.09428605349656       -0.95318074103337
H           -2.87644002486466        2.07745706351925        0.81450059976605
H           -1.17061985538665       -3.19584861009707        0.83242224714061
H           -1.14560246782873       -3.17511580834413       -0.95688266944647
H           -2.55549768731684       -2.55659960601237       -0.07459039105944
H            1.38130842369251       -2.94313824728853       -0.01389874052104
25
 energy: -6.019252994671 xtb: 6.6.1 (8d0f1dd)
C            3.28592779048343        1.15994439667377        0.08876105854140
N            2.31569204027925        0.11130305808066        0.03252140345116
C            2.60345634441498       -1.24248482867010        0.03084561579674
N            1.40962324202613       -1.92897692926383       -0.00604753450143
C            0.39603264782572       -1.04072031864627       -0.01134084571918
C            0.91945188088168        0.24501140344151        0.01302757763389
C            0.07746396901601        1.38331124265013        0.00687642219386
O            0.44825747635379        2.56285499280396        0.00873695101041
N           -1.32257254543840        1.04243660709374       -0.02679155597760
C           -2.26658047030070        2.14902962355053       -0.04825670926467
C           -1.86746738040812       -0.20375784018194       -0.04597258691766
O           -3.05989540510176       -0.41759791263048       -0.07162954634620
N           -0.94797900696933       -1.28143873753478       -0.03614773838456
C           -1.45536409230637       -2.63234487679380       -0.05891996533219
H            3.75331824955453        1.22685257997392        1.08163155551887
H            4.08624263465654        0.98234691669713       -0.63938656197501
H            2.78845676870004        2.09720447039232       -0.13758314219849
H            3.57868550648958       -1.67130578411409        0.03807360232124
H           -1.68814490154324        3.06839251047244       -0.02133572533982
H           -2.87200497947072        2.11739754350338       -0.95406906998960
H           -2.92933279281071        2.10110343351246        0.81528070427481
H           -1.14707366433564       -3.18243708118114        0.83357183255273
H           -1.12073581897288       -3.16339957175996       -0.95358414836299
H           -2.53893283866878       -2.54892125197143       -0.07482514326307
H            1.34745158043452       -2.93438255952582       -0.01914098427227
25
 energy: -3.757780284910 xtb: 6.6.1 (8d0f1dd)
C            3.32940183656084        1.14354601635963        0.09412769735036
N            2.32565450883933        0.12200967959905        0.02528734998678
C            2.60301530005015       -1.24509927909440        0.02424145870505
N            1.39561135798538       -1.91265202250202       -0.01674243159298
C            0.38967031402633       -1.01550887691112       -0.01514930826499
C            0.91577146634838        0.26916618161458        0.01170082253173
C            0.03371229282938        1.38464121883879        0.02361476948831
O            0.39196324424110        2.56827876746011        0.02545018682605
N           -1.38268568628084        1.03747428466788       -0.02027316797646
C           -2.31613283800236        2.15253332256883       -0.04658640172829
C           -1.91937695105249       -0.21298660452329       -0.04388727410636
O           -3.10188516899881       -0.46424941565069       -0.07314783492738
N           -0.95780155521417       -1.26179794974998       -0.03419602980006
C           -1.43709329371549       -2.62452427433262       -0.05682078947414
H            3.77974296948104        1.22970624437587        1.10264225723696
H            4.15272853498796        0.91552976686908       -0.60014249722495
H            2.88333074810831        2.09220095020853       -0.18319815247027
H            3.57250875821081       -1.69728790887416        0.02357623919226
H           -1.72277994129912        3.06229589160648       -0.01727378886607
H           -2.91987567701659        2.13778380880133       -0.95409505775284
H           -2.98402144808589        2.12198101485931        0.81352920840275
H           -1.12536219590267       -3.17184236010801        0.83615675843786
H           -1.09635930527261       -3.15393684007863       -0.95006623777360
H           -2.51943489718506       -2.55681113828298       -0.07519623038064
H            1.32241850602006       -2.91832752587913       -0.02884643161729
25
 energy: 0.292610450452 xtb: 6.6.1 (8d0f1dd)
C            3.37146412214857        1.12617768182228        0.09694099009222
N            2.33614723350508        0.13188025221971        0.01493051843061
C            2.60027258912713       -1.24851080113812        0.01310568209862
N            1.38049120318760       -1.89557681967245       -0.02885531467033
C            0.38317430922453       -0.98887522935187       -0.01931616926992
C            0.91197010433793        0.29633643436858        0.01090461562583
C           -0.00089161463728        1.39638676041005        0.04179201945222
O            0.33912327099391        2.58209958873398        0.04096054754064
N           -1.44243200207895        1.03558029399204       -0.01441383971106
C           -2.36566061603408        2.15841319505062       -0.04345201074222
C           -1.97132569839444       -0.21828612011149       -0.04519607009477
O           -3.14106617102657       -0.51211371701393       -0.07625682281781
N           -0.96721518252635       -1.24093501687559       -0.03298636302418
C           -1.41728699774568       -2.61621672403459       -0.05507792124125
H            3.81121688006779        1.23232266593374        1.11645399357584
H            4.21729053037481        0.84766184204700       -0.55808698399645
H            2.97769554011345        2.08262668541470       -0.23116703080864
H            3.56271818700711       -1.72199333132370        0.00158614562342
H           -1.75665062240259        3.05614687290015       -0.00904213494499
H           -2.96859590343354        2.16032205798971       -0.95187057173146
H           -3.03835494380688        2.14401001868124        0.81310777933203
H           -1.10007854284652       -3.15892784043786        0.83896549529915
H           -1.06972032058113       -3.14399864168885       -0.94690017293328
H           -2.49858558115027       -2.56758607464757       -0.07544819461036
H            1.29808671176943       -2.90183854170477       -0.04153438345895
25
 energy: 5.905220438281 xtb: 6.6.1 (8d0f1dd)
C            3.41599594263804        1.11011499298674        0.09364459208352
N            2.35119946389500        0.14517821694077        0.00584126368471
C            2.60023860284495       -1.23976820694127        0.00596797266889
N            1.37525991905376       -1.87431664751410       -0.03941951133302
C            0.37958838437646       -0.96194047748529       -0.02116211584484
C            0.91477232143615        0.32509026812613        0.01210553227628
C           -0.00765630461984        1.41574171766221        0.05025952278850
O            0.29662541624955        2.60243781647627        0.05594754605931
N           -1.50004178453644        1.03814895322078       -0.01001642834467
C           -2.41084825593367        2.17016729003072       -0.04120500300666
C           -2.02247419971659       -0.21584983995232       -0.04473418641579
O           -3.17779543372937       -0.55615035254944       -0.07880440551410
N           -0.97341855211470       -1.21874808451518       -0.03041909532951
C           -1.39812717612402       -2.60632381522674       -0.05327870436993
H            3.85401584436204        1.22500356068966        1.11532299872569
H            4.28042486983873        0.78266027901401       -0.51967823209143
H            3.07111672604017        2.06918775198767       -0.28513327080429
H            3.55443674787482       -1.74012616891595       -0.02289309983167
H           -1.78819563238583        3.05660636364439       -0.00393743681409
H           -3.01040525709783        2.19228774278025       -0.95146840579373
H           -3.08689928482441        2.17601699042684        0.81255680412502
H           -1.07726846106279       -3.14710202557449        0.84113856735511
H           -1.04504683524718       -3.13301830475191       -0.94415456949901
H           -2.47855552409611       -2.57743567984265       -0.07616288568227
H            1.28040148607374       -2.88185142119399       -0.05776734003058
25
 energy: 13.770005978103 xtb: 6.6.1 (8d0f1dd)
C            3.46290171779859        1.09220493956610        0.08662603346506
N            2.37310897665867        0.15529081704997        0.00164772965440
C            2.60240837416639       -1.22714501690537        0.00678918924417
N            1.37912726937962       -1.85587609186669       -0.04663879187761
C            0.38130064778823       -0.94010825142111       -0.02242637220122
C            0.93101569919920        0.34448457796825        0.01736659309109
C            0.01033514444766        1.42571554535508        0.05738043190429
O            0.25870545129677        2.61714908042810        0.07085147948416
N           -1.56188725442906        1.04082559568248       -0.00880728475477
C           -2.45652408957527        2.18098787227708       -0.04096585332027
C           -2.07580451163517       -0.20774019915372       -0.04571016348102
O           -3.21201528178081       -0.60220245633047       -0.08464640370349
N           -0.97225324745288       -1.19736640944881       -0.03029871443435
C           -1.37643531054115       -2.59627092389067       -0.05130598712216
H            3.89810483566355        1.21598434909050        1.10321745013500
H            4.34195164113067        0.71603780961624       -0.48506800618663
H            3.16906666527996        2.05222880845216       -0.33299774138005
H            3.54562383238798       -1.75669884719822       -0.04835915692943
H           -1.82085685928668        3.05760036568420       -0.00216256287435
H           -3.05360424829650        2.22337573181472       -0.95226628268602
H           -3.13527666831547        2.20693563430149        0.81091630214937
H           -1.05225405092913       -3.13483970700266        0.84408157221605
H           -1.01834508329633       -3.12328065944297       -0.94073472452544
H           -2.45594392553058       -2.58609375073402       -0.07635882841570
H            1.26512467555986       -2.86283560698733       -0.07090583788139
25
 energy: 23.662225753449 xtb: 6.6.1 (8d0f1dd)
C            3.49996086687126        1.07532446075446        0.08520745994092
N            2.39610168484989        0.15375153337126       -0.00259076520107
C            2.60837433062578       -1.22259947740867       -0.01245470941441
N            1.38505785227861       -1.84194010065302       -0.06058844630438
C            0.38249123840819       -0.92379939206173       -0.03201888340641
C            0.95331607041514        0.35673833929147        0.01705076073377
C            0.05292857466087        1.43712750631975        0.06005969271688
O            0.23046543141781        2.63278733843299        0.08643680365366
N           -1.63294294507161        1.04463165823483       -0.01153944723123
C           -2.50719083003226        2.19283183326285       -0.04227531411240
C           -2.13504834512934       -0.19023248791057       -0.04631701367028
O           -3.24318777749744       -0.65242413596080       -0.08851599483233
N           -0.96623552056351       -1.17724241072628       -0.03265675516249
C           -1.35432483648460       -2.58456931727443       -0.04955575934889
H            3.86960485191261        1.24695682811291        1.11491723569308
H            4.39704133929989        0.65178416050435       -0.43589407902881
H            3.25800848819131        2.03034681874780       -0.37784397088637
H            3.54234686440217       -1.77244864198875       -0.07662932626081
H           -1.85806036819270        3.06032747141251       -0.00197003508458
H           -3.10361221370739        2.24846574719896       -0.95360903469514
H           -3.18864679993789        2.23090116313374        0.80754987212750
H           -1.02955847246058       -3.12186803159987        0.84759954650997
H           -0.99232786921777       -3.11554883415892       -0.93605505652740
H           -2.43256835423772       -2.59030345524758       -0.07743891788378
H            1.26331974718810       -2.84783542875068       -0.08736152956016
25
 energy: 37.450748775344 xtb: 6.6.1 (8d0f1dd)
C            3.54293007180989        1.05288813855064        0.08049851746312
N            2.42196590854831        0.15068273471802       -0.00193527742912
C            2.61588334034907       -1.21766928684568       -0.04399326497477
N            1.39568591130559       -1.83614905017738       -0.08341608263941
C            0.38708997081924       -0.91875383313515       -0.04238930297041
C            0.98094493906914        0.36334193308308        0.01941850181845
C            0.11512271686171        1.44746663079167        0.06284991614500
O            0.19760287898717        2.64418014996956        0.10603181800244
N           -1.72070254793087        1.04410290289284       -0.01622633765841
C           -2.56212261902187        2.20599525176605       -0.04648768280954
C           -2.21445133008195       -0.16781987321904       -0.04588579058024
O           -3.28162554827048       -0.71010935452754       -0.08639701978785
N           -0.95388483128137       -1.16254914057186       -0.02778609224426
C           -1.33269502178835       -2.57515750820177       -0.04714933040256
H            3.87823842298057        1.28013694574651        1.10370775950117
H            4.45349077960833        0.58164442430351       -0.38992997418612
H            3.35568333563737        1.99893052294222       -0.41698630604858
H            3.54755740873122       -1.76218910344762       -0.11082493131621
H           -1.89420853864023        3.06102424738662       -0.00274562133685
H           -3.15546158427726        2.27495361727842       -0.95868061995847
H           -3.24604922953853        2.25717090987445        0.80089925759054
H           -1.00638439051534       -3.11302237162212        0.84974856657299
H           -0.96814234798304       -3.10632397367537       -0.93325628282531
H           -2.40955575607137       -2.59507207510766       -0.07663952033323
H            1.28921654064496       -2.84334324383248       -0.09549632960386
25
 energy: 53.755636818285 xtb: 6.6.1 (8d0f1dd)
C            3.57144813091937        1.02633181553495        0.08135062462278
N            2.44481924190881        0.13614271463982       -0.01073207268981
C            2.62942717649231       -1.22417278841205       -0.07711674467794
N            1.41306947842430       -1.84737950283245       -0.09560758239148
C            0.39971343292657       -0.93124577271076       -0.04043594176349
C            1.01547655260017        0.35457110337630        0.02424280085151
C            0.21093699507107        1.45452194672402        0.05673978232830
O            0.18087613535508        2.64183132774232        0.13918727141380
N           -1.82561518084845        1.04174475160993       -0.02761755017248
C           -2.62226329267637        2.22679152902352       -0.05053099534706
C           -2.33433554248649       -0.12773339927960       -0.04716874791451
O           -3.33462161878037       -0.77045691108803       -0.08568012854719
N           -0.92189968464128       -1.16183767860148       -0.02067535682173
C           -1.30778600325543       -2.56972265867837       -0.04361424484939
H            3.86527026808409        1.31191689747090        1.09269515758408
H            4.47063525266918        0.49932277199995       -0.33343844102293
H            3.43847817853299        1.95685766479767       -0.44809660667174
H            3.56236758900399       -1.75007164580892       -0.13454989143310
H           -1.93196109780757        3.06533832418443       -0.00163675796314
H           -3.21201860734646        2.30666208904399       -0.96317402788235
H           -3.30602616424577        2.28608142652646        0.79566270631127
H           -0.98459186810529       -3.10783304086640        0.85436381999445
H           -0.94382487586227       -3.10419161535904       -0.92873412723522
H           -2.38355507515176       -2.59697454551212       -0.07578485917328
H            1.31150927004671       -2.84925918836577       -0.10474540785538
25
 energy: 68.039096710146 xtb: 6.6.1 (8d0f1dd)
C            3.60685413269209        0.99346549974766        0.08002063218456
N            2.47385425645433        0.11561029915232       -0.01105478652636
C            2.65144152071397       -1.23600088514496       -0.10243056660671
N            1.44083547349298       -1.86572433774863       -0.09511666886447
C            0.42117933838912       -0.94868132542436       -0.03496784930103
C            1.06065554596100        0.34519666942652        0.04353557974607
C            0.32752701429562        1.47004288368252        0.04065096368981
O            0.16971390971775        2.63484881069581        0.18767596996168
N           -1.95494175415114        1.03815436807568       -0.04653128344748
C           -2.68565591474952        2.25808665286440       -0.05662519518562
C           -2.51282899993187       -0.06517282135112       -0.04878071934868
O           -3.39781358820157       -0.83834829839224       -0.07536968654370
N           -0.87113763558640       -1.17376685180688       -0.01695991490585
C           -1.28141013485757       -2.56799516170149       -0.04094678348591
H            3.85612932066053        1.34652111454915        1.07513531074861
H            4.49756526407061        0.41655616336617       -0.28090132903628
H            3.51875206027597        1.90072846219692       -0.48343556815314
H            3.58431819671507       -1.74224782648981       -0.17103692151324
H           -1.96763838577712        3.07167424800306       -0.00312235729430
H           -3.26910726399900        2.34690919404258       -0.97080813285997
H           -3.36719760740864        2.32584264972517        0.78832128481850
H           -0.96177390768783       -3.10318969265702        0.85927338243583
H           -0.91788981227530       -3.10272998919105       -0.92562354593252
H           -2.35721606172253       -2.60432873467721       -0.07572387575513
H            1.33732115823956       -2.86118812618698       -0.11567046219151
25
 energy: 72.532632102390 xtb: 6.6.1 (8d0f1dd)
C            3.64284267233933        0.96885670801530        0.07160882989581
N            2.50462581345156        0.09507295970276       -0.00475328709220
C            2.67441055483074       -1.24706836771577       -0.12147815421045
N            1.46953122193823       -1.88208825900802       -0.09290941598480
C            0.44513276942925       -0.96049107298507       -0.02981802755690
C            1.09914825246099        0.33904919356275        0.05877934852520
C            0.39668643817393        1.47602061487615        0.03532976714203
O            0.16612731885587        2.62334634329378        0.23063242095309
N           -2.06982295527703        1.03485970459592       -0.05447561273591
C           -2.74393935249072        2.28008093163079       -0.05580112347435
C           -2.66038412978324       -0.02642275013254       -0.04927032896303
O           -3.46084232542568       -0.87635241247474       -0.06994785441409
N           -0.83033788866754       -1.18127794507353       -0.01268991322431
C           -1.25812432329441       -2.56685606643523       -0.03771105499257
H            3.84943702269633        1.38512299138201        1.04656630899810
H            4.52624467672769        0.34138101531315       -0.22440456566930
H            3.60578845268869        1.85303981620663       -0.54041982496713
H            3.61020233217290       -1.73572144844989       -0.20760399077714
H           -2.00649970988957        3.07529844315158       -0.00150128515279
H           -3.32643225936020        2.37067644451451       -0.97014235352540
H           -3.42686703246650        2.34715754725991        0.78820604603440
H           -0.93926478645224       -3.09666336995074        0.86470418594968
H           -0.89251811405883       -3.09939720643227       -0.92202924267853
H           -2.33279557358524       -2.61279277622638       -0.07425992488720
H            1.36502065675095       -2.87274329839154       -0.12523146296529
25
 energy: 73.274629023236 xtb: 6.6.1 (8d0f1dd)
C            3.67461003324269        0.94932981116318        0.06698377916799
N            2.53489284865302        0.07912577403533       -0.00287519888821
C            2.70271131436510       -1.26115626961090       -0.13776557391262
N            1.49892597785059       -1.89307817200975       -0.09404581326111
C            0.47123513124830       -0.97037586131769       -0.02464035069974
C            1.13457863736876        0.33217062762751        0.06942988122916
C            0.45622144382713        1.47984393857071        0.04678385190204
O            0.17583346563293        2.61323016459404        0.26712977438630
N           -2.16659151095770        1.03371172532636       -0.05446550820672
C           -2.79471490341700        2.30023487172753       -0.05383878098207
C           -2.77425180542915       -0.00719097416158       -0.04856312215474
O           -3.52611357550688       -0.89510892137169       -0.06831993455549
N           -0.79851153619581       -1.18576508370444       -0.00774202203683
C           -1.23644592642723       -2.56450617131070       -0.03423540296186
H            3.83221253989371        1.43410504121247        1.01610436651124
H            4.54773678651215        0.27584047847525       -0.14976517035231
H            3.68574406659583        1.79802231601230       -0.60428683533768
H            3.64254162753287       -1.74446927792923       -0.21584044421004
H           -2.04173508952064        3.07982806026073        0.00287268114924
H           -3.37363340029718        2.39870903532505       -0.96993631575550
H           -3.48043335947023        2.37161658212973        0.78859028296480
H           -0.91792223742222       -3.08888370271686        0.87049222041326
H           -0.86706842875399       -3.09531158514724       -0.91766426598634
H           -2.30896370956306       -2.61562951848154       -0.07140306028593
H            1.39039669981888       -2.88067321804472       -0.13592324718034
25
 energy: 72.783975697636 xtb: 6.6.1 (8d0f1dd)
C            3.70705548010103        0.92711231165992        0.06806511078677
N            2.56806431122778        0.06172423828947        0.00446935900591
C            2.73237066708294       -1.27810970209130       -0.14565613641735
N            1.52813980942032       -1.90529932289732       -0.09500737001803
C            0.49965186360858       -0.98023609478612       -0.01906750307362
C            1.17331738798262        0.32277157977110        0.08057491515899
C            0.51740121868476        1.48118331722502        0.05795930111687
O            0.20927409917974        2.60490405654839        0.29708225969199
N           -2.25914496333537        1.03261085733660       -0.05554941170189
C           -2.84306316424064        2.31810615565347       -0.05441281182929
C           -2.87570832844591        0.00230555360201       -0.05672034293126
O           -3.59781625843902       -0.90640915813790       -0.06874063011921
N           -0.76827606780768       -1.18871435464926       -0.00439196916325
C           -1.21984147764339       -2.55836657969976       -0.03128032208340
H            3.80695954207245        1.49173751344746        0.97970181097116
H            4.58154788032981        0.22828582060884       -0.06595540259261
H            3.75198343240888        1.72347414347150       -0.66574042680625
H            3.67346189907528       -1.76214625581001       -0.20368367160980
H           -2.07477834945448        3.08361579766293        0.00805273014730
H           -3.41636303360830        2.43502408472727       -0.97235215616813
H           -3.53105796733336        2.40398905473070        0.78615706800986
H           -0.90229723694090       -3.07702648662656        0.87637838627116
H           -0.84754676524130       -3.08901889630563       -0.91319089582034
H           -2.29263753712984       -2.59772472045590       -0.06708357349611
H            1.41743278143303       -2.89247292984961       -0.13728566022367
25
 energy: 71.601417820660 xtb: 6.6.1 (8d0f1dd)
C            3.73216812041077        0.91336951298705        0.07735648422634
N            2.59691058166442        0.05213978693188        0.00332616395414
C            2.76127585303313       -1.29199471133442       -0.14575619990162
N            1.55551336244724       -1.91547606568190       -0.09832083038058
C            0.52681661501139       -0.98980506957614       -0.01436646673057
C            1.20711471248018        0.31312475705736        0.08837152687353
C            0.57752737068619        1.48259350304041        0.06967218091346
O            0.24992783324944        2.60051255239166        0.30853153804907
N           -2.34706381676326        1.03622688169362       -0.05542098256260
C           -2.89150648693299        2.33689529062111       -0.05659280253563
C           -2.97005744713098        0.01296726114678       -0.05999580442282
O           -3.65857944910332       -0.91941716825119       -0.07016616913020
N           -0.74053705682878       -1.19163033677170       -0.00157356230191
C           -1.20686645612104       -2.55099654338382       -0.02972749071289
H            3.78236367956803        1.53671221949983        0.95416354281392
H            4.59750809002751        0.20666639421198        0.03538380894875
H            3.83089177457149        1.65718030119734       -0.70657635502585
H            3.70176118990482       -1.78092165216224       -0.18085024168767
H           -2.10926178772392        3.09159444461312        0.01317669867269
H           -3.46115821570600        2.46593273056281       -0.97568263589005
H           -3.58336569295171        2.43272083555044        0.78073215013948
H           -0.88922014945918       -3.06455489315507        0.88027205661059
H           -0.83045983309475       -3.07964480766720       -0.90967112895661
H           -2.28162480004456       -2.57420981341660       -0.06730185064219
H            1.44342060253618       -2.90329239297911       -0.13678309224480
25
 energy: 69.247135861252 xtb: 6.6.1 (8d0f1dd)
C            3.75432543946792        0.89413054480713        0.09310649164055
N            2.62408012671825        0.03413015916079       -0.00485178088398
C            2.78888154493544       -1.31203277651452       -0.14216217447108
N            1.58048347381565       -1.92830163581627       -0.10207595308346
C            0.55258575641483       -1.00065771605479       -0.01082626213897
C            1.23417057789466        0.29992191180132        0.08508457020567
C            0.63634033836629        1.48128680113326        0.08436538595843
O            0.29450680272361        2.60120203564018        0.28600982541440
N           -2.44212924697028        1.04100580153251       -0.05457530229846
C           -2.94371399476363        2.35407404479575       -0.05738692464448
C           -3.06365283022453        0.01764961636983       -0.06056848394906
O           -3.69111430652409       -0.96017903613139       -0.06816627651958
N           -0.71447883232589       -1.19172308455588        0.00160699190704
C           -1.19524931920444       -2.54312033311870       -0.02877186230292
H            3.77663585037052        1.53398760467425        0.96163614715985
H            4.61128525970194        0.19380648226157        0.13373210193660
H            3.89102952129919        1.58744395570501       -0.73186194165670
H            3.72974166472409       -1.80255191325534       -0.15884793208692
H           -2.14595731510823        3.09379698485877        0.01451246216808
H           -3.50595271687454        2.49976346300189       -0.97865529721643
H           -3.63558771570068        2.46376409395472        0.77977436016775
H           -0.87474509417719       -3.05299416909041        0.88168994659765
H           -0.81496705504250       -3.06732788887992       -0.90870384355655
H           -2.27329902422924       -2.55024869400855       -0.06813325610477
H            1.46522968102152       -2.91720626967917       -0.13646468568092
25