25
 energy: 0.000000000000 xtb: 6.6.1 (8d0f1dd)
C            3.23720163006194        1.16630919979326        0.08434469647475
N            2.29877817382611        0.07527477071623        0.03981603040599
C            2.58028210190900       -1.21425402444508        0.03006176031096
N            1.43813958087363       -1.93419271955128        0.00098261760884
C            0.39035688448383       -1.05887472636071       -0.00790371836672
C            0.93510056364412        0.21347819449412        0.01709077491437
C            0.09450143893243        1.40504303904423       -0.00410947031874
O            0.49712751527797        2.54126714362870       -0.00342325688240
N           -1.25076640035757        1.06271879480407       -0.03085478223738
C           -2.21907211982101        2.15522099834493       -0.05001256985998
C           -1.81739487048744       -0.20012725993278       -0.04692818574614
O           -2.99983886758376       -0.37846417018721       -0.07008878229737
N           -0.92618586207120       -1.30210215599479       -0.03682761578324
C           -1.46982264913417       -2.64643102187190       -0.06029820460571
H            3.71247264356769        1.21471455160235        1.06488849150277
H            4.00791497605742        1.03430808813993       -0.67357694370751
H            2.69910007168542        2.09770118228144       -0.09130154882931
H            3.56654120610678       -1.63682992603973        0.04233140067262
H           -1.67107961066214        3.09322851271934       -0.02552706933167
H           -2.82428953597071        2.09428624779827       -0.95318082946668
H           -2.87644029173232        2.07745725625962        0.81450067533302
H           -1.17061996399332       -3.19584890659852        0.83242232437030
H           -1.14560257411436       -3.17511610292205       -0.95688275822323
H           -2.55549792440841       -2.55659984320617       -0.07459039797972
H            1.38130855184625       -2.94313852034425       -0.01389874181052
25
 energy: -5.381965862898 xtb: 6.6.1 (8d0f1dd)
C            3.25345791805929        1.17226976285570        0.08663915174946
N            2.31164034495926        0.09487259433295        0.03737759879310
C            2.60202236077141       -1.23360796267248        0.02947177535882
N            1.42911240175413       -1.93966981784786       -0.00019737167407
C            0.39767130077904       -1.05443688136163       -0.00837903839452
C            0.93195365541520        0.22386369775362        0.01519806385909
C            0.09693240357092        1.39537047683050       -0.00377064345058
O            0.49346720395061        2.56121222664497       -0.00175909676846
N           -1.26974968388621        1.05172824430913       -0.03062818218981
C           -2.23177725268559        2.14934799795205       -0.04978890326522
C           -1.83143563964950       -0.20123429284508       -0.04730180259354
O           -3.02795361510869       -0.38866492471202       -0.07066909523646
N           -0.93415345999091       -1.29821421768734       -0.03671690015501
C           -1.46738070413700       -2.64147223469035       -0.05977472016718
H            3.72679142380705        1.22197218326209        1.07078515933518
H            4.02681248340148        1.02969563037370       -0.66958114905584
H            2.71387634988508        2.09856000620405       -0.09802754034422
H            3.58026263509583       -1.66138367478310        0.04073393651602
H           -1.66862338241075        3.07904121063867       -0.02489123108209
H           -2.83875074320018        2.10214029408647       -0.95389923446204
H           -2.89190970962487        2.08554710295670        0.81503716920508
H           -1.16295238190750       -3.19182327684995        0.83257187422697
H           -1.13717077216809       -3.17147800428963       -0.95537206361296
H           -2.55245644755784       -2.55106754475401       -0.07456742158359
H            1.36252797881404       -2.94353999353515       -0.01545643886085
25
 energy: -6.328242838780 xtb: 6.6.1 (8d0f1dd)
C            3.27683349144739        1.16934608341799        0.08859045743739
N            2.32155448804370        0.10793455189639        0.03275644641517
C            2.61302158691701       -1.24722383326035        0.02851698880450
N            1.41675640101137       -1.93603494822011       -0.00201069200612
C            0.40180880073842       -1.04577477022321       -0.00949420877267
C            0.92864541100745        0.23638793672738        0.01241516227546
C            0.09423634266758        1.38420036342449       -0.00284678995026
O            0.47098954511680        2.56624861994167        0.00154651716046
N           -1.29491815885560        1.04294542881796       -0.03005184397877
C           -2.24979858117928        2.14613732024953       -0.04917440040516
C           -1.84444571161397       -0.20267803735084       -0.04743065356281
O           -3.04387639361305       -0.40530080295471       -0.07120052999514
N           -0.94029436709880       -1.28986855270603       -0.03643790450825
C           -1.45932825543693       -2.63473200719898       -0.05876254674959
H            3.74590625343797        1.22798923334824        1.07673400456836
H            4.06057459364780        1.01446166458345       -0.65729753343718
H            2.74941095429430        2.09872045651175       -0.11158626520919
H            3.58403375648929       -1.68326782835895        0.03705877681083
H           -1.66951723032706        3.06578988942465       -0.02342705888614
H           -2.85978085144869        2.11322627359928       -0.95325487468364
H           -2.91445187774283        2.09663635959339        0.81450418310360
H           -1.14990651755785       -3.18478403413507        0.83345228699038
H           -1.12257932495225       -3.16552842757421       -0.95287524752832
H           -2.54445813086104       -2.54796503023376       -0.07457664066598
H            1.34179844380449       -2.93783730714792       -0.01811373707960
25
 energy: -5.950933954254 xtb: 6.6.1 (8d0f1dd)
C            3.30099061239080        1.15934897205672        0.08951222250643
N            2.32686072941951        0.11414843538446        0.02741148550587
C            2.61271598739490       -1.25284359808965        0.02724094286712
N            1.40699791467500       -1.92889797251854       -0.00420786422394
C            0.40187895401767       -1.03619063829284       -0.01105648652741
C            0.92657401247573        0.24847023094751        0.00972811418130
C            0.08657385133525        1.38333438374587       -0.00111773754812
O            0.44254943772107        2.57178534448525        0.00616426768825
N           -1.31794085247987        1.04112797351872       -0.02908886835639
C           -2.26940039673038        2.14652563384351       -0.04816329739601
C           -1.85616495681104       -0.20418892135342       -0.04737657943491
O           -3.05369286759123       -0.42288419189328       -0.07171485390816
N           -0.94292622914851       -1.28131852697569       -0.03616276728278
C           -1.44740618405227       -2.63014667237945       -0.05740402820622
H            3.75925888464018        1.22649526629235        1.08369511914816
H            4.09930578769916        0.98398811960623       -0.63891856399248
H            2.79838070008440        2.09841024418399       -0.13244882450576
H            3.57935623786329       -1.69741925732577        0.03097766735606
H           -1.67936428940209        3.05974302408949       -0.02119712645888
H           -2.88125632329557        2.12242743948195       -0.95195808847596
H           -2.93767690659646        2.10520948568726        0.81384832698975
H           -1.13307297345458       -3.17662180690725        0.83569673211166
H           -1.10363415421769       -3.15923660655149       -0.95026129151726
H           -2.53315182805381       -2.55164355930606       -0.07463802002271
H            1.32645952005280       -2.93059419955786       -0.02152658435029
25
 energy: -3.734511839142 xtb: 6.6.1 (8d0f1dd)
C            3.35978914203494        1.12831837643571        0.09111981812425
N            2.33568940566139        0.12596238314322        0.01360318919866
C            2.60408484377506       -1.25771190334046        0.02360849254390
N            1.38662820167181       -1.90916040035948       -0.01024879669928
C            0.39827832337487       -1.01078142254279       -0.01541158890982
C            0.92227004046392        0.27831578746154        0.00344631123761
C            0.06499641507466        1.39217175611960        0.00416787523318
O            0.37456498882347        2.58958770346787        0.01956293268010
N           -1.36973411157951        1.04277721411317       -0.02625300511233
C           -2.31865538428781        2.14952941666568       -0.04514860707649
C           -1.88455126649523       -0.20650382560597       -0.04709591477698
O           -3.07551928115763       -0.46212275950349       -0.07294965858877
N           -0.94737650158484       -1.26040932032748       -0.03556471084430
C           -1.41508434603943       -2.62137100057281       -0.05363018479071
H            3.78039330407358        1.21488808652028        1.10420112293568
H            4.19618998483922        0.88758349215554       -0.58639511826713
H            2.92985952576026        2.09383333743255       -0.19455681574465
H            3.56234994664801       -1.72119473929944        0.01164422460892
H           -1.71626537512396        3.05365436080571       -0.01467908740332
H           -2.93340932621543        2.14081217792335       -0.94861331103276
H           -2.99452935977548        2.12100294755534        0.81277333065147
H           -1.08774679698616       -3.15588615701524        0.84262325427806
H           -1.05240594771459       -3.14412587464814       -0.94334242031054
H           -2.50261874785440       -2.56903558227366       -0.07487230962481
H            1.29501699054957       -2.91110545213857       -0.03095512616262
25
 energy: 1.286939282484 xtb: 6.6.1 (8d0f1dd)
C            3.42890008480613        1.08553100562312        0.09333995093987
N            2.34356928090714        0.13880287496216       -0.00645936750638
C            2.58924986352019       -1.25782547811049        0.01762808932855
N            1.36463673795836       -1.88381651718267       -0.01947322010543
C            0.39096763398555       -0.97911931558360       -0.02181780215124
C            0.91628113183382        0.31442798094709       -0.00437564136467
C            0.03659951654765        1.40714004549986        0.01304087670649
O            0.28824003126976        2.61104401967190        0.04120307695115
N           -1.43556255410350        1.04579693615865       -0.02203432070627
C           -2.37699741564673        2.15881458264793       -0.04066589757085
C           -1.92368070086036       -0.21096234193433       -0.04672361215011
O           -3.10413005746164       -0.51351184366826       -0.07508878119259
N           -0.95282345455183       -1.23581805315353       -0.03465010807682
C           -1.37088527424068       -2.61429838085439       -0.04769174578639
H            3.78490372515386        1.20974026940082        1.13492778383121
H            4.31515930561210        0.75130708057481       -0.50591932380305
H            3.09823736425266        2.07656217970844       -0.28942041315273
H            3.53874914340269       -1.74211283311275       -0.02241151368246
H           -1.75635503625846        3.05023858161292       -0.00444868245318
H           -2.99353486615412        2.17370115935436       -0.94494094527533
H           -3.06211227806746        2.14942413432041        0.81235692080207
H           -1.02704458737437       -3.13057727414592        0.85387024730900
H           -0.98181859867912       -3.12801329936692       -0.93242647536819
H           -2.46042079605177       -2.60117462206759       -0.07554640868838
H            1.26208646813652       -2.88627228913000       -0.04523879068693
25
 energy: 5.824892012654 xtb: 6.6.1 (8d0f1dd)
C            3.47982029944138        1.04509520040020        0.09632458991962
N            2.34936998911246        0.14469944286931       -0.02261685387358
C            2.57462536204152       -1.25089915600755        0.01086414608089
N            1.35262326622233       -1.86329857667333       -0.02775755742528
C            0.38312973114428       -0.95340274333404       -0.02668194989768
C            0.91421331170026        0.34107104992287       -0.00772472396540
C            0.01585333908839        1.42509646421654        0.02267093778841
O            0.22676067496801        2.62765742840529        0.06372932193045
N           -1.48466093375742        1.05105714988086       -0.01941653653394
C           -2.42222149355345        2.16902170184020       -0.03944219947703
C           -1.95574912242705       -0.21365650761170       -0.04714948477235
O           -3.12488080114084       -0.55110871477993       -0.07879371262047
N           -0.95572918906192       -1.21682127959249       -0.03325879902609
C           -1.33397505527985       -2.60949322409287       -0.04097483342662
H            3.78210420272556        1.20679946615068        1.15333518009359
H            4.38733981260620        0.63870706924623       -0.43743915794952
H            3.23095172726015        2.03956299633851       -0.35672632961530
H            3.51863171043142       -1.74790375242041       -0.06046785677277
H           -1.79472313395849        3.05467113718461        0.00252116554804
H           -3.03699245105732        2.20069533588108       -0.94557853775563
H           -3.11435554855273        2.17250133665028        0.80905509729071
H           -0.97804863822322       -3.10771001822314        0.86634731531987
H           -0.92206181561937       -3.11493844947652       -0.92048413728125
H           -2.42367045306143       -2.63231698898668       -0.07579142838500
H            1.24385987688757       -2.86605776561594       -0.05750975904636
25
 energy: 7.428401281761 xtb: 6.6.1 (8d0f1dd)
C            3.50734858336867        1.00472381736655        0.10052677482349
N            2.35309508982903        0.14049551370407       -0.03416102741612
C            2.55839060871910       -1.22949617471931        0.00348029350628
N            1.35544973571109       -1.84757446234472       -0.03566479935305
C            0.37345971754321       -0.93343535723376       -0.02990329630976
C            0.91935989075212        0.35594228254411       -0.00418754432233
C            0.00742773215568        1.45111310256269        0.03275448380248
O            0.20119373125035        2.64063840975679        0.09129081055364
N           -1.50919042498664        1.06008733183260       -0.02015899240137
C           -2.45214336474741        2.17858611239971       -0.04365299748206
C           -1.97885380381437       -0.21303775288938       -0.04901314474586
O           -3.13422214657985       -0.56843285011032       -0.08499881260131
N           -0.95462151501054       -1.20454185568945       -0.03093581091211
C           -1.30648958409806       -2.60640859597273       -0.03231692415702
H            3.77102173168403        1.20151183380318        1.15135286055285
H            4.39014538626593        0.54986044494126       -0.38105762105928
H            3.32377572899107        1.96863428557314       -0.38438654190577
H            3.50138795936997       -1.72749386579227       -0.10758901332817
H           -1.83989526820685        3.07233964042040        0.00469379994564
H           -3.05970943743727        2.21444737073048       -0.95333620933137
H           -3.14828045313766        2.18248372168260        0.80062650671002
H           -0.94464084634371       -3.08554749759893        0.88162507206220
H           -0.87624686164393       -3.10368861737206       -0.90597543746105
H           -2.39252658089213       -2.66203102615216       -0.07471860894081
H            1.24697905919466       -2.85014720927045       -0.06725992408181
25
 energy: 11.485556945067 xtb: 6.6.1 (8d0f1dd)
C            3.54830862176543        0.96774342933657        0.10576136376104
N            2.35845080629944        0.15109240294809       -0.04622052156720
C            2.54821551343196       -1.21124650107577       -0.00260024776898
N            1.34602307095741       -1.82829996041364       -0.04853233094125
C            0.36592256449776       -0.90498195371911       -0.03679504849689
C            0.92024666950748        0.38200265643943       -0.00636792995028
C           -0.00148376108451        1.47358879071458        0.03951013144703
O            0.17187190038268        2.67090375029658        0.13028182617456
N           -1.53506696403039        1.06476944088540       -0.02152166253810
C           -2.49576315779957        2.17456764708054       -0.04470073097733
C           -2.00127999485193       -0.20741435069269       -0.05159594266749
O           -3.15069872503640       -0.58038617358382       -0.08943115704897
N           -0.95852466635359       -1.18710839488371       -0.02991422394629
C           -1.27935858194418       -2.59656807371654       -0.02301487765190
H            3.75983900535839        1.19523897424756        1.16244392054915
H            4.43407721549023        0.41092929618601       -0.29873583808460
H            3.46107161642688        1.92136183063748       -0.45647614074445
H            3.48635064948447       -1.71158234339234       -0.15631102440263
H           -1.90802544560721        3.08396205088819        0.01194211669067
H           -3.09895906542723        2.20982464480280       -0.95757032045860
H           -3.19854279724306        2.16949891080707        0.79433421864943
H           -0.90517160721153       -3.05781959771659        0.89626690920638
H           -0.82664577632662       -3.08713982780747       -0.89014094241532
H           -2.36134577618010       -2.68534144033903       -0.07139919313670
H            1.23270335343074       -2.82856660575758       -0.08217845753391
25
 energy: 10.516269009470 xtb: 6.6.1 (8d0f1dd)
C            3.55369303733684        0.95531439149150        0.11104569002663
N            2.35863300947295        0.16231689021621       -0.05068759104297
C            2.54817133500963       -1.19102688614362       -0.00843818703448
N            1.34420136090900       -1.82239459416113       -0.06219583956027
C            0.36339947506029       -0.89011542019275       -0.04383870841657
C            0.92355661032163        0.39178860991930       -0.00632534115803
C            0.00830221127352        1.48939596869080        0.04163332859665
O            0.20494892866460        2.69441104076085        0.16476525193300
N           -1.51275640801844        1.06961107325616       -0.02694932480884
C           -2.50952918171559        2.15603764126619       -0.04977362132517
C           -1.99515214781982       -0.19246763923265       -0.05384497255468
O           -3.15040535529058       -0.54874973693664       -0.09183890183132
N           -0.96078127299132       -1.18259926543249       -0.02936267058628
C           -1.28062196134354       -2.58684502547037       -0.01403940789956
H            3.74187453712359        1.19759491724840        1.15839431343207
H            4.40931497053342        0.33816185190939       -0.24175861615823
H            3.52445758173056        1.87464522428801       -0.48482045805437
H            3.48385970263006       -1.67958723912457       -0.19504726252441
H           -1.97008838259854        3.09904536776299        0.01539302875065
H           -3.10714004210061        2.16472825207462       -0.96685523460325
H           -3.21634091939851        2.11309740060350        0.78550076211082
H           -0.90241843635864       -3.04087767111604        0.90716453232922
H           -0.82165633143315       -3.07852917821576       -0.87646482780768
H           -2.35585895209148       -2.68501981330792       -0.06297525019893
H            1.23055129903071       -2.81890755798193       -0.09164679546663
25
 energy: 10.649453825645 xtb: 6.6.1 (8d0f1dd)
C            3.56628042395533        0.94282597096476        0.11838859655829
N            2.35482779847578        0.17533012213848       -0.06078818354536
C            2.54538344036788       -1.18323932976279       -0.01911232067837
N            1.33721897912911       -1.81550146289657       -0.07877601420101
C            0.36214364666534       -0.87778511344556       -0.05111525409742
C            0.92028898703738        0.40261189051526       -0.00725829585411
C            0.00783248672064        1.50002918604751        0.05332331713827
O            0.22687794478868        2.70010647730499        0.17888979108047
N           -1.50085659264441        1.07992258102094       -0.02613450169094
C           -2.52362782664436        2.14493392805174       -0.05299992708131
C           -1.98857898465275       -0.17862096677821       -0.05155190309235
O           -3.15020996521370       -0.52351579173126       -0.09161861616936
N           -0.96260517959302       -1.17663489027779       -0.02821076311574
C           -1.27742098832878       -2.57971719250963       -0.00472579557608
H            3.71473112962639        1.22761995706448        1.17131179636512
H            4.41259362407239        0.28208628444450       -0.16979249512604
H            3.59902228085666        1.83364885057219       -0.52955899551126
H            3.47732048593941       -1.66676210010539       -0.24293814811621
H           -2.01648891328225        3.10700338535889        0.02162490421989
H           -3.11475901461450        2.13014050029524       -0.97540196911119
H           -3.23649345660245        2.06561718242226        0.77665686630116
H           -0.89667266437980       -3.02766579618385        0.91917665321661
H           -0.81510462830363       -3.07621226899058       -0.86296385014135
H           -2.35150734101345       -2.68646059568708       -0.05401364233039
H            1.22201899557474       -2.81073220566049       -0.10537735329395
25
 energy: 7.975737738004 xtb: 6.6.1 (8d0f1dd)
C            3.55693012923029        0.94872277965849        0.13153401567715
N            2.34359677126875        0.19171131669655       -0.07227733434759
C            2.54731987838553       -1.18240863396986       -0.03698079467542
N            1.33283305493762       -1.81470758755680       -0.10331068689620
C            0.36594196344775       -0.87728850909251       -0.06090946342089
C            0.91336282861833        0.40291101094341       -0.00999128008379
C            0.00565739293135        1.50356981014370        0.06534707356050
O            0.26977879581513        2.69519027732379        0.17858304469082
N           -1.46169924603873        1.09487521148122       -0.02371230053617
C           -2.51577270093551        2.12922589498844       -0.05777194294615
C           -1.95872809275464       -0.16184449163509       -0.04709888784209
O           -3.13510111553677       -0.47195359541469       -0.08629772031892
N           -0.96150740943950       -1.17917336892772       -0.02760502963576
C           -1.29005246565472       -2.57573283924980        0.00848190471650
H            3.67275280284898        1.29139999731867        1.17648644925861
H            4.39053367018343        0.26938223851507       -0.07548163209691
H            3.64465264966957        1.79013841731026       -0.55448969325020
H            3.47273154732764       -1.65488041110854       -0.30797266512452
H           -2.04995030686641        3.10993388272180        0.02681859092274
H           -3.09616041579779        2.07719065864429       -0.98801309030910
H           -3.23546237430168        1.99542552166942        0.76261679316340
H           -0.91371300825863       -3.02223886253639        0.93540738186302
H           -0.83795104984415       -3.08730061298069       -0.84648475092305
H           -2.36636789805235       -2.67294013111467       -0.03727841441915
H            1.21858926675316       -2.81017937165633       -0.12256567087948
25
 energy: 8.167926583976 xtb: 6.6.1 (8d0f1dd)
C            3.55365657884915        0.94778686129884        0.15009644519946
N            2.33525582865389        0.20516076603112       -0.08694594126628
C            2.54683935686201       -1.17913564294822       -0.05573948711900
N            1.33195613890892       -1.80745226117352       -0.13354677795393
C            0.36851596023129       -0.87502928156464       -0.07320528739555
C            0.90768896018629        0.40594384243531       -0.01603703098691
C           -0.00893823240766        1.50823371926961        0.07212744856438
O            0.27066697949010        2.69283498479751        0.18912999224949
N           -1.44462294494276        1.10658552619795       -0.02102684471979
C           -2.51471487171788        2.12179107266349       -0.05988656434306
C           -1.94080096200117       -0.15682796443031       -0.04424651784085
O           -3.12246140263679       -0.44779828699788       -0.07956779160871
N           -0.95883634718600       -1.17844739047059       -0.02836041709436
C           -1.29294774022558       -2.57360122348698        0.02507084084968
H            3.61109822695763        1.37552817791748        1.18273309618626
H            4.39565223685547        0.21104942820239        0.06623330262606
H            3.73002132444508        1.73757024286695       -0.61498667025102
H            3.46217720737430       -1.64222600435786       -0.39701089741877
H           -2.07521322807950        3.10841177214030        0.03557330087901
H           -3.08192308488149        2.05343284875008       -0.99753763825115
H           -3.24058348933394        1.95493528434435        0.74843206930716
H           -0.91927792367864       -3.01118187582461        0.95774136475772
H           -0.84839489436253       -3.09882754302600       -0.82546146676297
H           -2.37177399112975       -2.66527486890780       -0.01754021877542
H            1.21917498170627       -2.80443358155493       -0.14900441268407
25
 energy: 5.828402998765 xtb: 6.6.1 (8d0f1dd)
C            3.53466305821993        0.96202470551843        0.16719897373849
N            2.33069772219457        0.20433991313007       -0.09172521132979
C            2.55235448111732       -1.18580983111566       -0.06980439558323
N            1.33815583614558       -1.81041710240561       -0.15419572754266
C            0.37335678530989       -0.88692764442614       -0.07937116242680
C            0.90669619773837        0.39516171133203       -0.01979853163968
C           -0.02137103236050        1.49938298739155        0.06579297439783
O            0.26023213751742        2.68231720890913        0.18428359202297
N           -1.42852965958557        1.10758942583738       -0.02104471204277
C           -2.49242159396573        2.12113171782573       -0.06342971702573
C           -1.92311832515042       -0.16480507461085       -0.04283076110785
O           -3.10701842075047       -0.44187646231294       -0.07271401067305
N           -0.95414087298140       -1.18426279540445       -0.02986133959231
C           -1.30556952733492       -2.57795441601280        0.03759095147018
H            3.57254861289243        1.43077060392972        1.17452042286153
H            4.37785507882506        0.23996898038225        0.14071354372286
H            3.73494097758312        1.71842627004710       -0.61158835921201
H            3.45747309852007       -1.63862906209357       -0.45230544079290
H           -2.05303724667215        3.09949824514216        0.03647864370845
H           -3.04991447523524        2.05638151164378       -1.00452682790805
H           -3.21878456412046        1.95217239040654        0.73650189487262
H           -0.93659713292032       -3.01161982494296        0.97388283094510
H           -0.87431383026174       -3.11779875699831       -0.81091835553702
H           -2.38934017185164       -2.65046105927832        0.00053092309755
H            1.22739753506352       -2.80957503972227       -0.16634630227639
25
 energy: 4.446020318789 xtb: 6.6.1 (8d0f1dd)
C            3.51941782114078        0.97222474010936        0.18891082806129
N            2.33313183591713        0.19822198838488       -0.09801275855872
C            2.56175755111328       -1.18975493957805       -0.08789709765583
N            1.34819798588401       -1.81370611212889       -0.18591413359196
C            0.37799404475603       -0.89666741249596       -0.08874238517007
C            0.91272721924780        0.38460731561807       -0.02180477853785
C           -0.03076214393313        1.48955132299272        0.05616412320856
O            0.23791698846125        2.67518458224373        0.19144660507323
N           -1.41939871769164        1.09999911711369       -0.02559757900176
C           -2.46995437317739        2.12139137295434       -0.07047283918479
C           -1.91469311978742       -0.18077313679920       -0.04291206719789
O           -3.09692718661122       -0.45260402831489       -0.06577931582396
N           -0.94868822342927       -1.18837483030081       -0.03166122032818
C           -1.31678599205342       -2.58125564552934        0.05788296393668
H            3.50325602327491        1.50171000620331        1.16348829543588
H            4.36176709278357        0.25604688202522        0.24910839184994
H            3.75773407478855        1.67808757573139       -0.61761091227700
H            3.44907937594163       -1.62483350007872       -0.53441139054217
H           -2.02348288009764        3.09586729997523        0.04492234940654
H           -3.01317563183231        2.07643740537799       -1.01896097317074
H           -3.20405843546995        1.95772380054196        0.71847924354155
H           -0.94841823822555       -3.00389485321198        0.99864948897324
H           -0.89921862294413       -3.13772412494199       -0.78566954285848
H           -2.40330767242832       -2.63469071069998        0.02951805280570
H            1.23810589230917       -2.81374551302007       -0.19608945224584
25