      -----------------------------------------------------------      
     |                   =====================                   |     
     |                           x T B                           |     
     |                   =====================                   |     
     |                         S. Grimme                         |     
     |          Mulliken Center for Theoretical Chemistry        |     
     |                    University of Bonn                     |     
      -----------------------------------------------------------      

   * xtb version 6.6.1 (8d0f1dd) compiled by 'conda@1efc2f54142f' on 2023-08-01

   xtb is free software: you can redistribute it and/or modify it under
   the terms of the GNU Lesser General Public License as published by
   the Free Software Foundation, either version 3 of the License, or
   (at your option) any later version.
   
   xtb is distributed in the hope that it will be useful,
   but WITHOUT ANY WARRANTY; without even the implied warranty of
   MERCHANTABILITY or FITNESS FOR A PARTICULAR PURPOSE.  See the
   GNU Lesser General Public License for more details.
   
   Cite this work as:
   * C. Bannwarth, E. Caldeweyher, S. Ehlert, A. Hansen, P. Pracht,
     J. Seibert, S. Spicher, S. Grimme, WIREs Comput. Mol. Sci., 2020, 11,
     e01493. DOI: 10.1002/wcms.1493
   
   for GFN2-xTB:
   * C. Bannwarth, S. Ehlert and S. Grimme., J. Chem. Theory Comput., 2019,
     15, 1652-1671. DOI: 10.1021/acs.jctc.8b01176
   for GFN1-xTB:
   * S. Grimme, C. Bannwarth, P. Shushkov, J. Chem. Theory Comput., 2017,
     13, 1989-2009. DOI: 10.1021/acs.jctc.7b00118
   for GFN0-xTB:
   * P. Pracht, E. Caldeweyher, S. Ehlert, S. Grimme, ChemRxiv, 2019, preprint.
     DOI: 10.26434/chemrxiv.8326202.v1
   for GFN-FF:
   * S. Spicher and S. Grimme, Angew. Chem. Int. Ed., 2020, 59, 15665-15673.
     DOI: 10.1002/anie.202004239
   
   for ALPB and GBSA implicit solvation:
   * S. Ehlert, M. Stahn, S. Spicher, S. Grimme, J. Chem. Theory Comput.,
     2021, 17, 4250-4261. DOI: 10.1021/acs.jctc.1c00471
   
   for DFT-D4:
   * E. Caldeweyher, C. Bannwarth and S. Grimme, J. Chem. Phys., 2017,
     147, 034112. DOI: 10.1063/1.4993215
   * E. Caldeweyher, S. Ehlert, A. Hansen, H. Neugebauer, S. Spicher,
     C. Bannwarth and S. Grimme, J. Chem. Phys., 2019, 150, 154122.
     DOI: 10.1063/1.5090222
   * E. Caldeweyher, J.-M. Mewes, S. Ehlert and S. Grimme, Phys. Chem. Chem. Phys.
     2020, 22, 8499-8512. DOI: 10.1039/D0CP00502A
   
   for sTDA-xTB:
   * S. Grimme and C. Bannwarth, J. Chem. Phys., 2016, 145, 054103.
     DOI: 10.1063/1.4959605
   
   in the mass-spec context:
   * V. Asgeirsson, C. Bauer and S. Grimme, Chem. Sci., 2017, 8, 4879.
     DOI: 10.1039/c7sc00601b
   * J. Koopman and S. Grimme, ACS Omega 2019, 4, 12, 15120-15133.
     DOI: 10.1021/acsomega.9b02011
   
   for metadynamics refer to:
   * S. Grimme, J. Chem. Theory Comput., 2019, 155, 2847-2862
     DOI: 10.1021/acs.jctc.9b00143
   
   for SPH calculations refer to:
   * S. Spicher and S. Grimme, J. Chem. Theory Comput., 2021, 17, 1701-1714
     DOI: 10.1021/acs.jctc.0c01306
   
   with help from (in alphabetical order)
   P. Atkinson, C. Bannwarth, F. Bohle, G. Brandenburg, E. Caldeweyher
   M. Checinski, S. Dohm, S. Ehlert, S. Ehrlich, I. Gerasimov, C. Hölzer
   A. Katbashev, J. Koopman, C. Lavigne, S. Lehtola, F. März, M. Müller,
   F. Musil, H. Neugebauer, J. Pisarek, C. Plett, P. Pracht, F. Pultar,
   J. Seibert, P. Shushkov, S. Spicher, M. Stahn, M. Steiner, T. Strunk,
   J. Stückrath, T. Rose, and J. Unsleber
   
 * started run on 2024/06/05 at 19:59:12.221     

           -------------------------------------------------
          |                Calculation Setup                |
           -------------------------------------------------

          program call               : xtb struc.xyz --opt loose --input .xc1 --gfn2
          hostname                   : n-62-31-11
          coordinate file            : struc.xyz
          omp threads                :                     1

   ID    Z sym.   atoms
    1    6 C      1, 3, 5-7, 10, 11, 14
    2    7 N      2, 4, 9, 13
    3    8 O      8, 12
    4    1 H      15-25
constraining bond 6 9 to    4.9200000 Å, actual value:    2.3455329 Å

           -------------------------------------------------
          |                 G F N 2 - x T B                 |
           -------------------------------------------------

        Reference                      10.1021/acs.jctc.8b01176
      * Hamiltonian:
        H0-scaling (s, p, d)           1.850000    2.230000    2.230000
        zeta-weighting                 0.500000
      * Dispersion:
        s8                             2.700000
        a1                             0.520000
        a2                             5.000000
        s9                             5.000000
      * Repulsion:
        kExp                           1.500000    1.000000
        rExp                           1.000000
      * Coulomb:
        alpha                          2.000000
        third order                    shell-resolved
        anisotropic                    true
        a3                             3.000000
        a5                             4.000000
        cn-shift                       1.200000
        cn-exp                         4.000000
        max-rad                        5.000000


          ...................................................
          :                      SETUP                      :
          :.................................................:
          :  # basis functions                  67          :
          :  # atomic orbitals                  67          :
          :  # shells                           39          :
          :  # electrons                        74          :
          :  max. iterations                   250          :
          :  Hamiltonian                  GFN2-xTB          :
          :  restarted?                      false          :
          :  GBSA solvation                  false          :
          :  PC potential                    false          :
          :  electronic temp.         5000.0000000     K    :
          :  accuracy                    1.0000000          :
          :  -> integral cutoff          0.2500000E+02      :
          :  -> integral neglect         0.1000000E-07      :
          :  -> SCF convergence          0.1000000E-05 Eh   :
          :  -> wf. convergence          0.1000000E-03 e    :
          :  Broyden damping             0.4000000          :
          ...................................................

 iter      E             dE          RMSdq      gap      omega  full diag
   1    -42.5894031 -0.425894E+02  0.445E+00    3.52       0.0  T
   2    -42.7683054 -0.178902E+00  0.251E+00    3.36       1.0  T
   3    -42.7759211 -0.761567E-02  0.147E+00    3.35       1.0  T
   4    -42.7728404  0.308066E-02  0.553E-01    3.33       1.0  T
   5    -42.7789548 -0.611444E-02  0.112E-01    3.35       1.0  T
   6    -42.7790473 -0.924914E-04  0.614E-02    3.33       1.0  T
   7    -42.7790721 -0.247928E-04  0.258E-02    3.34       1.0  T
   8    -42.7790772 -0.508996E-05  0.938E-03    3.34       2.1  T
   9    -42.7790779 -0.669422E-06  0.448E-03    3.34       4.5  T
  10    -42.7790780 -0.821510E-07  0.115E-03    3.34      17.4  T
  11    -42.7790780 -0.322663E-08  0.553E-04    3.34      36.2  T
  12    -42.7790780 -0.287051E-08  0.180E-04    3.34     111.1  T

   *** convergence criteria satisfied after 12 iterations ***

         #    Occupation            Energy/Eh            Energy/eV
      -------------------------------------------------------------
         1        2.0000           -0.9185990             -24.9964
       ...           ...                  ...                  ...
        31        1.9996           -0.6230278             -16.9534
        32        1.9995           -0.6194601             -16.8564
        33        1.9979           -0.5974976             -16.2587
        34        1.9932           -0.5789629             -15.7544
        35        1.9817           -0.5631863             -15.3251
        36        1.9779           -0.5602245             -15.2445
        37        1.9748           -0.5581234             -15.1873 (HOMO)
        38        0.0652           -0.4353579             -11.8467 (LUMO)
        39        0.0099           -0.4050467             -11.0219
        40        0.0013           -0.3732218             -10.1559
        41        0.0000           -0.2886859              -7.8555
        42                         -0.2065804              -5.6213
       ...                                ...                  ...
        67                          0.5625656              15.3082
      -------------------------------------------------------------
                  HL-Gap            0.1227656 Eh            3.3406 eV
             Fermi-level           -0.4890455 Eh          -13.3076 eV

 SCC (total)                   0 d,  0 h,  0 min,  0.038 sec
 SCC setup                      ...        0 min,  0.000 sec (  1.226%)
 Dispersion                     ...        0 min,  0.001 sec (  1.397%)
 classical contributions        ...        0 min,  0.000 sec (  0.398%)
 integral evaluation            ...        0 min,  0.006 sec ( 16.679%)
 iterations                     ...        0 min,  0.017 sec ( 43.839%)
 molecular gradient             ...        0 min,  0.014 sec ( 35.986%)
 printout                       ...        0 min,  0.000 sec (  0.426%)

         :::::::::::::::::::::::::::::::::::::::::::::::::::::
         ::                     SUMMARY                     ::
         :::::::::::::::::::::::::::::::::::::::::::::::::::::
         :: total energy             -18.579271602037 Eh    ::
         :: gradient norm             13.759832588530 Eh/a0 ::
         :: HOMO-LUMO gap              3.340621582928 eV    ::
         ::.................................................::
         :: SCC energy               -42.779077977399 Eh    ::
         :: -> isotropic ES            0.141123876439 Eh    ::
         :: -> anisotropic ES         -0.005230418907 Eh    ::
         :: -> anisotropic XC          0.011966818540 Eh    ::
         :: -> dispersion             -0.022657731803 Eh    ::
         :: repulsion energy           0.531105277918 Eh    ::
         :: add. restraining          23.668586938435 Eh    ::
         :: total charge               1.000000000002 e     ::
         :::::::::::::::::::::::::::::::::::::::::::::::::::::

      ----------------------------------------------------------- 
     |                   =====================                   |
     |                        A N C O P T                        |
     |                   =====================                   |
     |               Approximate Normal Coordinate               |
     |                Rational Function Optimizer                |
      ----------------------------------------------------------- 

          ...................................................
          :                      SETUP                      :
          :.................................................:
          :   optimization level             loose          :
          :   max. optcycles                   200          :
          :   ANC micro-cycles                  20          :
          :   degrees of freedom                69          :
          :.................................................:
          :   RF solver                   davidson          :
          :   write xtbopt.log                true          :
          :   linear?                        false          :
          :   energy convergence         0.5000000E-04 Eh   :
          :   grad. convergence          0.4000000E-02 Eh/α :
          :   maxmium RF displ.          1.0000000          :
          :   Hlow (freq-cutoff)         0.1000000E-01      :
          :   Hmax (freq-cutoff)         5.0000000          :
          :   S6 in model hess.         20.0000000          :
          ...................................................

generating ANC from model Hessian ...
Using Lindh-Hessian (1995)
 Shifting diagonal of input Hessian by    4.1031306771176101     
 Lowest  eigenvalues of input Hessian
    0.010000    0.837523    0.000000    0.000000    0.000000    0.000000
    0.000000    0.000000    4.105892    4.107409    4.108982    4.112987
    4.113135    4.114709    4.115234    4.117375    4.121760    4.131670
 Highest eigenvalues
    6.200466    6.327227    6.363749    6.506762    6.630498    9.435178


........................................................................
.............................. CYCLE    1 ..............................
........................................................................

 iter      E             dE          RMSdq      gap      omega  full diag
   1    -42.7790780 -0.427791E+02  0.626E-05    3.34       0.0  T
   2    -42.7790780 -0.124416E-10  0.329E-05    3.34     607.4  T
   3    -42.7790780  0.127898E-12  0.193E-05    3.34    1034.2  T
     SCC iter.                  ...        0 min,  0.005 sec
     gradient                   ...        0 min,  0.013 sec
 * total energy  :   -18.5792716 Eh     change       -0.6650680E-10 Eh
   gradient norm :    13.7598327 Eh/α   predicted     0.0000000E+00 (-100.00%)
   displ. norm   :     0.8347787 α      lambda       -0.1148615E+02
   maximum displ.:     0.8245944 α      in ANC's #50, #48, #61, ...

........................................................................
.............................. CYCLE    2 ..............................
........................................................................

 iter      E             dE          RMSdq      gap      omega  full diag
   1    -42.6162667 -0.426163E+02  0.203E+00    2.40       0.0  T
   2    -42.6427808 -0.265141E-01  0.121E+00    2.96       1.0  T
   3    -42.6553931 -0.126123E-01  0.651E-01    2.59       1.0  T
   4    -42.6559050 -0.511892E-03  0.252E-01    2.77       1.0  T
   5    -42.6571853 -0.128031E-02  0.600E-02    2.70       1.0  T
   6    -42.6572520 -0.666609E-04  0.298E-02    2.71       1.0  T
   7    -42.6572567 -0.473723E-05  0.151E-02    2.71       1.3  T
   8    -42.6572584 -0.169828E-05  0.774E-03    2.70       2.6  T
   9    -42.6572592 -0.816643E-06  0.175E-03    2.71      11.4  T
  10    -42.6572592 -0.139373E-07  0.108E-03    2.71      18.5  T
  11    -42.6572592 -0.603012E-08  0.350E-04    2.71      57.1  T
  12    -42.6572592 -0.152119E-08  0.127E-04    2.71     157.2  T
     SCC iter.                  ...        0 min,  0.016 sec
     gradient                   ...        0 min,  0.013 sec
 * total energy  :   -28.3851493 Eh     change       -0.9805878E+01 Eh
   gradient norm :     9.6451013 Eh/α   predicted    -0.9745363E+01 (  -0.62%)
   displ. norm   :     0.7833042 α      lambda       -0.7528824E+01
   maximum displ.:     0.7553566 α      in ANC's #50, #48, #61, ...

........................................................................
.............................. CYCLE    3 ..............................
........................................................................

 iter      E             dE          RMSdq      gap      omega  full diag
   1    -42.1583973 -0.421584E+02  0.283E+00    0.99       0.0  T
   2    -42.0632255  0.951719E-01  0.318E+00    2.65       1.0  T
   3    -42.3656246 -0.302399E+00  0.987E-01    1.90       1.0  T
   4    -42.3648062  0.818404E-03  0.703E-01    1.69       1.0  T
   5    -42.3646392  0.166986E-03  0.367E-01    1.91       1.0  T
   6    -42.3685533 -0.391410E-02  0.193E-01    1.67       1.0  T
   7    -42.3697907 -0.123742E-02  0.631E-02    1.80       1.0  T
   8    -42.3699066 -0.115851E-03  0.214E-02    1.77       1.0  T
   9    -42.3699070 -0.431513E-06  0.879E-03    1.77       2.3  T
  10    -42.3699076 -0.613176E-06  0.268E-03    1.77       7.5  T
  11    -42.3699077 -0.778797E-07  0.161E-03    1.77      12.4  T
  12    -42.3699077 -0.359615E-07  0.677E-04    1.77      29.6  T
  13    -42.3699077 -0.971361E-08  0.172E-04    1.77     116.3  T
     SCC iter.                  ...        0 min,  0.017 sec
     gradient                   ...        0 min,  0.013 sec
 * total energy  :   -34.2734242 Eh     change       -0.5888275E+01 Eh
   gradient norm :     5.6817892 Eh/α   predicted    -0.6083311E+01 (   3.31%)
   displ. norm   :     0.7714711 α      lambda       -0.4343917E+01
   maximum displ.:     0.5568032 α      in ANC's #50, #61, #64, ...

........................................................................
.............................. CYCLE    4 ..............................
........................................................................

 iter      E             dE          RMSdq      gap      omega  full diag
   1    -42.0067280 -0.420067E+02  0.185E+00    0.58       0.0  T
   2    -41.8450356  0.161692E+00  0.274E+00    1.71       1.0  T
   3    -42.0680524 -0.223017E+00  0.103E+00    0.59       1.0  T
   4    -42.0386252  0.294272E-01  0.100E+00    1.20       1.0  T
   5    -42.0832624 -0.446373E-01  0.337E-01    0.77       1.0  T
   6    -42.0849996 -0.173713E-02  0.126E-01    0.78       1.0  T
   7    -42.0853525 -0.352944E-03  0.705E-02    0.81       1.0  T
   8    -42.0854371 -0.846278E-04  0.380E-02    0.81       1.0  T
   9    -42.0854530 -0.158151E-04  0.221E-02    0.81       1.0  T
  10    -42.0854682 -0.152827E-04  0.541E-03    0.81       3.7  T
  11    -42.0854683 -0.631713E-07  0.292E-03    0.81       6.8  T
  12    -42.0854685 -0.178806E-06  0.111E-03    0.81      18.0  T
  13    -42.0854685 -0.179154E-07  0.470E-04    0.81      42.5  T
  14    -42.0854685 -0.298387E-08  0.161E-04    0.81     124.2  T
     SCC iter.                  ...        0 min,  0.018 sec
     gradient                   ...        0 min,  0.014 sec
 * total energy  :   -37.8768569 Eh     change       -0.3603433E+01 Eh
   gradient norm :     3.9095025 Eh/α   predicted    -0.3464664E+01 (  -3.85%)
   displ. norm   :     0.7979656 α      lambda       -0.3082016E+01
   maximum displ.:     0.5488948 α      in ANC's #50, #61, #49, ...

........................................................................
.............................. CYCLE    5 ..............................
........................................................................

 iter      E             dE          RMSdq      gap      omega  full diag
   1    -41.8309221 -0.418309E+02  0.248E+00    0.83       0.0  T
   2    -41.0093879  0.821534E+00  0.421E+00    0.52       1.0  T
   3    -41.7072545 -0.697867E+00  0.209E+00    1.34       1.0  T
   4    -41.9213511 -0.214097E+00  0.870E-01    0.37       1.0  T
   5    -41.9250681 -0.371699E-02  0.472E-01    0.40       1.0  T
   6    -41.9209393  0.412876E-02  0.526E-01    0.32       1.0  T
   7    -41.9302278 -0.928854E-02  0.214E-01    0.37       1.0  T
   8    -41.9318678 -0.164000E-02  0.797E-02    0.40       1.0  T
   9    -41.9320384 -0.170566E-03  0.274E-02    0.41       1.0  T
  10    -41.9320480 -0.955466E-05  0.138E-02    0.41       1.4  T
  11    -41.9320533 -0.530183E-05  0.377E-03    0.42       5.3  T
  12    -41.9320537 -0.429052E-06  0.132E-03    0.42      15.2  T
  13    -41.9320537 -0.347164E-07  0.489E-04    0.42      40.9  T
  14    -41.9320537 -0.259352E-08  0.213E-04    0.42      94.0  T
     SCC iter.                  ...        0 min,  0.018 sec
     gradient                   ...        0 min,  0.013 sec
 * total energy  :   -40.1696654 Eh     change       -0.2292809E+01 Eh
   gradient norm :     2.0808648 Eh/α   predicted    -0.2522243E+01 (  10.01%)
   displ. norm   :     0.6283186 α      lambda       -0.1285477E+01
   maximum displ.:     0.4057760 α      in ANC's #50, #49, #64, ...

........................................................................
.............................. CYCLE    6 ..............................
........................................................................

 iter      E             dE          RMSdq      gap      omega  full diag
   1    -41.4968924 -0.414969E+02  0.306E+00    0.15       0.0  T
   2    -39.9157913  0.158110E+01  0.617E+00    0.54       1.0  T
   3    -41.7736504 -0.185786E+01  0.143E+00    0.46       1.0  T
   4    -41.8339532 -0.603028E-01  0.820E-01    0.21       1.0  T
   5    -41.8386788 -0.472557E-02  0.585E-01    0.18       1.0  T
   6    -41.8457570 -0.707816E-02  0.286E-01    0.19       1.0  T
   7    -41.8484898 -0.273282E-02  0.114E-01    0.17       1.0  T
   8    -41.8486750 -0.185198E-03  0.691E-02    0.16       1.0  T
   9    -41.8488568 -0.181831E-03  0.288E-02    0.16       1.0  T
  10    -41.8488700 -0.132055E-04  0.190E-02    0.16       1.1  T
  11    -41.8488872 -0.172063E-04  0.540E-03    0.16       3.7  T
  12    -41.8488872  0.494142E-07  0.312E-03    0.16       6.4  T
  13    -41.8488874 -0.255863E-06  0.193E-03    0.16      10.4  T
  14    -41.8488876 -0.182327E-06  0.243E-04    0.16      82.4  T
  15    -41.8488876 -0.113426E-08  0.110E-04    0.16     181.6  T
     SCC iter.                  ...        0 min,  0.020 sec
     gradient                   ...        0 min,  0.013 sec
 * total energy  :   -40.9510746 Eh     change       -0.7814092E+00 Eh
   gradient norm :     0.8261566 Eh/α   predicted    -0.8964822E+00 (  14.73%)
   displ. norm   :     0.3545041 α      lambda       -0.2440777E+00
   maximum displ.:     0.1684734 α      in ANC's #1, #50, #2, ...

........................................................................
.............................. CYCLE    7 ..............................
........................................................................

 iter      E             dE          RMSdq      gap      omega  full diag
   1    -41.8303841 -0.418304E+02  0.119E+00    0.09       0.0  T
   2    -41.7262942  0.104090E+00  0.192E+00    0.19       1.0  T
   3    -41.8319997 -0.105705E+00  0.858E-01    0.27       1.0  T
   4    -41.8253535  0.664615E-02  0.901E-01    0.39       1.0  T
   5    -41.8674343 -0.420807E-01  0.285E-01    0.07       1.0  T
   6    -41.8685905 -0.115624E-02  0.130E-01    0.08       1.0  T
   7    -41.8686327 -0.422131E-04  0.935E-02    0.07       1.0  T
   8    -41.8690804 -0.447669E-03  0.292E-02    0.08       1.0  T
   9    -41.8691005 -0.201288E-04  0.154E-02    0.08       1.3  T
  10    -41.8690999  0.586449E-06  0.104E-02    0.08       1.9  T
  11    -41.8691043 -0.439005E-05  0.280E-03    0.08       7.1  T
  12    -41.8691046 -0.259460E-06  0.995E-04    0.08      20.1  T
  13    -41.8691046 -0.811345E-08  0.355E-04    0.08      56.4  T
     SCC iter.                  ...        0 min,  0.017 sec
     gradient                   ...        0 min,  0.013 sec
 * total energy  :   -41.1311943 Eh     change       -0.1801197E+00 Eh
   gradient norm :     0.6134297 Eh/α   predicted    -0.1373761E+00 ( -23.73%)
   displ. norm   :     0.6429636 α      lambda       -0.2049383E+00
   maximum displ.:     0.5549790 α      in ANC's #1, #40, #49, ...

........................................................................
.............................. CYCLE    8 ..............................
........................................................................

 iter      E             dE          RMSdq      gap      omega  full diag
   1    -41.8645412 -0.418645E+02  0.159E+00    0.40       0.0  T
   2    -41.7693193  0.952219E-01  0.194E+00    0.13       1.0  T
   3    -41.8421574 -0.728381E-01  0.110E+00    0.68       1.0  T
   4    -41.8399173  0.224003E-02  0.114E+00    0.28       1.0  T
   5    -41.9139479 -0.740306E-01  0.419E-01    0.31       1.0  T
   6    -41.9175811 -0.363320E-02  0.100E-01    0.24       1.0  T
   7    -41.9176329 -0.517993E-04  0.675E-02    0.28       1.0  T
   8    -41.9177956 -0.162690E-03  0.258E-02    0.25       1.0  T
   9    -41.9177965 -0.930535E-06  0.170E-02    0.26       1.2  T
  10    -41.9178080 -0.114782E-04  0.385E-03    0.25       5.2  T
  11    -41.9178082 -0.193807E-06  0.203E-03    0.25       9.8  T
  12    -41.9178083 -0.752406E-07  0.747E-04    0.25      26.8  T
  13    -41.9178083 -0.926138E-08  0.329E-04    0.25      60.7  T
     SCC iter.                  ...        0 min,  0.017 sec
     gradient                   ...        0 min,  0.013 sec
 * total energy  :   -41.2929046 Eh     change       -0.1617103E+00 Eh
   gradient norm :     0.6491574 Eh/α   predicted    -0.1448304E+00 ( -10.44%)
   displ. norm   :     0.4966852 α      lambda       -0.1519217E+00
   maximum displ.:     0.4138983 α      in ANC's #1, #40, #18, ...

........................................................................
.............................. CYCLE    9 ..............................
........................................................................

 iter      E             dE          RMSdq      gap      omega  full diag
   1    -41.9079292 -0.419079E+02  0.132E+00    0.64       0.0  T
   2    -41.7693385  0.138591E+00  0.188E+00    0.39       1.0  T
   3    -41.8617052 -0.923668E-01  0.115E+00    0.98       1.0  T
   4    -41.9343598 -0.726546E-01  0.549E-01    0.18       1.0  T
   5    -41.9451840 -0.108241E-01  0.316E-01    0.40       1.0  T
   6    -41.9479382 -0.275423E-02  0.647E-02    0.40       1.0  T
   7    -41.9479781 -0.399428E-04  0.398E-02    0.41       1.0  T
   8    -41.9479998 -0.216060E-04  0.159E-02    0.40       1.3  T
   9    -41.9479954  0.439899E-05  0.129E-02    0.41       1.5  T
  10    -41.9480032 -0.786906E-05  0.201E-03    0.40      10.0  T
  11    -41.9480032 -0.170633E-07  0.119E-03    0.40      16.8  T
  12    -41.9480033 -0.175412E-07  0.542E-04    0.40      36.9  T
  13    -41.9480033 -0.756771E-08  0.197E-04    0.40     101.8  T
     SCC iter.                  ...        0 min,  0.017 sec
     gradient                   ...        0 min,  0.013 sec
 * total energy  :   -41.4022748 Eh     change       -0.1093702E+00 Eh
   gradient norm :     0.5705054 Eh/α   predicted    -0.9470023E-01 ( -13.41%)
   displ. norm   :     0.6152088 α      lambda       -0.2020880E+00
   maximum displ.:     0.2860268 α      in ANC's #1, #50, #18, ...

........................................................................
.............................. CYCLE   10 ..............................
........................................................................

 iter      E             dE          RMSdq      gap      omega  full diag
   1    -41.9650165 -0.419650E+02  0.917E-01    0.21       0.0  T
   2    -41.9603605  0.465597E-02  0.820E-01    0.03       1.0  T
   3    -41.9421038  0.182567E-01  0.732E-01    0.53       1.0  T
   4    -41.9283538  0.137500E-01  0.931E-01    0.28       1.0  T
   5    -41.9734322 -0.450784E-01  0.164E-01    0.14       1.0  T
   6    -41.9743478 -0.915622E-03  0.509E-02    0.17       1.0  T
   7    -41.9744192 -0.714133E-04  0.293E-02    0.19       1.0  T
   8    -41.9744111  0.816386E-05  0.235E-02    0.19       1.0  T
   9    -41.9744344 -0.233143E-04  0.633E-03    0.18       3.2  T
  10    -41.9744359 -0.148692E-05  0.241E-03    0.18       8.3  T
  11    -41.9744360 -0.668441E-07  0.146E-03    0.18      13.7  T
  12    -41.9744360 -0.698005E-07  0.504E-04    0.18      39.7  T
  13    -41.9744360 -0.603681E-08  0.167E-04    0.18     119.9  T
     SCC iter.                  ...        0 min,  0.017 sec
     gradient                   ...        0 min,  0.013 sec
 * total energy  :   -41.4210502 Eh     change       -0.1877534E-01 Eh
   gradient norm :     0.6308428 Eh/α   predicted    -0.1392876E+00 ( 641.86%)
   displ. norm   :     0.5885724 α      lambda       -0.1207987E+00
   maximum displ.:     0.5821849 α      in ANC's #1, #50, #49, ...

........................................................................
.............................. CYCLE   11 ..............................
........................................................................

 iter      E             dE          RMSdq      gap      omega  full diag
   1    -41.9322953 -0.419323E+02  0.131E+00    0.47       0.0  T
   2    -41.8545144  0.777810E-01  0.158E+00    0.22       1.0  T
   3    -41.9002485 -0.457341E-01  0.106E+00    0.86       1.0  T
   4    -41.9509457 -0.506972E-01  0.559E-01    0.12       1.0  T
   5    -41.9611958 -0.102501E-01  0.233E-01    0.38       1.0  T
   6    -41.9625439 -0.134808E-02  0.487E-02    0.34       1.0  T
   7    -41.9625662 -0.223349E-04  0.376E-02    0.33       1.0  T
   8    -41.9625875 -0.213479E-04  0.126E-02    0.33       1.6  T
   9    -41.9625897 -0.218650E-05  0.511E-03    0.33       3.9  T
  10    -41.9625902 -0.452627E-06  0.219E-03    0.33       9.1  T
  11    -41.9625901  0.421479E-07  0.179E-03    0.33      11.2  T
  12    -41.9625902 -0.899693E-07  0.517E-04    0.33      38.7  T
  13    -41.9625902 -0.567105E-08  0.206E-04    0.33      97.0  T
     SCC iter.                  ...        0 min,  0.017 sec
     gradient                   ...        0 min,  0.013 sec
 * total energy  :   -41.5053326 Eh     change       -0.8428244E-01 Eh
   gradient norm :     0.2418691 Eh/α   predicted    -0.8132335E-01 (  -3.51%)
   displ. norm   :     0.3798915 α      lambda       -0.2935718E-01
   maximum displ.:     0.3652163 α      in ANC's #1, #49, #69, ...

........................................................................
.............................. CYCLE   12 ..............................
........................................................................

 iter      E             dE          RMSdq      gap      omega  full diag
   1    -41.9422389 -0.419422E+02  0.804E-01    0.46       0.0  T
   2    -41.8821057  0.601332E-01  0.122E+00    0.21       1.0  T
   3    -41.9292731 -0.471674E-01  0.675E-01    0.66       1.0  T
   4    -41.9474551 -0.181820E-01  0.450E-01    0.15       1.0  T
   5    -41.9547424 -0.728731E-02  0.116E-01    0.33       1.0  T
   6    -41.9550195 -0.277130E-03  0.396E-02    0.32       1.0  T
   7    -41.9550422 -0.226985E-04  0.258E-02    0.32       1.0  T
   8    -41.9550533 -0.110377E-04  0.105E-02    0.32       1.9  T
   9    -41.9550536 -0.302940E-06  0.717E-03    0.32       2.8  T
  10    -41.9550549 -0.131864E-05  0.221E-03    0.32       9.0  T
  11    -41.9550549 -0.201684E-07  0.949E-04    0.32      21.1  T
  12    -41.9550549 -0.115510E-07  0.502E-04    0.32      39.8  T
     SCC iter.                  ...        0 min,  0.017 sec
     gradient                   ...        0 min,  0.013 sec
 * total energy  :   -41.5207446 Eh     change       -0.1541198E-01 Eh
   gradient norm :     0.2900241 Eh/α   predicted    -0.1679831E-01 (   9.00%)
   displ. norm   :     0.1230985 α      lambda       -0.2709408E-01
   maximum displ.:     0.0540388 α      in ANC's #49, #69, #48, ...

........................................................................
.............................. CYCLE   13 ..............................
........................................................................

 iter      E             dE          RMSdq      gap      omega  full diag
   1    -41.9758766 -0.419759E+02  0.251E-01    0.31       0.0  T
   2    -41.9754369  0.439761E-03  0.227E-01    0.34       1.0  T
   3    -41.9759207 -0.483829E-03  0.134E-01    0.27       1.0  T
   4    -41.9741920  0.172867E-02  0.199E-01    0.42       1.0  T
   5    -41.9765499 -0.235792E-02  0.329E-02    0.31       1.0  T
   6    -41.9765679 -0.180135E-04  0.174E-02    0.31       1.1  T
   7    -41.9765773 -0.938667E-05  0.563E-03    0.31       3.6  T
   8    -41.9765778 -0.522479E-06  0.294E-03    0.31       6.8  T
   9    -41.9765780 -0.180497E-06  0.110E-03    0.31      18.1  T
  10    -41.9765780 -0.196509E-07  0.475E-04    0.31      42.1  T
  11    -41.9765781 -0.522655E-08  0.251E-04    0.31      79.6  T
     SCC iter.                  ...        0 min,  0.015 sec
     gradient                   ...        0 min,  0.013 sec
 * total energy  :   -41.5459336 Eh     change       -0.2518903E-01 Eh
   gradient norm :     0.2559645 Eh/α   predicted    -0.1375332E-01 ( -45.40%)
   displ. norm   :     0.5556871 α      lambda       -0.1132821E+00
   maximum displ.:     0.2468448 α      in ANC's #49, #69, #48, ...

........................................................................
.............................. CYCLE   14 ..............................
........................................................................

 iter      E             dE          RMSdq      gap      omega  full diag
   1    -42.0552961 -0.420553E+02  0.109E+00    0.39       0.0  T
   2    -42.0463750  0.892109E-02  0.760E-01    0.07       1.0  T
   3    -42.0206200  0.257551E-01  0.946E-01    0.72       1.0  T
   4    -42.0627841 -0.421642E-01  0.425E-01    0.17       1.0  T
   5    -42.0652132 -0.242911E-02  0.201E-01    0.32       1.0  T
   6    -42.0668482 -0.163499E-02  0.689E-02    0.25       1.0  T
   7    -42.0670008 -0.152624E-03  0.172E-02    0.25       1.2  T
   8    -42.0670005  0.305154E-06  0.881E-03    0.25       2.3  T
   9    -42.0670025 -0.200942E-05  0.309E-03    0.25       6.5  T
  10    -42.0670027 -0.136242E-06  0.158E-03    0.25      12.7  T
  11    -42.0670027 -0.190626E-07  0.894E-04    0.25      22.4  T
  12    -42.0670027 -0.154882E-07  0.253E-04    0.25      79.1  T
     SCC iter.                  ...        0 min,  0.016 sec
     gradient                   ...        0 min,  0.013 sec
 * total energy  :   -41.6193257 Eh     change       -0.7339205E-01 Eh
   gradient norm :     0.2161168 Eh/α   predicted    -0.7413108E-01 (   1.01%)
   displ. norm   :     0.3879079 α      lambda       -0.3087640E-01
   maximum displ.:     0.2407990 α      in ANC's #1, #49, #2, ...

........................................................................
.............................. CYCLE   15 ..............................
........................................................................

 iter      E             dE          RMSdq      gap      omega  full diag
   1    -42.0693144 -0.420693E+02  0.755E-01    0.42       0.0  T
   2    -41.9684288  0.100886E+00  0.132E+00    0.49       1.0  T
   3    -42.0592283 -0.907995E-01  0.651E-01    0.43       1.0  T
   4    -42.0791258 -0.198975E-01  0.321E-01    0.21       1.0  T
   5    -42.0806688 -0.154307E-02  0.924E-02    0.18       1.0  T
   6    -42.0808632 -0.194359E-03  0.427E-02    0.20       1.0  T
   7    -42.0809062 -0.430403E-04  0.201E-02    0.20       1.0  T
   8    -42.0809150 -0.879115E-05  0.738E-03    0.20       2.7  T
   9    -42.0809159 -0.870683E-06  0.328E-03    0.20       6.1  T
  10    -42.0809161 -0.177949E-06  0.127E-03    0.20      15.8  T
  11    -42.0809161 -0.152509E-08  0.736E-04    0.20      27.2  T
  12    -42.0809161 -0.172248E-07  0.232E-04    0.20      86.2  T
     SCC iter.                  ...        0 min,  0.016 sec
     gradient                   ...        0 min,  0.013 sec
 * total energy  :   -41.6399387 Eh     change       -0.2061309E-01 Eh
   gradient norm :     0.2256556 Eh/α   predicted    -0.1776138E-01 ( -13.83%)
   displ. norm   :     0.2076172 α      lambda       -0.1994033E-01
   maximum displ.:     0.0774388 α      in ANC's #2, #1, #49, ...

........................................................................
.............................. CYCLE   16 ..............................
........................................................................

 iter      E             dE          RMSdq      gap      omega  full diag
   1    -42.0866183 -0.420866E+02  0.451E-01    0.30       0.0  T
   2    -42.0439280  0.426904E-01  0.895E-01    0.17       1.0  T
   3    -42.0858336 -0.419057E-01  0.342E-01    0.39       1.0  T
   4    -42.0917324 -0.589880E-02  0.145E-01    0.17       1.0  T
   5    -42.0922265 -0.494010E-03  0.584E-02    0.23       1.0  T
   6    -42.0922817 -0.552597E-04  0.283E-02    0.21       1.0  T
   7    -42.0923031 -0.213643E-04  0.879E-03    0.21       2.3  T
   8    -42.0923037 -0.603167E-06  0.410E-03    0.21       4.9  T
   9    -42.0923041 -0.405490E-06  0.188E-03    0.21      10.7  T
  10    -42.0923042 -0.657979E-07  0.773E-04    0.21      25.9  T
  11    -42.0923042 -0.751510E-08  0.399E-04    0.21      50.1  T
     SCC iter.                  ...        0 min,  0.015 sec
     gradient                   ...        0 min,  0.013 sec
 * total energy  :   -41.6547315 Eh     change       -0.1479275E-01 Eh
   gradient norm :     0.1754009 Eh/α   predicted    -0.1040010E-01 ( -29.69%)
   displ. norm   :     0.1757937 α      lambda       -0.1901075E-01
   maximum displ.:     0.0744113 α      in ANC's #2, #1, #18, ...

........................................................................
.............................. CYCLE   17 ..............................
........................................................................

 iter      E             dE          RMSdq      gap      omega  full diag
   1    -42.0928532 -0.420929E+02  0.491E-01    0.34       0.0  T
   2    -42.0423550  0.504982E-01  0.103E+00    0.14       1.0  T
   3    -42.0941287 -0.517737E-01  0.351E-01    0.45       1.0  T
   4    -42.1008931 -0.676439E-02  0.143E-01    0.21       1.0  T
   5    -42.1014236 -0.530449E-03  0.710E-02    0.26       1.0  T
   6    -42.1014764 -0.528138E-04  0.278E-02    0.25       1.0  T
   7    -42.1014956 -0.192006E-04  0.120E-02    0.25       1.7  T
   8    -42.1014988 -0.325705E-05  0.521E-03    0.25       3.8  T
   9    -42.1014993 -0.434662E-06  0.262E-03    0.25       7.6  T
  10    -42.1014994 -0.105336E-06  0.136E-03    0.25      14.7  T
  11    -42.1014994 -0.396235E-07  0.578E-04    0.25      34.6  T
  12    -42.1014994 -0.347016E-08  0.284E-04    0.25      70.5  T
     SCC iter.                  ...        0 min,  0.016 sec
     gradient                   ...        0 min,  0.013 sec
 * total energy  :   -41.6672121 Eh     change       -0.1248062E-01 Eh
   gradient norm :     0.1293189 Eh/α   predicted    -0.9799412E-02 ( -21.48%)
   displ. norm   :     0.1059863 α      lambda       -0.8397467E-02
   maximum displ.:     0.0476141 α      in ANC's #2, #1, #42, ...

........................................................................
.............................. CYCLE   18 ..............................
........................................................................

 iter      E             dE          RMSdq      gap      omega  full diag
   1    -42.1117107 -0.421117E+02  0.318E-01    0.36       0.0  T
   2    -42.0925004  0.192102E-01  0.634E-01    0.08       1.0  T
   3    -42.1116710 -0.191706E-01  0.251E-01    0.44       1.0  T
   4    -42.1152133 -0.354233E-02  0.733E-02    0.30       1.0  T
   5    -42.1151962  0.170912E-04  0.566E-02    0.33       1.0  T
   6    -42.1152746 -0.783501E-04  0.170E-02    0.31       1.2  T
   7    -42.1152840 -0.936278E-05  0.615E-03    0.31       3.3  T
   8    -42.1152848 -0.860169E-06  0.294E-03    0.31       6.8  T
   9    -42.1152849 -0.123929E-06  0.993E-04    0.31      20.2  T
  10    -42.1152849 -0.444371E-08  0.507E-04    0.31      39.4  T
     SCC iter.                  ...        0 min,  0.013 sec
     gradient                   ...        0 min,  0.013 sec
 * total energy  :   -41.6733484 Eh     change       -0.6136241E-02 Eh
   gradient norm :     0.1327862 Eh/α   predicted    -0.4245973E-02 ( -30.80%)
   displ. norm   :     0.1195362 α      lambda       -0.9076025E-02
   maximum displ.:     0.0428191 α      in ANC's #2, #40, #63, ...

........................................................................
.............................. CYCLE   19 ..............................
........................................................................

 iter      E             dE          RMSdq      gap      omega  full diag
   1    -42.1203548 -0.421204E+02  0.302E-01    0.47       0.0  T
   2    -42.0907359  0.296189E-01  0.708E-01    0.05       1.0  T
   3    -42.1216558 -0.309199E-01  0.193E-01    0.47       1.0  T
   4    -42.1235002 -0.184442E-02  0.863E-02    0.36       1.0  T
   5    -42.1236150 -0.114791E-03  0.427E-02    0.39       1.0  T
   6    -42.1236549 -0.399791E-04  0.131E-02    0.38       1.5  T
   7    -42.1236600 -0.510038E-05  0.398E-03    0.38       5.0  T
   8    -42.1236603 -0.231439E-06  0.216E-03    0.38       9.2  T
   9    -42.1236603 -0.135077E-07  0.111E-03    0.38      18.0  T
  10    -42.1236603 -0.341740E-07  0.429E-04    0.38      46.7  T
  11    -42.1236603 -0.200439E-08  0.210E-04    0.38      95.4  T
     SCC iter.                  ...        0 min,  0.015 sec
     gradient                   ...        0 min,  0.013 sec
 * total energy  :   -41.6795501 Eh     change       -0.6201787E-02 Eh
   gradient norm :     0.1233572 Eh/α   predicted    -0.4602899E-02 ( -25.78%)
   displ. norm   :     0.1027360 α      lambda       -0.6620126E-02
   maximum displ.:     0.0323647 α      in ANC's #40, #1, #44, ...

........................................................................
.............................. CYCLE   20 ..............................
........................................................................

 iter      E             dE          RMSdq      gap      omega  full diag
   1    -42.1318586 -0.421319E+02  0.255E-01    0.54       0.0  T
   2    -42.1129253  0.189334E-01  0.542E-01    0.16       1.0  T
   3    -42.1319326 -0.190074E-01  0.193E-01    0.52       1.0  T
   4    -42.1337480 -0.181534E-02  0.821E-02    0.47       1.0  T
   5    -42.1338331 -0.851397E-04  0.274E-02    0.45       1.0  T
   6    -42.1338524 -0.193070E-04  0.768E-03    0.45       2.6  T
   7    -42.1338534 -0.970389E-06  0.481E-03    0.45       4.2  T
   8    -42.1338536 -0.183909E-06  0.318E-03    0.45       6.3  T
   9    -42.1338538 -0.247854E-06  0.122E-03    0.45      16.4  T
  10    -42.1338539 -0.348656E-07  0.534E-04    0.45      37.4  T
  11    -42.1338539 -0.362441E-08  0.290E-04    0.45      68.9  T
     SCC iter.                  ...        0 min,  0.015 sec
     gradient                   ...        0 min,  0.013 sec
 * total energy  :   -41.6843626 Eh     change       -0.4812468E-02 Eh
   gradient norm :     0.1073521 Eh/α   predicted    -0.3345039E-02 ( -30.49%)
   displ. norm   :     0.1202241 α      lambda       -0.7179575E-02
   maximum displ.:     0.0350288 α      in ANC's #40, #69, #11, ...
 * RMSD in coord.:     0.8657638 α      energy gain  -0.2310509E+02 Eh

generating ANC from model Hessian ...
Using Lindh-Hessian (1995)
 Shifting diagonal of input Hessian by    1.1917392039294145E-002
 Lowest  eigenvalues of input Hessian
    0.010000    0.011672    0.000000    0.000000    0.000000    0.000000
    0.000000    0.000000    0.012335    0.012536    0.013400    0.013782
    0.013944    0.014672    0.016222    0.017458    0.018432    0.021723
 Highest eigenvalues
    1.879905    1.900383    1.925199    2.187239    2.237811    4.426027


........................................................................
.............................. CYCLE   21 ..............................
........................................................................

 iter      E             dE          RMSdq      gap      omega  full diag
   1    -42.1360524 -0.421361E+02  0.317E-01    0.66       0.0  T
   2    -42.1066311  0.294213E-01  0.699E-01    0.14       1.0  T
   3    -42.1363763 -0.297452E-01  0.271E-01    0.60       1.0  T
   4    -42.1398920 -0.351573E-02  0.782E-02    0.53       1.0  T
   5    -42.1398681  0.239184E-04  0.626E-02    0.52       1.0  T
   6    -42.1399526 -0.844940E-04  0.229E-02    0.51       1.0  T
   7    -42.1399690 -0.163653E-04  0.607E-03    0.51       3.3  T
   8    -42.1399699 -0.960782E-06  0.275E-03    0.51       7.3  T
   9    -42.1399700 -0.580674E-07  0.124E-03    0.51      16.2  T
  10    -42.1399700 -0.239951E-07  0.604E-04    0.51      33.1  T
  11    -42.1399700 -0.924845E-08  0.256E-04    0.51      78.2  T
     SCC iter.                  ...        0 min,  0.015 sec
     gradient                   ...        0 min,  0.013 sec
 * total energy  :   -41.6892892 Eh     change       -0.4926600E-02 Eh
   gradient norm :     0.0963373 Eh/α   predicted     0.0000000E+00 (-100.00%)
   displ. norm   :     0.5692044 α      lambda       -0.2574585E-01
   maximum displ.:     0.2699091 α      in ANC's #15, #1, #14, ...

........................................................................
.............................. CYCLE   22 ..............................
........................................................................

 iter      E             dE          RMSdq      gap      omega  full diag
   1    -42.1676476 -0.421676E+02  0.498E-01    0.66       0.0  T
   2    -42.1628212  0.482639E-02  0.421E-01    0.44       1.0  T
   3    -42.1558176  0.700365E-02  0.506E-01    0.75       1.0  T
   4    -42.1647113 -0.889373E-02  0.295E-01    0.52       1.0  T
   5    -42.1686988 -0.398744E-02  0.866E-02    0.61       1.0  T
   6    -42.1690110 -0.312290E-03  0.182E-02    0.60       1.1  T
   7    -42.1690163 -0.529675E-05  0.112E-02    0.59       1.8  T
   8    -42.1690181 -0.176273E-05  0.354E-03    0.59       5.7  T
   9    -42.1690183 -0.236946E-06  0.192E-03    0.59      10.4  T
  10    -42.1690184 -0.174861E-07  0.118E-03    0.59      16.9  T
  11    -42.1690184 -0.484373E-07  0.437E-04    0.59      45.7  T
  12    -42.1690184 -0.376159E-08  0.113E-04    0.59     176.5  T
     SCC iter.                  ...        0 min,  0.016 sec
     gradient                   ...        0 min,  0.013 sec
 * total energy  :   -41.7108173 Eh     change       -0.2152808E-01 Eh
   gradient norm :     0.0726240 Eh/α   predicted    -0.1704367E-01 ( -20.83%)
   displ. norm   :     0.7178604 α      lambda       -0.2899557E-01
   maximum displ.:     0.3140122 α      in ANC's #17, #15, #14, ...

........................................................................
.............................. CYCLE   23 ..............................
........................................................................

 iter      E             dE          RMSdq      gap      omega  full diag
   1    -42.2081354 -0.422081E+02  0.778E-01    0.85       0.0  T
   2    -42.1980929  0.100425E-01  0.679E-01    0.53       1.0  T
   3    -42.1923785  0.571449E-02  0.661E-01    1.01       1.0  T
   4    -42.1955656 -0.318719E-02  0.509E-01    0.57       1.0  T
   5    -42.2106861 -0.151205E-01  0.154E-01    0.77       1.0  T
   6    -42.2116801 -0.993917E-03  0.358E-02    0.74       1.0  T
   7    -42.2117012 -0.211735E-04  0.247E-02    0.73       1.0  T
   8    -42.2117095 -0.826348E-05  0.659E-03    0.73       3.0  T
   9    -42.2117104 -0.881778E-06  0.337E-03    0.73       5.9  T
  10    -42.2117105 -0.994266E-07  0.216E-03    0.73       9.3  T
  11    -42.2117106 -0.156725E-06  0.715E-04    0.73      28.0  T
  12    -42.2117106 -0.885282E-08  0.225E-04    0.73      89.0  T
     SCC iter.                  ...        0 min,  0.016 sec
     gradient                   ...        0 min,  0.013 sec
 * total energy  :   -41.7377464 Eh     change       -0.2692913E-01 Eh
   gradient norm :     0.1118649 Eh/α   predicted    -0.2196888E-01 ( -18.42%)
   displ. norm   :     0.8553324 α      lambda       -0.3994816E-01
   maximum displ.:     0.3858861 α      in ANC's #17, #15, #43, ...

........................................................................
.............................. CYCLE   24 ..............................
........................................................................

 iter      E             dE          RMSdq      gap      omega  full diag
   1    -42.2620870 -0.422621E+02  0.910E-01    1.01       0.0  T
   2    -42.2459915  0.160955E-01  0.835E-01    0.62       1.0  T
   3    -42.2419550  0.403647E-02  0.784E-01    1.20       1.0  T
   4    -42.2561448 -0.141898E-01  0.415E-01    0.76       1.0  T
   5    -42.2661161 -0.997128E-02  0.137E-01    0.90       1.0  T
   6    -42.2669182 -0.802149E-03  0.287E-02    0.87       1.0  T
   7    -42.2669250 -0.678443E-05  0.205E-02    0.86       1.0  T
   8    -42.2669308 -0.583479E-05  0.727E-03    0.86       2.8  T
   9    -42.2669313 -0.512414E-06  0.456E-03    0.86       4.4  T
  10    -42.2669317 -0.374211E-06  0.217E-03    0.86       9.2  T
  11    -42.2669319 -0.173330E-06  0.424E-04    0.86      47.1  T
  12    -42.2669319 -0.124381E-09  0.258E-04    0.86      77.5  T
     SCC iter.                  ...        0 min,  0.016 sec
     gradient                   ...        0 min,  0.013 sec
 * total energy  :   -41.7699167 Eh     change       -0.3217028E-01 Eh
   gradient norm :     0.1761852 Eh/α   predicted    -0.3458700E-01 (   7.51%)
   displ. norm   :     0.5613242 α      lambda       -0.3007070E-01
   maximum displ.:     0.2634653 α      in ANC's #17, #51, #25, ...

........................................................................
.............................. CYCLE   25 ..............................
........................................................................

 iter      E             dE          RMSdq      gap      omega  full diag
   1    -42.2963228 -0.422963E+02  0.640E-01    1.05       0.0  T
   2    -42.2803432  0.159796E-01  0.679E-01    0.70       1.0  T
   3    -42.2866766 -0.633346E-02  0.551E-01    1.16       1.0  T
   4    -42.2981832 -0.115066E-01  0.129E-01    0.95       1.0  T
   5    -42.2986299 -0.446703E-03  0.551E-02    0.95       1.0  T
   6    -42.2987571 -0.127247E-03  0.165E-02    0.94       1.2  T
   7    -42.2987599 -0.274119E-05  0.809E-03    0.94       2.5  T
   8    -42.2987608 -0.887094E-06  0.411E-03    0.94       4.9  T
   9    -42.2987611 -0.284664E-06  0.130E-03    0.94      15.4  T
  10    -42.2987611 -0.182814E-07  0.827E-04    0.94      24.2  T
  11    -42.2987611 -0.192716E-07  0.233E-04    0.94      85.9  T
     SCC iter.                  ...        0 min,  0.015 sec
     gradient                   ...        0 min,  0.013 sec
 * total energy  :   -41.7924930 Eh     change       -0.2257634E-01 Eh
   gradient norm :     0.1706222 Eh/α   predicted    -0.1977278E-01 ( -12.42%)
   displ. norm   :     0.4617964 α      lambda       -0.3800072E-01
   maximum displ.:     0.2373447 α      in ANC's #17, #51, #49, ...

........................................................................
.............................. CYCLE   26 ..............................
........................................................................

 iter      E             dE          RMSdq      gap      omega  full diag
   1    -42.3503070 -0.423503E+02  0.588E-01    1.11       0.0  T
   2    -42.3324113  0.178957E-01  0.696E-01    0.75       1.0  T
   3    -42.3471804 -0.147691E-01  0.437E-01    1.20       1.0  T
   4    -42.3517225 -0.454208E-02  0.199E-01    1.03       1.0  T
   5    -42.3533105 -0.158803E-02  0.570E-02    1.03       1.0  T
   6    -42.3533864 -0.759305E-04  0.161E-02    1.02       1.2  T
   7    -42.3533886 -0.217724E-05  0.720E-03    1.02       2.8  T
   8    -42.3533890 -0.369313E-06  0.345E-03    1.02       5.8  T
   9    -42.3533894 -0.396146E-06  0.116E-03    1.02      17.2  T
  10    -42.3533894 -0.111559E-07  0.768E-04    1.02      26.1  T
  11    -42.3533894 -0.650981E-08  0.364E-04    1.02      54.9  T
     SCC iter.                  ...        0 min,  0.014 sec
     gradient                   ...        0 min,  0.012 sec
 * total energy  :   -41.8172273 Eh     change       -0.2473425E-01 Eh
   gradient norm :     0.1271338 Eh/α   predicted    -0.2305241E-01 (  -6.80%)
   displ. norm   :     0.6083466 α      lambda       -0.3400898E-01
   maximum displ.:     0.2577918 α      in ANC's #17, #7, #12, ...

........................................................................
.............................. CYCLE   27 ..............................
........................................................................

 iter      E             dE          RMSdq      gap      omega  full diag
   1    -42.3120279 -0.423120E+02  0.113E+00    1.11       0.0  T
   2    -42.3076142  0.441375E-02  0.829E-01    0.79       1.0  T
   3    -42.2870259  0.205883E-01  0.905E-01    1.42       1.0  T
   4    -42.3169417 -0.299158E-01  0.356E-01    0.92       1.0  T
   5    -42.3203781 -0.343635E-02  0.144E-01    1.09       1.0  T
   6    -42.3213465 -0.968428E-03  0.418E-02    1.07       1.0  T
   7    -42.3213921 -0.456216E-04  0.135E-02    1.06       1.5  T
   8    -42.3213923 -0.199536E-06  0.701E-03    1.06       2.9  T
   9    -42.3213930 -0.654290E-06  0.347E-03    1.06       5.8  T
  10    -42.3213931 -0.191242E-06  0.198E-03    1.06      10.1  T
  11    -42.3213932 -0.656199E-07  0.822E-04    1.06      24.3  T
  12    -42.3213932 -0.134433E-07  0.379E-04    1.06      52.8  T
     SCC iter.                  ...        0 min,  0.016 sec
     gradient                   ...        0 min,  0.013 sec
 * total energy  :   -41.8167130 Eh     change        0.5142450E-03 Eh
   gradient norm :     0.2137994 Eh/α   predicted    -0.2329763E-01 (*******%)
   displ. norm   :     0.5019207 α      lambda       -0.4404753E-01
   maximum displ.:     0.2849046 α      in ANC's #12, #7, #17, ...

........................................................................
.............................. CYCLE   28 ..............................
........................................................................

 iter      E             dE          RMSdq      gap      omega  full diag
   1    -42.3574457 -0.423574E+02  0.106E+00    1.02       0.0  T
   2    -42.3567179  0.727762E-03  0.659E-01    1.21       1.0  T
   3    -42.3158532  0.408647E-01  0.962E-01    0.58       1.0  T
   4    -42.3532277 -0.373745E-01  0.400E-01    1.26       1.0  T
   5    -42.3596548 -0.642711E-02  0.692E-02    1.10       1.0  T
   6    -42.3597811 -0.126315E-03  0.329E-02    1.07       1.0  T
   7    -42.3598150 -0.339014E-04  0.114E-02    1.07       1.8  T
   8    -42.3598161 -0.111627E-05  0.643E-03    1.07       3.1  T
   9    -42.3598164 -0.321462E-06  0.274E-03    1.07       7.3  T
  10    -42.3598165 -0.961744E-07  0.127E-03    1.07      15.7  T
  11    -42.3598165 -0.901991E-08  0.505E-04    1.07      39.6  T
  12    -42.3598165 -0.125111E-08  0.321E-04    1.07      62.2  T
     SCC iter.                  ...        0 min,  0.016 sec
     gradient                   ...        0 min,  0.013 sec
 * total energy  :   -41.8354286 Eh     change       -0.1871553E-01 Eh
   gradient norm :     0.1008898 Eh/α   predicted    -0.2757211E-01 (  47.32%)
   displ. norm   :     0.5580812 α      lambda       -0.2866114E-01
   maximum displ.:     0.2237854 α      in ANC's #8, #10, #22, ...

........................................................................
.............................. CYCLE   29 ..............................
........................................................................

 iter      E             dE          RMSdq      gap      omega  full diag
   1    -42.3307000 -0.423307E+02  0.745E-01    0.90       0.0  T
   2    -42.3092026  0.214975E-01  0.759E-01    1.23       1.0  T
   3    -42.3223955 -0.131929E-01  0.613E-01    0.78       1.0  T
   4    -42.3338387 -0.114432E-01  0.323E-01    1.11       1.0  T
   5    -42.3367977 -0.295898E-02  0.485E-02    1.04       1.0  T
   6    -42.3368288 -0.311638E-04  0.362E-02    1.05       1.0  T
   7    -42.3368490 -0.201904E-04  0.130E-02    1.04       1.5  T
   8    -42.3368498 -0.750466E-06  0.795E-03    1.04       2.5  T
   9    -42.3368511 -0.131402E-05  0.329E-03    1.04       6.1  T
  10    -42.3368512 -0.133859E-06  0.110E-03    1.04      18.1  T
  11    -42.3368513 -0.194648E-07  0.485E-04    1.04      41.2  T
  12    -42.3368513 -0.379094E-08  0.178E-04    1.04     112.5  T
     SCC iter.                  ...        0 min,  0.016 sec
     gradient                   ...        0 min,  0.013 sec
 * total energy  :   -41.8049367 Eh     change        0.3049185E-01 Eh
   gradient norm :     0.3481946 Eh/α   predicted    -0.1879395E-01 (-161.64%)
   displ. norm   :     0.3192379 α      lambda       -0.8337106E-01
   maximum displ.:     0.1343470 α      in ANC's #10, #25, #23, ...

........................................................................
.............................. CYCLE   30 ..............................
........................................................................

 iter      E             dE          RMSdq      gap      omega  full diag
   1    -42.3461786 -0.423462E+02  0.412E-01    1.13       0.0  T
   2    -42.3407129  0.546573E-02  0.386E-01    0.87       1.0  T
   3    -42.3420564 -0.134357E-02  0.362E-01    1.24       1.0  T
   4    -42.3469675 -0.491104E-02  0.148E-01    1.06       1.0  T
   5    -42.3474024 -0.434907E-03  0.229E-02    1.07       1.0  T
   6    -42.3474039 -0.156376E-05  0.138E-02    1.06       1.4  T
   7    -42.3474100 -0.606467E-05  0.537E-03    1.06       3.7  T
   8    -42.3474103 -0.332311E-06  0.194E-03    1.06      10.3  T
   9    -42.3474104 -0.661114E-07  0.844E-04    1.06      23.7  T
  10    -42.3474104 -0.161526E-07  0.484E-04    1.06      41.3  T
     SCC iter.                  ...        0 min,  0.013 sec
     gradient                   ...        0 min,  0.013 sec
 * total energy  :   -41.8425929 Eh     change       -0.3765621E-01 Eh
   gradient norm :     0.0502585 Eh/α   predicted    -0.4593369E-01 (  21.98%)
   displ. norm   :     0.4779783 α      lambda       -0.1316983E-01
   maximum displ.:     0.1763815 α      in ANC's #2, #5, #3, ...

........................................................................
.............................. CYCLE   31 ..............................
........................................................................

 iter      E             dE          RMSdq      gap      omega  full diag
   1    -42.3758730 -0.423759E+02  0.421E-01    1.08       0.0  T
   2    -42.3761762 -0.303242E-03  0.250E-01    1.07       1.0  T
   3    -42.3757424  0.433859E-03  0.176E-01    1.08       1.0  T
   4    -42.3762485 -0.506164E-03  0.737E-02    1.07       1.0  T
   5    -42.3763466 -0.980549E-04  0.383E-02    1.09       1.0  T
   6    -42.3764101 -0.635023E-04  0.202E-02    1.06       1.0  T
   7    -42.3764258 -0.157152E-04  0.443E-03    1.07       4.5  T
   8    -42.3764258 -0.468276E-08  0.206E-03    1.07       9.7  T
   9    -42.3764259 -0.764814E-07  0.923E-04    1.07      21.7  T
  10    -42.3764259 -0.792360E-08  0.591E-04    1.07      33.8  T
     SCC iter.                  ...        0 min,  0.013 sec
     gradient                   ...        0 min,  0.013 sec
 * total energy  :   -41.8490489 Eh     change       -0.6456015E-02 Eh
   gradient norm :     0.0668789 Eh/α   predicted    -0.8089339E-02 (  25.30%)
   displ. norm   :     0.6924244 α      lambda       -0.1461854E-01
   maximum displ.:     0.2619741 α      in ANC's #17, #3, #2, ...

........................................................................
.............................. CYCLE   32 ..............................
........................................................................

 iter      E             dE          RMSdq      gap      omega  full diag
   1    -42.3626656 -0.423627E+02  0.990E-01    1.05       0.0  T
   2    -42.3550056  0.766002E-02  0.661E-01    1.16       1.0  T
   3    -42.3492789  0.572664E-02  0.760E-01    0.87       1.0  T
   4    -42.3727135 -0.234345E-01  0.258E-01    1.17       1.0  T
   5    -42.3729335 -0.220002E-03  0.157E-01    1.09       1.0  T
   6    -42.3736981 -0.764630E-03  0.420E-02    1.12       1.0  T
   7    -42.3737399 -0.418071E-04  0.143E-02    1.12       1.4  T
   8    -42.3737410 -0.108219E-05  0.794E-03    1.12       2.5  T
   9    -42.3737421 -0.111739E-05  0.252E-03    1.12       7.9  T
  10    -42.3737421 -0.542107E-07  0.131E-03    1.12      15.3  T
  11    -42.3737422 -0.262801E-07  0.523E-04    1.12      38.2  T
  12    -42.3737422 -0.568407E-08  0.232E-04    1.12      86.3  T
     SCC iter.                  ...        0 min,  0.016 sec
     gradient                   ...        0 min,  0.013 sec
 * total energy  :   -41.8651583 Eh     change       -0.1610934E-01 Eh
   gradient norm :     0.0981501 Eh/α   predicted    -0.1081371E-01 ( -32.87%)
   displ. norm   :     0.7215398 α      lambda       -0.2781307E-01
   maximum displ.:     0.4583823 α      in ANC's #5, #3, #17, ...

........................................................................
.............................. CYCLE   33 ..............................
........................................................................

 iter      E             dE          RMSdq      gap      omega  full diag
   1    -42.3981434 -0.423981E+02  0.100E+00    1.13       0.0  T
   2    -42.3864731  0.116703E-01  0.876E-01    1.17       1.0  T
   3    -42.3992127 -0.127396E-01  0.582E-01    1.11       1.0  T
   4    -42.4022213 -0.300863E-02  0.316E-01    1.13       1.0  T
   5    -42.4066916 -0.447028E-02  0.102E-01    1.21       1.0  T
   6    -42.4070495 -0.357884E-03  0.246E-02    1.19       1.0  T
   7    -42.4070533 -0.385827E-05  0.168E-02    1.20       1.2  T
   8    -42.4070567 -0.333994E-05  0.782E-03    1.20       2.6  T
   9    -42.4070578 -0.114563E-05  0.248E-03    1.20       8.1  T
  10    -42.4070579 -0.120364E-06  0.914E-04    1.20      21.9  T
  11    -42.4070579 -0.787928E-08  0.444E-04    1.20      45.0  T
     SCC iter.                  ...        0 min,  0.015 sec
     gradient                   ...        0 min,  0.013 sec
 * total energy  :   -41.8819733 Eh     change       -0.1681504E-01 Eh
   gradient norm :     0.1444553 Eh/α   predicted    -0.2114656E-01 (  25.76%)
   displ. norm   :     0.6906024 α      lambda       -0.4260752E-01
   maximum displ.:     0.3663774 α      in ANC's #12, #26, #5, ...

........................................................................
.............................. CYCLE   34 ..............................
........................................................................

 iter      E             dE          RMSdq      gap      omega  full diag
   1    -42.4205595 -0.424206E+02  0.113E+00    1.31       0.0  T
   2    -42.3887499  0.318096E-01  0.112E+00    0.76       1.0  T
   3    -42.4270417 -0.382918E-01  0.699E-01    1.33       1.0  T
   4    -42.4407261 -0.136844E-01  0.253E-01    1.17       1.0  T
   5    -42.4409630 -0.236875E-03  0.939E-02    1.21       1.0  T
   6    -42.4411470 -0.184015E-03  0.279E-02    1.19       1.0  T
   7    -42.4411607 -0.137389E-04  0.178E-02    1.20       1.1  T
   8    -42.4411679 -0.721417E-05  0.624E-03    1.20       3.2  T
   9    -42.4411683 -0.347139E-06  0.367E-03    1.20       5.4  T
  10    -42.4411685 -0.237255E-06  0.182E-03    1.20      11.0  T
  11    -42.4411686 -0.862656E-07  0.527E-04    1.20      38.0  T
  12    -42.4411686 -0.206985E-08  0.298E-04    1.20      67.0  T
     SCC iter.                  ...        0 min,  0.016 sec
     gradient                   ...        0 min,  0.013 sec
 * total energy  :   -41.9032772 Eh     change       -0.2130388E-01 Eh
   gradient norm :     0.1766977 Eh/α   predicted    -0.3146419E-01 (  47.69%)
   displ. norm   :     0.7494839 α      lambda       -0.7899329E-01
   maximum displ.:     0.3364426 α      in ANC's #9, #1, #5, ...

........................................................................
.............................. CYCLE   35 ..............................
........................................................................

 iter      E             dE          RMSdq      gap      omega  full diag
   1    -42.4219021 -0.424219E+02  0.110E+00    1.34       0.0  T
   2    -42.4124204  0.948169E-02  0.845E-01    0.97       1.0  T
   3    -42.4137358 -0.131539E-02  0.702E-01    1.42       1.0  T
   4    -42.4265575 -0.128217E-01  0.336E-01    1.09       1.0  T
   5    -42.4299933 -0.343579E-02  0.869E-02    1.32       1.0  T
   6    -42.4302828 -0.289511E-03  0.262E-02    1.25       1.0  T
   7    -42.4302966 -0.137974E-04  0.137E-02    1.25       1.5  T
   8    -42.4302979 -0.132366E-05  0.723E-03    1.25       2.8  T
   9    -42.4302986 -0.717453E-06  0.262E-03    1.25       7.6  T
  10    -42.4302988 -0.143134E-06  0.156E-03    1.25      12.8  T
  11    -42.4302988 -0.109948E-07  0.667E-04    1.25      30.0  T
  12    -42.4302988 -0.184453E-07  0.207E-04    1.25      96.4  T
     SCC iter.                  ...        0 min,  0.016 sec
     gradient                   ...        0 min,  0.013 sec
 * total energy  :   -41.9263573 Eh     change       -0.2308013E-01 Eh
   gradient norm :     0.1683317 Eh/α   predicted    -0.6168294E-01 ( 167.26%)
   displ. norm   :     0.6786414 α      lambda       -0.5747269E-01
   maximum displ.:     0.4099076 α      in ANC's #3, #5, #14, ...

........................................................................
.............................. CYCLE   36 ..............................
........................................................................

 iter      E             dE          RMSdq      gap      omega  full diag
   1    -42.4703061 -0.424703E+02  0.752E-01    0.93       0.0  T
   2    -42.4652650  0.504116E-02  0.698E-01    1.33       1.0  T
   3    -42.4716372 -0.637222E-02  0.402E-01    1.00       1.0  T
   4    -42.4724938 -0.856635E-03  0.369E-01    1.31       1.0  T
   5    -42.4768050 -0.431120E-02  0.789E-02    1.22       1.0  T
   6    -42.4769627 -0.157681E-03  0.263E-02    1.20       1.0  T
   7    -42.4769721 -0.942051E-05  0.141E-02    1.20       1.4  T
   8    -42.4769753 -0.320932E-05  0.596E-03    1.20       3.4  T
   9    -42.4769758 -0.487952E-06  0.278E-03    1.20       7.2  T
  10    -42.4769760 -0.130236E-06  0.124E-03    1.20      16.1  T
  11    -42.4769760 -0.198600E-07  0.407E-04    1.20      49.2  T
  12    -42.4769760 -0.218141E-08  0.185E-04    1.20     108.1  T
     SCC iter.                  ...        0 min,  0.016 sec
     gradient                   ...        0 min,  0.013 sec
 * total energy  :   -41.9663415 Eh     change       -0.3998421E-01 Eh
   gradient norm :     0.1264418 Eh/α   predicted    -0.4197101E-01 (   4.97%)
   displ. norm   :     0.7784163 α      lambda       -0.5472093E-01
   maximum displ.:     0.3711972 α      in ANC's #3, #5, #29, ...

........................................................................
.............................. CYCLE   37 ..............................
........................................................................

 iter      E             dE          RMSdq      gap      omega  full diag
   1    -42.4999356 -0.424999E+02  0.134E+00    0.79       0.0  T
   2    -42.5006158 -0.680293E-03  0.840E-01    1.05       1.0  T
   3    -42.5159894 -0.153736E-01  0.654E-01    1.05       1.0  T
   4    -42.5191619 -0.317253E-02  0.369E-01    0.85       1.0  T
   5    -42.5192960 -0.134075E-03  0.328E-01    1.24       1.0  T
   6    -42.5238111 -0.451509E-02  0.433E-02    1.05       1.0  T
   7    -42.5238354 -0.243317E-04  0.224E-02    1.06       1.0  T
   8    -42.5238472 -0.118004E-04  0.979E-03    1.05       2.0  T
   9    -42.5238484 -0.120104E-05  0.392E-03    1.05       5.1  T
  10    -42.5238488 -0.376191E-06  0.134E-03    1.05      14.9  T
  11    -42.5238488 -0.521457E-08  0.555E-04    1.05      36.0  T
  12    -42.5238488 -0.596990E-08  0.170E-04    1.05     117.4  T
     SCC iter.                  ...        0 min,  0.016 sec
     gradient                   ...        0 min,  0.013 sec
 * total energy  :   -41.9908615 Eh     change       -0.2451996E-01 Eh
   gradient norm :     0.1612350 Eh/α   predicted    -0.4393911E-01 (  79.20%)
   displ. norm   :     0.4791311 α      lambda       -0.3800475E-01
   maximum displ.:     0.1852347 α      in ANC's #14, #24, #35, ...

........................................................................
.............................. CYCLE   38 ..............................
........................................................................

 iter      E             dE          RMSdq      gap      omega  full diag
   1    -42.5473969 -0.425474E+02  0.610E-01    1.01       0.0  T
   2    -42.5483325 -0.935584E-03  0.378E-01    1.00       1.0  T
   3    -42.5486384 -0.305924E-03  0.264E-01    0.98       1.0  T
   4    -42.5474122  0.122620E-02  0.237E-01    1.09       1.0  T
   5    -42.5493498 -0.193757E-02  0.799E-02    0.95       1.0  T
   6    -42.5496263 -0.276519E-03  0.285E-02    1.02       1.0  T
   7    -42.5496477 -0.213700E-04  0.114E-02    1.00       1.8  T
   8    -42.5496496 -0.191702E-05  0.378E-03    1.00       5.3  T
   9    -42.5496497 -0.162389E-06  0.132E-03    1.00      15.1  T
  10    -42.5496498 -0.372847E-07  0.700E-04    1.00      28.6  T
  11    -42.5496498 -0.275392E-08  0.327E-04    1.00      61.1  T
     SCC iter.                  ...        0 min,  0.015 sec
     gradient                   ...        0 min,  0.013 sec
 * total energy  :   -42.0169906 Eh     change       -0.2612908E-01 Eh
   gradient norm :     0.1748177 Eh/α   predicted    -0.2336467E-01 ( -10.58%)
   displ. norm   :     0.6802846 α      lambda       -0.7707705E-01
   maximum displ.:     0.2155899 α      in ANC's #43, #41, #35, ...

........................................................................
.............................. CYCLE   39 ..............................
........................................................................

 iter      E             dE          RMSdq      gap      omega  full diag
   1    -42.5581326 -0.425581E+02  0.116E+00    1.42       0.0  T
   2    -42.5588257 -0.693118E-03  0.886E-01    0.83       1.0  T
   3    -42.5749583 -0.161326E-01  0.468E-01    1.37       1.0  T
   4    -42.5778635 -0.290521E-02  0.264E-01    1.05       1.0  T
   5    -42.5778007  0.627942E-04  0.194E-01    1.26       1.0  T
   6    -42.5791125 -0.131181E-02  0.317E-02    1.15       1.0  T
   7    -42.5791384 -0.259002E-04  0.193E-02    1.16       1.0  T
   8    -42.5791443 -0.587480E-05  0.576E-03    1.16       3.5  T
   9    -42.5791446 -0.355335E-06  0.134E-03    1.16      15.0  T
  10    -42.5791447 -0.165179E-07  0.590E-04    1.16      33.9  T
  11    -42.5791447 -0.174166E-08  0.301E-04    1.16      66.5  T
     SCC iter.                  ...        0 min,  0.015 sec
     gradient                   ...        0 min,  0.013 sec
 * total energy  :   -42.0550684 Eh     change       -0.3807778E-01 Eh
   gradient norm :     0.2181824 Eh/α   predicted    -0.5637366E-01 (  48.05%)
   displ. norm   :     0.6487109 α      lambda       -0.6280282E-01
   maximum displ.:     0.2304338 α      in ANC's #8, #35, #15, ...

........................................................................
.............................. CYCLE   40 ..............................
........................................................................

 iter      E             dE          RMSdq      gap      omega  full diag
   1    -42.5990063 -0.425990E+02  0.832E-01    1.13       0.0  T
   2    -42.5989441  0.621582E-04  0.575E-01    1.38       1.0  T
   3    -42.5991710 -0.226901E-03  0.478E-01    1.02       1.0  T
   4    -42.6031903 -0.401933E-02  0.225E-01    1.33       1.0  T
   5    -42.6043241 -0.113374E-02  0.757E-02    1.17       1.0  T
   6    -42.6045128 -0.188716E-03  0.217E-02    1.22       1.0  T
   7    -42.6045224 -0.966145E-05  0.108E-02    1.21       1.9  T
   8    -42.6045237 -0.127367E-05  0.296E-03    1.21       6.8  T
   9    -42.6045240 -0.313010E-06  0.898E-04    1.21      22.3  T
  10    -42.6045240 -0.809172E-08  0.434E-04    1.21      46.1  T
     SCC iter.                  ...        0 min,  0.013 sec
     gradient                   ...        0 min,  0.013 sec
 * total energy  :   -42.0839293 Eh     change       -0.2886098E-01 Eh
   gradient norm :     0.1427864 Eh/α   predicted    -0.4461592E-01 (  54.59%)
   displ. norm   :     0.4627600 α      lambda       -0.3335034E-01
   maximum displ.:     0.2099533 α      in ANC's #3, #15, #1, ...

........................................................................
.............................. CYCLE   41 ..............................
........................................................................

 iter      E             dE          RMSdq      gap      omega  full diag
   1    -42.6196696 -0.426197E+02  0.547E-01    1.04       0.0  T
   2    -42.6196515  0.180790E-04  0.433E-01    1.34       1.0  T
   3    -42.6220014 -0.234990E-02  0.236E-01    1.08       1.0  T
   4    -42.6226438 -0.642324E-03  0.122E-01    1.22       1.0  T
   5    -42.6228071 -0.163317E-03  0.517E-02    1.15       1.0  T
   6    -42.6228845 -0.774659E-04  0.122E-02    1.18       1.6  T
   7    -42.6228866 -0.208763E-05  0.728E-03    1.17       2.7  T
   8    -42.6228873 -0.673481E-06  0.183E-03    1.17      10.9  T
   9    -42.6228874 -0.628508E-07  0.666E-04    1.17      30.0  T
  10    -42.6228874 -0.163414E-08  0.344E-04    1.17      58.1  T
     SCC iter.                  ...        0 min,  0.013 sec
     gradient                   ...        0 min,  0.013 sec
 * total energy  :   -42.0967118 Eh     change       -0.1278244E-01 Eh
   gradient norm :     0.1237926 Eh/α   predicted    -0.2024610E-01 (  58.39%)
   displ. norm   :     0.4649820 α      lambda       -0.1999170E-01
   maximum displ.:     0.2436361 α      in ANC's #2, #6, #17, ...

........................................................................
.............................. CYCLE   42 ..............................
........................................................................

 iter      E             dE          RMSdq      gap      omega  full diag
   1    -42.6549083 -0.426549E+02  0.433E-01    1.40       0.0  T
   2    -42.6533324  0.157598E-02  0.418E-01    1.01       1.0  T
   3    -42.6569337 -0.360137E-02  0.203E-01    1.32       1.0  T
   4    -42.6572302 -0.296467E-03  0.896E-02    1.21       1.0  T
   5    -42.6573372 -0.106991E-03  0.300E-02    1.24       1.0  T
   6    -42.6573599 -0.227371E-04  0.922E-03    1.23       2.2  T
   7    -42.6573613 -0.139866E-05  0.460E-03    1.24       4.4  T
   8    -42.6573615 -0.176032E-06  0.140E-03    1.23      14.3  T
   9    -42.6573615 -0.163966E-07  0.704E-04    1.24      28.4  T
  10    -42.6573615 -0.500032E-08  0.250E-04    1.23      79.9  T
     SCC iter.                  ...        0 min,  0.013 sec
     gradient                   ...        0 min,  0.013 sec
 * total energy  :   -42.1060937 Eh     change       -0.9381960E-02 Eh
   gradient norm :     0.0649866 Eh/α   predicted    -0.1215704E-01 (  29.58%)
   displ. norm   :     0.3650183 α      lambda       -0.1139442E-01
   maximum displ.:     0.1141267 α      in ANC's #23, #15, #19, ...
 * RMSD in coord.:     1.0793583 α      energy gain  -0.4217311E+00 Eh

generating ANC from model Hessian ...
Using Lindh-Hessian (1995)
 Shifting diagonal of input Hessian by    9.6179625486931611E-003
 Lowest  eigenvalues of input Hessian
    0.000000    0.000000    0.000000    0.000000    0.000000    0.000000
    0.010000    0.010284    0.010865    0.011310    0.011393    0.012617
    0.017450    0.019777    0.020725    0.021903    0.026916    0.028407
 Highest eigenvalues
    2.105501    2.179648    2.263908    2.301458    2.400366    4.863311


........................................................................
.............................. CYCLE   43 ..............................
........................................................................

 iter      E             dE          RMSdq      gap      omega  full diag
   1    -42.6465236 -0.426465E+02  0.444E-01    1.31       0.0  T
   2    -42.6466591 -0.135554E-03  0.249E-01    1.20       1.0  T
   3    -42.6461231  0.536014E-03  0.230E-01    1.36       1.0  T
   4    -42.6470370 -0.913856E-03  0.627E-02    1.22       1.0  T
   5    -42.6471379 -0.100870E-03  0.243E-02    1.27       1.0  T
   6    -42.6471556 -0.177536E-04  0.730E-03    1.26       2.7  T
   7    -42.6471562 -0.610987E-06  0.340E-03    1.26       5.9  T
   8    -42.6471563 -0.727878E-07  0.100E-03    1.26      20.0  T
   9    -42.6471563 -0.145985E-07  0.483E-04    1.26      41.4  T
     SCC iter.                  ...        0 min,  0.012 sec
     gradient                   ...        0 min,  0.013 sec
 * total energy  :   -42.1104125 Eh     change       -0.4318802E-02 Eh
   gradient norm :     0.0769716 Eh/α   predicted     0.0000000E+00 (-100.00%)
   displ. norm   :     0.2565343 α      lambda       -0.8703890E-02
   maximum displ.:     0.1100043 α      in ANC's #11, #9, #15, ...

........................................................................
.............................. CYCLE   44 ..............................
........................................................................

 iter      E             dE          RMSdq      gap      omega  full diag
   1    -42.6544605 -0.426545E+02  0.280E-01    1.27       0.0  T
   2    -42.6545465 -0.860113E-04  0.175E-01    1.26       1.0  T
   3    -42.6548382 -0.291642E-03  0.136E-01    1.27       1.0  T
   4    -42.6550526 -0.214462E-03  0.253E-02    1.26       1.0  T
   5    -42.6550608 -0.814450E-05  0.107E-02    1.27       1.9  T
   6    -42.6550631 -0.229464E-05  0.452E-03    1.26       4.4  T
   7    -42.6550634 -0.306737E-06  0.240E-03    1.27       8.3  T
   8    -42.6550635 -0.936581E-07  0.649E-04    1.26      30.8  T
   9    -42.6550635 -0.408069E-08  0.303E-04    1.26      66.1  T
     SCC iter.                  ...        0 min,  0.012 sec
     gradient                   ...        0 min,  0.013 sec
 * total energy  :   -42.1170292 Eh     change       -0.6616667E-02 Eh
   gradient norm :     0.0340635 Eh/α   predicted    -0.4659566E-02 ( -29.58%)
   displ. norm   :     0.3900872 α      lambda       -0.6715746E-02
   maximum displ.:     0.2024831 α      in ANC's #11, #9, #15, ...

........................................................................
.............................. CYCLE   45 ..............................
........................................................................

 iter      E             dE          RMSdq      gap      omega  full diag
   1    -42.6577917 -0.426578E+02  0.363E-01    1.28       0.0  T
   2    -42.6580133 -0.221655E-03  0.219E-01    1.27       1.0  T
   3    -42.6582017 -0.188320E-03  0.169E-01    1.27       1.0  T
   4    -42.6585414 -0.339773E-03  0.219E-02    1.27       1.0  T
   5    -42.6585493 -0.783305E-05  0.828E-03    1.27       2.4  T
   6    -42.6585504 -0.112128E-05  0.413E-03    1.27       4.8  T
   7    -42.6585504 -0.487052E-07  0.301E-03    1.27       6.6  T
   8    -42.6585506 -0.206654E-06  0.717E-04    1.27      27.9  T
   9    -42.6585506 -0.494773E-08  0.327E-04    1.27      61.1  T
     SCC iter.                  ...        0 min,  0.012 sec
     gradient                   ...        0 min,  0.013 sec
 * total energy  :   -42.1203432 Eh     change       -0.3314029E-02 Eh
   gradient norm :     0.0412451 Eh/α   predicted    -0.3868835E-02 (  16.74%)
   displ. norm   :     0.2179190 α      lambda       -0.2478434E-02
   maximum displ.:     0.0744040 α      in ANC's #9, #17, #4, ...

........................................................................
.............................. CYCLE   46 ..............................
........................................................................

 iter      E             dE          RMSdq      gap      omega  full diag
   1    -42.6610503 -0.426611E+02  0.161E-01    1.27       0.0  T
   2    -42.6610590 -0.873167E-05  0.991E-02    1.27       1.0  T
   3    -42.6609862  0.728113E-04  0.653E-02    1.27       1.0  T
   4    -42.6610796 -0.933533E-04  0.601E-03    1.26       3.3  T
   5    -42.6610798 -0.275544E-06  0.339E-03    1.27       5.9  T
   6    -42.6610798  0.167893E-07  0.262E-03    1.26       7.6  T
   7    -42.6610800 -0.175521E-06  0.796E-04    1.27      25.1  T
[...]
O           -0.29764870285700        1.86807175055472        0.52141089868512
N           -2.62257652721737        2.79455056554075       -1.36180567163982
C           -2.72179122995041        2.81793162562273       -0.12707575181492
C           -1.25950877081302       -0.39391683862330        0.49994792872550
O           -2.42929407802092       -0.22089648057020        0.71736221223301
N           -0.68088621219281       -1.66275370111128        0.27957884934385
C           -1.43011054711976       -2.89536284638737        0.25614829450844
H            3.59001245790825        1.23835361639585        0.99885686360739
H            4.00252895570899        1.02961189008167       -0.71400114617599
H            2.55549847957300        1.95783312810999       -0.24170081243120
H            3.80797040352806       -1.62738468062051       -0.44714703358767
H           -2.52181814723581        3.68200537172626        0.51231783565107
H           -2.34537001052342        3.61306800534277       -1.89267447709521
H           -3.03028149334416        1.91145122854946        0.38414371303397
H           -1.05658290378860       -3.58879970570813        1.01045580725207
H           -1.37943538809153       -3.35941369893675       -0.72985580675675
H           -2.46658813800813       -2.64694342946483        0.48030943915077
H            1.82743487999696       -3.20801624955427       -0.29540232098620

 Bond Distances (Angstroems)
 ---------------------------
C1-N2=1.4367         C1-H15=1.0921        C1-H16=1.0884        C1-H17=1.0887        N2-C1=1.4367         N2-C3=1.3306         
N2-C6=1.3718         C3-N2=1.3306         C3-N4=1.3595         C3-H18=1.0717        N4-C3=1.3595         N4-C5=1.3539         
N4-H25=1.0103        C5-N4=1.3539         C5-C6=1.3962         C5-N13=1.3495        C6-N2=1.3718         C6-C5=1.3962         
C6-C7=1.4411         C7-C6=1.4411         C7-O8=1.2179         C7-C11=1.5361        O8-C7=1.2179         N9-C10=1.2389        
N9-H20=1.0142        C10-N9=1.2389        C10-H19=1.0934       C10-H21=1.0855       C11-C7=1.5361        C11-O12=1.2023       
C11-N13=1.4118       O12-C11=1.2023       N13-C5=1.3495        N13-C11=1.4118       N13-C14=1.4426       C14-N13=1.4426       
C14-H22=1.0906       C14-H23=1.0909       C14-H24=1.0891       H15-C1=1.0921        H16-C1=1.0884        H17-C1=1.0887        
H18-C3=1.0717        H19-C10=1.0934       H20-N9=1.0142        H21-C10=1.0855       H22-C14=1.0906       H23-C14=1.0909       
H24-C14=1.0891       H25-N4=1.0103        
 C  H  Rav=1.0878 sigma=0.0061  Rmin=1.0717  Rmax=1.0934     9
 C  C  Rav=1.4578 sigma=0.0583  Rmin=1.3962  Rmax=1.5361     3
 N  H  Rav=1.0122 sigma=0.0020  Rmin=1.0103  Rmax=1.0142     2
 N  C  Rav=1.3662 sigma=0.0586  Rmin=1.2389  Rmax=1.4426     9
 O  C  Rav=1.2101 sigma=0.0078  Rmin=1.2023  Rmax=1.2179     2

 selected bond angles (degree)
 --------------------
H15-C1-N2=110.22               H16-C1-N2=110.46               H16-C1-H15=108.91              H17-C1-N2=108.92               
H17-C1-H15=108.35              H17-C1-H16=109.95              C3-N2-C1=127.11                C6-N2-C1=125.27                
C6-N2-C3=107.56                N4-C3-N2=110.49                H18-C3-N2=125.42               H18-C3-N4=124.09               
C5-N4-C3=107.20                H25-N4-C3=124.87               H25-N4-C5=127.93               C6-C5-N4=107.69                
N13-C5-N4=139.47               N13-C5-C6=112.84               C5-C6-N2=107.06                C7-C6-N2=144.00                
C7-C6-C5=108.93                O8-C7-C6=131.70                C11-C7-C6=102.30               C11-C7-O8=126.00               
H20-N9-C10=121.89              H19-C10-N9=125.67              H21-C10-N9=118.45              H21-C10-H19=115.88             

 selected dihedral angles (degree)
 ---------------------------------
C3-N2-C1-H15=275.41           C3-N2-C1-H16= 35.81           C3-N2-C1-H17=156.66           C6-N2-C1-H15= 92.41           
C6-N2-C1-H16=212.80           C6-N2-C1-H17=333.66           N4-C3-N2-C1=177.59            N4-C3-N2-C6=  0.16            
H18-C3-N2-C1=357.10           H18-C3-N2-C6=179.68           C5-N4-C3-N2=359.80            C5-N4-C3-H18=180.28           
H25-N4-C3-N2=179.76           H25-N4-C3-H18=  0.24          C6-C5-N4-C3=  0.16            C6-C5-N4-H25=180.19           
N13-C5-N4-C3=180.24           N13-C5-N4-H25=  0.28          C5-C6-N2-C1=182.45            C5-C6-N2-C3=359.94            
C7-C6-N2-C1=  4.04            C7-C6-N2-C3=181.53            N2-C6-C5-N4=359.94            N2-C6-C5-N13=179.88           
C7-C6-C5-N4=178.95            C7-C6-C5-N13=358.89           O8-C7-C6-N2=  0.49            O8-C7-C6-C5=182.09            
C11-C7-C6-N2=179.66           C11-C7-C6-C5=  1.26           H19-C10-N9-H20=359.37         H21-C10-N9-H20=179.54         
           -------------------------------------------------
          |                Final Singlepoint                |
           -------------------------------------------------

          ...................................................
          :                      SETUP                      :
          :.................................................:
          :  # basis functions                  67          :
          :  # atomic orbitals                  67          :
          :  # shells                           39          :
          :  # electrons                        74          :
          :  max. iterations                   250          :
          :  Hamiltonian                  GFN2-xTB          :
          :  restarted?                      false          :
          :  GBSA solvation                  false          :
          :  PC potential                    false          :
          :  electronic temp.         5000.0000000     K    :
          :  accuracy                    1.0000000          :
          :  -> integral cutoff          0.2500000E+02      :
          :  -> integral neglect         0.1000000E-07      :
          :  -> SCF convergence          0.1000000E-05 Eh   :
          :  -> wf. convergence          0.1000000E-03 e    :
          :  Broyden damping             0.4000000          :
          ...................................................

 iter      E             dE          RMSdq      gap      omega  full diag
   1    -42.6690016 -0.426690E+02  0.606E-05    1.25       0.0  T
   2    -42.6690016 -0.257998E-10  0.479E-05    1.25     417.5  T
   3    -42.6690016 -0.546052E-10  0.163E-05    1.25    1225.8  T

   *** convergence criteria satisfied after 3 iterations ***

         #    Occupation            Energy/Eh            Energy/eV
      -------------------------------------------------------------
         1        2.0000           -0.8998288             -24.4856
       ...           ...                  ...                  ...
        31        1.9994           -0.6064472             -16.5023
        32        1.9993           -0.6048811             -16.4597
        33        1.9991           -0.5993518             -16.3092
        34        1.9980           -0.5874480             -15.9853
        35        1.9592           -0.5391272             -14.6704
        36        1.9207           -0.5282804             -14.3752
        37        1.6635           -0.5031194             -13.6906 (HOMO)
        38        0.4291           -0.4572643             -12.4428 (LUMO)
        39        0.0309           -0.4120309             -11.2119
        40        0.0016           -0.3646458              -9.9225
        41        0.0003           -0.3355424              -9.1306
        42        0.0000           -0.2930058              -7.9731
       ...           ...                  ...                  ...
        67                          0.6139525              16.7065
      -------------------------------------------------------------
                  HL-Gap            0.0458551 Eh            1.2478 eV
             Fermi-level           -0.4778146 Eh          -13.0020 eV

 SCC (total)                   0 d,  0 h,  0 min,  0.023 sec
 SCC setup                      ...        0 min,  0.000 sec (  0.874%)
 Dispersion                     ...        0 min,  0.000 sec (  0.791%)
 classical contributions        ...        0 min,  0.000 sec (  0.318%)
 integral evaluation            ...        0 min,  0.004 sec ( 19.506%)
 iterations                     ...        0 min,  0.005 sec ( 20.493%)
 molecular gradient             ...        0 min,  0.013 sec ( 57.429%)
 printout                       ...        0 min,  0.000 sec (  0.542%)

         :::::::::::::::::::::::::::::::::::::::::::::::::::::
         ::                     SUMMARY                     ::
         :::::::::::::::::::::::::::::::::::::::::::::::::::::
         :: total energy             -42.126244382046 Eh    ::
         :: gradient norm              0.001993101059 Eh/a0 ::
         :: HOMO-LUMO gap              1.247781171910 eV    ::
         ::.................................................::
         :: SCC energy               -42.669001620203 Eh    ::
         :: -> isotropic ES            0.125477161914 Eh    ::
         :: -> anisotropic ES         -0.008957558373 Eh    ::
         :: -> anisotropic XC          0.020434742641 Eh    ::
         :: -> dispersion             -0.020670012045 Eh    ::
         :: repulsion energy           0.542667741877 Eh    ::
         :: add. restraining           0.000000007931 Eh    ::
         :: total charge               1.000000000000 e     ::
         :::::::::::::::::::::::::::::::::::::::::::::::::::::

           -------------------------------------------------
          |                Property Printout                |
           -------------------------------------------------

    * Orbital Energies and Occupations

         #    Occupation            Energy/Eh            Energy/eV
      -------------------------------------------------------------
         1        2.0000           -0.8998288             -24.4856
       ...           ...                  ...                  ...
        25        2.0000           -0.6503146             -17.6960
        26        2.0000           -0.6485177             -17.6471
        27        2.0000           -0.6456934             -17.5702
        28        1.9999           -0.6312723             -17.1778
        29        1.9996           -0.6135966             -16.6968
        30        1.9996           -0.6126473             -16.6710
        31        1.9994           -0.6064472             -16.5023
        32        1.9993           -0.6048811             -16.4597
        33        1.9991           -0.5993518             -16.3092
        34        1.9980           -0.5874480             -15.9853
        35        1.9592           -0.5391272             -14.6704
        36        1.9207           -0.5282804             -14.3752
        37        1.6635           -0.5031194             -13.6906 (HOMO)
        38        0.4291           -0.4572643             -12.4428 (LUMO)
        39        0.0309           -0.4120309             -11.2119
        40        0.0016           -0.3646458              -9.9225
        41        0.0003           -0.3355424              -9.1306
        42        0.0000           -0.2930058              -7.9731
        43                         -0.1943848              -5.2895
        44                         -0.1811497              -4.9293
        45                         -0.1504458              -4.0938
        46                         -0.0755459              -2.0557
        47                         -0.0581390              -1.5820
        48                         -0.0390019              -1.0613
       ...                                ...                  ...
        67                          0.6139525              16.7065
      -------------------------------------------------------------
                  HL-Gap            0.0458551 Eh            1.2478 eV
             Fermi-level           -0.4778146 Eh          -13.0020 eV

     #   Z          covCN         q      C6AA      α(0)
     1   6 C        3.691    -0.086    22.327     6.761
     2   7 N        2.823     0.083    19.802     6.609
     3   6 C        3.080     0.045    26.901     8.503
     4   7 N        2.779    -0.052    22.251     7.006
     5   6 C        3.183     0.103    25.303     8.210
     6   6 C        3.175    -0.032    28.379     8.700
     7   6 C        2.866     0.187    24.012     8.032
     8   8 O        0.856    -0.329    20.314     6.043
     9   7 N        1.770    -0.176    25.593     7.491
    10   6 C        2.760     0.058    26.689     8.460
    11   6 C        2.896     0.237    23.065     7.874
    12   8 O        0.857    -0.306    19.891     5.980
    13   7 N        2.764    -0.055    22.309     7.015
    14   6 C        3.687    -0.065    21.944     6.705
    15   1 H        0.924     0.109     1.702     2.040
    16   1 H        0.925     0.102     1.771     2.081
    17   1 H        0.925     0.119     1.618     1.989
    18   1 H        0.926     0.120     1.617     1.988
    19   1 H        0.924     0.101     1.780     2.086
    20   1 H        0.860     0.197     1.119     1.657
    21   1 H        0.925     0.137     1.480     1.902
    22   1 H        0.924     0.081     1.973     2.197
    23   1 H        0.924     0.081     1.970     2.195
    24   1 H        0.925     0.115     1.651     2.009
    25   1 H        0.860     0.226     0.981     1.551

 Mol. C6AA /au·bohr⁶  :       6631.547818
 Mol. C8AA /au·bohr⁸  :     152784.357344
 Mol. α(0) /au        :        125.086888


Wiberg/Mayer (AO) data.
largest (>0.10) Wiberg bond orders for each atom

 ---------------------------------------------------------------------------
     #   Z sym  total        # sym  WBO       # sym  WBO       # sym  WBO
 ---------------------------------------------------------------------------
     1   6 C    3.927 --     2 N    0.990    16 H    0.970    17 H    0.968
                            15 H    0.954
     2   7 N    3.669 --     3 C    1.387     6 C    1.156     1 C    0.990
     3   6 C    3.857 --     2 N    1.387     4 N    1.258    18 H    0.954
     4   7 N    3.597 --     3 C    1.258     5 C    1.213    25 H    0.921
     5   6 C    3.885 --     6 C    1.299     4 N    1.213    13 N    1.195
     6   6 C    3.876 --     5 C    1.299     2 N    1.156     7 C    1.107
     7   6 C    3.814 --     8 O    1.692     6 C    1.107    11 C    0.907
     8   8 O    1.907 --     7 C    1.692
     9   7 N    2.976 --    10 C    2.041    20 H    0.915
    10   6 C    3.874 --     9 N    2.041    21 H    0.913    19 H    0.901
    11   6 C    3.840 --    12 O    1.755    13 N    1.059     7 C    0.907
    12   8 O    2.006 --    11 C    1.755    13 N    0.120
    13   7 N    3.531 --     5 C    1.195    11 C    1.059    14 C    0.981
                            12 O    0.120
    14   6 C    3.931 --    13 N    0.981    22 H    0.971    23 H    0.970
                            24 H    0.969
    15   1 H    0.984 --     1 C    0.954
    16   1 H    0.988 --     1 C    0.970
    17   1 H    0.985 --     1 C    0.968
    18   1 H    0.985 --     3 C    0.954
    19   1 H    0.912 --    10 C    0.901
    20   1 H    0.937 --     9 N    0.915
    21   1 H    0.944 --    10 C    0.913
    22   1 H    0.990 --    14 C    0.971
    23   1 H    0.990 --    14 C    0.970
    24   1 H    0.986 --    14 C    0.969
    25   1 H    0.948 --     4 N    0.921
 ---------------------------------------------------------------------------

Topologies differ in total number of bonds
Writing topology from bond orders to xtbtopo.mol

molecular dipole:
                 x           y           z       tot (Debye)
 q only:        2.464      -1.380      -0.570
   full:        2.883      -1.655      -0.496       8.542
molecular quadrupole (traceless):
                xx          xy          yy          xz          yz          zz
 q only:       12.116     -12.180      13.345      -0.150      -2.969     -25.461
  q+dip:        8.019     -15.821      18.042      -1.429      -2.718     -26.061
   full:        7.892     -15.614      17.088      -0.769      -3.062     -24.980

           -------------------------------------------------
          |                Geometry Summary                 |
           -------------------------------------------------

      molecular mass/u    :      195.1988581
   center of mass at/Å    :       -0.0209778      -0.0562442       0.0665455
  moments of inertia/u·Å² :        0.5294907E+03   0.9625573E+03   0.1396499E+04
rotational constants/cm⁻¹ :        0.3183745E-01   0.1751338E-01   0.1207136E-01

 * 23 selected distances

     #   Z          #   Z                                           value/Å
     1   6 C        2   7 N                                       1.4367388
     2   7 N        3   6 C                                       1.3305709
     3   6 C        4   7 N                                       1.3595187
     4   7 N        5   6 C                                       1.3538952
     2   7 N        6   6 C                                       1.3718479
     5   6 C        6   6 C                                       1.3962115
     6   6 C        7   6 C                                       1.4411374
     7   6 C        8   8 O                                       1.2179193
     9   7 N       10   6 C                                       1.2389304
    11   6 C       12   8 O                                       1.2023323
     5   6 C       13   7 N                                       1.3494724
    11   6 C       13   7 N                                       1.4118477
    13   7 N       14   6 C                                       1.4426406 (max)
     1   6 C       15   1 H                                       1.0921479
     1   6 C       16   1 H                                       1.0883816
     1   6 C       17   1 H                                       1.0887138
     3   6 C       18   1 H                                       1.0717435
    10   6 C       19   1 H                                       1.0933604
    10   6 C       21   1 H                                       1.0854577
    14   6 C       22   1 H                                       1.0905767
    14   6 C       23   1 H                                       1.0909241
    14   6 C       24   1 H                                       1.0891494
     4   7 N       25   1 H                                       1.0102514 (min)

 * 5 distinct bonds (by element types)

   Z      Z             #   av. dist./Å        max./Å        min./Å
   1 H    6 C           9     1.0878284     1.0933604     1.0717435
   6 C    6 C           2     1.4186744     1.4411374     1.3962115
   1 H    7 N           1     1.0102514     1.0102514     1.0102514
   6 C    7 N           9     1.3661625     1.4426406     1.2389304
   6 C    8 O           2     1.2101258     1.2179193     1.2023323


optimized geometry written to: xtbopt.xyz


           -------------------------------------------------
          | TOTAL ENERGY              -42.126244382046 Eh   |
          | GRADIENT NORM               0.001993101059 Eh/α |
          | HOMO-LUMO GAP               1.247781171910 eV   |
           -------------------------------------------------

------------------------------------------------------------------------
 * finished run on 2024/06/05 at 19:59:14.558     
------------------------------------------------------------------------
 total:
 * wall-time:     0 d,  0 h,  0 min,  2.336 sec
 *  cpu-time:     0 d,  0 h,  0 min,  2.304 sec
 * ratio c/w:     0.986 speedup
 SCF:
 * wall-time:     0 d,  0 h,  0 min,  0.038 sec
 *  cpu-time:     0 d,  0 h,  0 min,  0.038 sec
 * ratio c/w:     1.000 speedup
 ANC optimizer:
 * wall-time:     0 d,  0 h,  0 min,  2.257 sec
 *  cpu-time:     0 d,  0 h,  0 min,  2.252 sec
 * ratio c/w:     0.998 speedup

