25
 energy: -43.829791612647 gnorm: 0.097686834488 xtb: 6.6.1 (8d0f1dd)
C            3.28841819639796        1.17365433479589        0.08581432107740
N            2.33129899448169        0.10963195947343        0.02913114182727
C            2.61011457041162       -1.26054318005409        0.03759913812266
N            1.39927271275748       -1.93153145359678        0.00828739470569
C            0.40720216666843       -1.01384287211032       -0.01903806684232
C            0.93929817423933        0.26705372332548       -0.00852549043491
C            0.08942086138109        1.40209989873721       -0.08387311454684
O            0.47249095153131        2.58041542309926       -0.00746211722424
N           -1.36398300748578        1.01125517779978       -0.10704148610862
C           -2.29539791425802        2.09638671360246       -0.00671818435721
C           -1.85308484865873       -0.21141613543395       -0.17698198070784
O           -3.03764617195487       -0.42069710454936       -0.16910060678189
N           -0.93971043241974       -1.24845500272042       -0.07528991725664
C           -1.45783417676855       -2.61043465079018       -0.04552284543330
H            3.76145954371028        1.23891935365632        1.06866564682597
H            4.11828268644251        1.03199804739579       -0.66003845175910
H            2.80467463607352        2.11117462744498       -0.11572537420981
H            3.57450584265400       -1.70717835814588        0.04844379325939
H           -1.67762410611643        3.00614490248324        0.05233284400382
H           -2.92416847779324        2.11982728634065       -0.90296433241465
H           -2.94749220460712        1.96861133479924        0.86864713588996
H           -1.12464827688403       -3.14869485669159        0.84535206929966
H           -1.15230933004614       -3.13187660152875       -0.90545110149550
H           -2.54322873013172       -2.50720769176506       -0.03165021989421
H            1.32287744567545       -2.94035078659726       -0.00706392382200
25
 energy: -43.835580369062 gnorm: 0.032848727286 xtb: 6.6.1 (8d0f1dd)
C            3.28645754877138        1.17085374331878        0.08518646021409
N            2.32698234299608        0.11272755099513        0.02085121535054
C            2.60373279917905       -1.24912783938118        0.03577162345048
N            1.40228228204025       -1.92573593742349        0.00348302599144
C            0.40343516058709       -1.02551420094086       -0.02260245641504
C            0.93355894139491        0.25900247459556       -0.00765176422462
C            0.09524581212243        1.39639771269070       -0.05769679915936
O            0.44767696937446        2.57892984670425       -0.02366299089764
N           -1.33081538317494        1.02690254245143       -0.09060137200663
C           -2.27780367961012        2.11338011262509       -0.01874979504965
C           -1.84330169541057       -0.21291104245339       -0.13102851161069
O           -3.04038910744456       -0.42461788558856       -0.18070177846070
N           -0.93557338532771       -1.27053334669652       -0.06954840375674
C           -1.45676337114067       -2.62277201971745       -0.04953361803223
H            3.75627641168108        1.22895537586480        1.07281709895591
H            4.09055913890749        1.02246592914624       -0.65763592287052
H            2.78539913344644        2.11036366805122       -0.11764599006473
H            3.56941103634566       -1.69392191370041        0.04982149126808
H           -1.69054261480442        3.02977079939633        0.05296991339086
H           -2.91369409939288        2.13115494592548       -0.90714676311906
H           -2.92400895039068        1.98688601593694        0.85460658610516
H           -1.12217716079074       -3.14739790027494        0.84803576094243
H           -1.14910669970181       -3.15933500599636       -0.93344772377620
H           -2.54225337187682       -2.52091613836113       -0.02860619010213
H            1.32760104751990       -2.93006339819756       -0.00545682440030
25
 energy: -43.835782435864 gnorm: 0.022142695274 xtb: 6.6.1 (8d0f1dd)
C            3.30457323042869        1.16743959865013        0.08270215571905
N            2.33373963621882        0.11419413999317        0.01634378188313
C            2.60225627308672       -1.24869685403789        0.04114384448528
N            1.40076830870504       -1.92078922752247        0.00642783597369
C            0.40251203382185       -1.02331173844859       -0.03436360773130
C            0.93581255908878        0.26045975331607       -0.02523845505977
C            0.09922892372667        1.39800789911912       -0.07115739910528
O            0.44213684008953        2.57924230005985       -0.01636478032947
N           -1.31488650557880        1.03518923930833       -0.11309544915954
C           -2.28955365436954        2.09926192926023       -0.00989895421647
C           -1.83974538658967       -0.20881727897357       -0.15899568685510
O           -3.03889971280748       -0.42398365993707       -0.18824964736749
N           -0.93378666418305       -1.26898791670018       -0.08369876031498
C           -1.46387931648676       -2.60696229256503       -0.03660419579744
H            3.76387800659275        1.23412527820599        1.07516450936853
H            4.11104761657194        1.02323270719749       -0.64556623865730
H            2.80535368950113        2.11182158278440       -0.12305418374052
H            3.56568002533592       -1.70371080851862        0.05344367720747
H           -1.70504496144570        3.01028654930077        0.06897315037260
H           -2.93209170079490        2.11682953438939       -0.89216312440515
H           -2.93064139111794        1.94716334355067        0.86618667866655
H           -1.13478883122098       -3.12992654161712        0.86301691286679
H           -1.15114994527308       -3.15401533415971       -0.92218289988537
H           -2.54850047998719       -2.49883291186850       -0.03040097561451
H            1.31817051198751       -2.92427520181676       -0.00054191658066
25
 energy: -43.836484272827 gnorm: 0.012776305403 xtb: 6.6.1 (8d0f1dd)
C            3.29717825730800        1.17017100757641        0.08156906161672
N            2.33035761623721        0.11222783021439        0.02414788303698
C            2.60246455291383       -1.25158177935397        0.04282679592978
N            1.40041335652682       -1.92423870134012        0.01003135954338
C            0.39972919933005       -1.02532117367256       -0.02189604895794
C            0.93166497589365        0.25801370194601       -0.01339495245358
C            0.09586409812030        1.39622247617393       -0.06398120951572
O            0.44834169816469        2.57609453427798       -0.01018162719256
N           -1.31795001254936        1.03408725741313       -0.10577660168407
C           -2.28639098166274        2.10596931558900       -0.01573498209615
C           -1.84581879760172       -0.20880513261929       -0.14918197762890
O           -3.04230693210961       -0.42327272915899       -0.16595968718285
N           -0.93811407570814       -1.26919812559378       -0.07253477049020
C           -1.45999516185893       -2.60963861237302       -0.03799602415797
H            3.76208672000659        1.23849357109678        1.07046231097816
H            4.09871250272264        1.03355888386025       -0.65627572778083
H            2.79213559635486        2.11311829662923       -0.11425317070674
H            3.56735561695873       -1.70611157388291        0.04231693985944
H           -1.68284624128373        3.00724286873166        0.04891509518720
H           -2.91642270686762        2.11890913116683       -0.90676532538565
H           -2.93798723480131        1.97739023114221        0.85764775392008
H           -1.12215280901165       -3.15288393269539        0.84552166684174
H           -1.14679911010938       -3.14138368037406       -0.92876135334739
H           -2.54502333123069       -2.51492795567869       -0.03111048942844
H            1.31769230955782       -2.92919162010494       -0.00780864718175
25
 energy: -43.836633303702 gnorm: 0.009154917901 xtb: 6.6.1 (8d0f1dd)
C            3.29291390598927        1.16957272279355        0.08236378443204
N            2.32818503085843        0.11311767750737        0.02248384171784
C            2.60532923412788       -1.24954090477424        0.04324534331508
N            1.40456824704893       -1.92510077942534        0.00689892910405
C            0.40186804280879       -1.02558032893482       -0.02477240972949
C            0.93060868394919        0.25887108031230       -0.01511574452271
C            0.09287104808853        1.39726603255246       -0.06739440580376
O            0.45158473714727        2.57802379415559       -0.02423511497023
N           -1.32268266452285        1.03269579322875       -0.10314937954455
C           -2.28537670671433        2.11087570869725       -0.01100874477378
C           -1.84651113398222       -0.20954626015733       -0.15030314443222
O           -3.04063612894353       -0.42497347234172       -0.18107794585843
N           -0.93731870101369       -1.26963400668177       -0.07717849943966
C           -1.45795891260355       -2.61337748746450       -0.04180491231248
H            3.75404902573804        1.23177355672284        1.07340471408716
H            4.09742080014957        1.02101517794958       -0.65435890393702
H            2.79217380873060        2.11212614024185       -0.11848990830738
H            3.57199051850453       -1.69807861526820        0.05175775344317
H           -1.69134979014399        3.02226174772593        0.05852405828868
H           -2.91956613738575        2.12915244923268       -0.89933341192073
H           -2.93024761929283        1.97679365901487        0.86462036900789
H           -1.12279597519112       -3.14617617742357        0.84903783707408
H           -1.14951908000169       -3.15743228075487       -0.92399506559877
H           -2.54263999132571       -2.51822833679241       -0.03123611220774
H            1.32522886328054       -2.93093280114615       -0.00705665538829
25
 energy: -43.836730373156 gnorm: 0.005158994743 xtb: 6.6.1 (8d0f1dd)
C            3.29764133126180        1.16949168478465        0.08235086436339
N            2.33072861955742        0.11360488643320        0.02128190058077
C            2.60469456115660       -1.24973825214540        0.03881604130598
N            1.40362571447994       -1.92399646504252        0.00649640423815
C            0.40258161409511       -1.02446634370706       -0.02418983819923
C            0.93257815908324        0.25959595836095       -0.01366813331317
C            0.09330940128567        1.39732946832231       -0.06063711106781
O            0.44869621296249        2.57853304687746       -0.01298051315961
N           -1.31959014457652        1.03223480390027       -0.10126832114708
C           -2.28730597696482        2.10618607885149       -0.01570622074584
C           -1.84523145479461       -0.20968774402952       -0.14634630201410
O           -3.03968234113677       -0.42547945035970       -0.17939319270322
N           -0.93611252312436       -1.26924967867334       -0.07447164820917
C           -1.46043702068817       -2.60994032589491       -0.04075051354910
H            3.76249427477364        1.23186353891301        1.07191478116731
H            4.10109634408888        1.02600831037807       -0.65474833762974
H            2.79622480724726        2.11240839955927       -0.11663940542393
H            3.56968532327958       -1.70109648527935        0.04445254702919
H           -1.69574189064468        3.01793353863881        0.05507848377469
H           -2.91954552313838        2.11855323186741       -0.90555081243720
H           -2.93354810720320        1.96844131745812        0.85765498153663
H           -1.12810222114233       -3.14317988086289        0.85121770092827
H           -1.15234376008163       -3.15222040488794       -0.92597545517424
H           -2.54496702435865       -2.50901361032611       -0.03024248498396
H            1.32144072988279       -2.92917153416620       -0.00486914344421
25
 energy: -43.836722376639 gnorm: 0.005714015297 xtb: 6.6.1 (8d0f1dd)
C            3.29658143228151        1.17032612236144        0.08263827784577
N            2.33013964455027        0.11303203758985        0.02155977523557
C            2.60230277353167       -1.25070572475707        0.04272726928268
N            1.40104746741122       -1.92400166100036        0.00740860566436
C            0.40082745923163       -1.02460370221978       -0.02652186966255
C            0.93195277692259        0.25875478053085       -0.01851399262348
C            0.09330669118844        1.39619045425932       -0.06918965862489
O            0.44741737381455        2.57706108848093       -0.01824288109342
N           -1.31743851151143        1.03239357944920       -0.10605431607762
C           -2.28502848480045        2.10602448748061       -0.01287303567611
C           -1.84644171603431       -0.20933413715053       -0.14928741668805
O           -3.04142774177566       -0.42411260528044       -0.17362782366427
N           -0.93739659512385       -1.26966608658773       -0.07626096712532
C           -1.45919244629676       -2.61016861012398       -0.04057596860554
H            3.75910448972665        1.23813406040004        1.07300798580204
H            4.10125824374424        1.02982885202553       -0.65191057789653
H            2.79303099071802        2.11211363954536       -0.11887118251799
H            3.56642092122713       -1.70427075178426        0.05102132240058
H           -1.68594402228180        3.01129783941204        0.05600768476289
H           -2.92074539614037        2.12247857628277       -0.89979520149599
H           -2.92901152196181        1.97078755826193        0.86305699456831
H           -1.12385609092402       -3.14572182278715        0.84927242533930
H           -1.14739664241064       -3.14818532589292       -0.92822034002312
H           -2.54439452834078       -2.51394312583806       -0.03123472775554
H            1.31707253855423       -2.92876543368751       -0.00369410964833
25
 energy: -43.836786318930 gnorm: 0.002020641012 xtb: 6.6.1 (8d0f1dd)
C            3.29623169863988        1.16945705727937        0.08234683283654
N            2.32984400741878        0.11312567745024        0.02273638679590
C            2.60412094680836       -1.25004434310609        0.04177391344852
N            1.40315805664292       -1.92428242545082        0.00704728054557
C            0.40172183101892       -1.02484135831873       -0.02441978272055
C            0.93185582689771        0.25888353579861       -0.01493814333477
C            0.09290824409117        1.39671157846218       -0.06516722884916
O            0.44952795192801        2.57738155449251       -0.01637538907075
N           -1.31893435937511        1.03315216572961       -0.10458379904117
C           -2.28689028547354        2.10768584306681       -0.01336808733477
C           -1.84622918285955       -0.20884443590606       -0.15059370445938
O           -3.04070522801384       -0.42412784703266       -0.17830278608013
N           -0.93700147830111       -1.26939546151810       -0.07574672200815
C           -1.45892862924787       -2.61083693156307       -0.03945078428721
H            3.75977729173841        1.23355295869944        1.07227420442170
H            4.09912271092671        1.02525437612766       -0.65474674675889
H            2.79416335936249        2.11218697369482       -0.11703384652239
H            3.56944209010213       -1.70146649705052        0.04712424572394
H           -1.69127694195588        3.01605025942058        0.05702915527275
H           -2.91957741661930        2.12421787043354       -0.90241967037668
H           -2.93433307464319        1.97294730820203        0.86028212244667
H           -1.12460369489825       -3.14599608965424        0.85093229872682
H           -1.14819136876240       -3.15169337836885       -0.92467370292891
H           -2.54402999064141       -2.51477955239869       -0.03054691212442
H            1.32101674051625       -2.92935474951948       -0.00735286259834
25
 energy: -43.836778195764 gnorm: 0.002621360770 xtb: 6.6.1 (8d0f1dd)
C            3.29609631192549        1.17005277110720        0.08216304290692
N            2.33014561005310        0.11342334975157        0.02157419491736
C            2.60480910831100       -1.24978928648226        0.04131043334717
N            1.40390833090265       -1.92446700628833        0.00773236550139
C            0.40240691919081       -1.02495081242619       -0.02453790199415
C            0.93229614656964        0.25897492906511       -0.01523134509319
C            0.09279666448594        1.39677915582401       -0.06493734855551
O            0.44989073115463        2.57777011927928       -0.01810084861085
N           -1.31899537300735        1.03233460214018       -0.10261566407185
C           -2.28634341138277        2.10710991589880       -0.01355660680091
C           -1.84597910232937       -0.20940589161847       -0.14725748880718
O           -3.04015297540808       -0.42507391709955       -0.17636000549916
N           -0.93649420453981       -1.26960305494997       -0.07532951707625
C           -1.46028539785089       -2.61052550394531       -0.04192691256868
H            3.75853442985115        1.23377481256755        1.07264997980382
H            4.10076739547123        1.02616840471565       -0.65362504083037
H            2.79432082426783        2.11256765279476       -0.11794373474813
H            3.57019234582027       -1.70072963160708        0.04824185190896
H           -1.69246965541510        3.01743010157799        0.05400250770623
H           -2.92034960351822        2.11989028438693       -0.90197218172443
H           -2.93077883013864        1.97168193824903        0.86189013750373
H           -1.12651216100313       -3.14618512829732        0.84817122512965
H           -1.15261796151536       -3.15158744478311       -0.92779782448684
H           -2.54500061858498       -2.51101981178595       -0.03107276584170
H            1.32200358199027       -2.92967645910443       -0.00364428029328
25
 energy: -43.836794429962 gnorm: 0.000898395597 xtb: 6.6.1 (8d0f1dd)
C            3.29622036574725        1.16981453170629        0.08238447711246
N            2.32987045014507        0.11328627381646        0.02174794052803
C            2.60376306771078       -1.25012767815436        0.04101391119803
N            1.40269961375071       -1.92428755104821        0.00680651698077
C            0.40171763961395       -1.02457451109742       -0.02507936661102
C            0.93199759079845        0.25910663891959       -0.01551380117628
C            0.09241048867990        1.39680470632387       -0.06484172269325
O            0.44887278313126        2.57777358415530       -0.01629651602575
N           -1.31888875160337        1.03243341775213       -0.10368241382854
C           -2.28612109730316        2.10722536900650       -0.01382135151723
C           -1.84643065590273       -0.20924942994159       -0.14879393186428
O           -3.04074084398749       -0.42478565641241       -0.17763759758837
N           -0.93693160821646       -1.26943924980365       -0.07571115838279
C           -1.45919127609413       -2.61064840948092       -0.04049751241492
H            3.75961142590441        1.23405911007727        1.07244591326025
H            4.10025145322439        1.02672859905394       -0.65387053656135
H            2.79412539473651        2.11230021164617       -0.11745167643156
H            3.56872467837034       -1.70190693808977        0.04778756973877
H           -1.69059367257503        3.01596020018312        0.05634674141157
H           -2.91922883554548        2.12249325401138       -0.90275512916733
H           -2.93171779385004        1.97103206236705        0.86061349522057
H           -1.12488063408028       -3.14460109971130        0.85053486915246
H           -1.14929205313965       -3.15183069958681       -0.92578195356283
H           -2.54413625826103       -2.51326655748486       -0.03067494090686
H            1.32007763404614       -2.92935608923766       -0.00544555414780
25
 energy: -43.797240091867 gnorm: 0.222858627338 xtb: 6.6.1 (8d0f1dd)
C            3.34886707934769        1.16704660298895        0.08425823531323
N            2.37741605825060        0.12932020495542        0.00604958279215
C            2.61970490678451       -1.31473362053050        0.06376401149290
N            1.36144220225566       -1.90716339158488        0.02523881588113
C            0.41440636434174       -0.96238744969705       -0.03792693278610
C            0.95437748569525        0.31779935182325       -0.04312481230653
C            0.07132597237844        1.48391658305057       -0.11963328694416
O            0.38884148260420        2.59823937198695       -0.01560706319626
N           -1.45462739979857        1.03365621973339       -0.21368550237479
C           -2.37818146546214        2.05454273834235        0.04716583572358
C           -1.87362814885513       -0.21378320529099       -0.31285472689911
O           -3.04923062300430       -0.46695515012682       -0.31001396654420
N           -0.93603344421073       -1.20176730834731       -0.12927560990479
C           -1.43398446330052       -2.57796066032540       -0.02678241122018
H            3.81666135937204        1.25637711139452        1.06793841841033
H            4.22783734428154        1.01325520655054       -0.63732151935763
H            2.91686202899405        2.11604472234819       -0.14053707108327
H            3.55945273131611       -1.78091504044849        0.06594509598703
H           -1.71410332895222        2.94649219892217        0.15693154284258
H           -3.01854652654019        2.15242246739827       -0.84246690980540
H           -3.00992483004296        1.85135383532776        0.91981214382513
H           -1.08077148926614       -3.10037080992823        0.86616981906373
H           -1.17729942654172       -3.13961317961050       -0.84134694088410
H           -2.52014325713797       -2.46649852895425        0.02156680119306
H            1.26652326673279       -2.92576624665335        0.00993199863175
25
 energy: -43.820854054256 gnorm: 0.072751186053 xtb: 6.6.1 (8d0f1dd)
C            3.34512957441557        1.15851906931200        0.08233122679981
N            2.36063011805231        0.12752796235192       -0.00229093055050
C            2.60331104648505       -1.27688753500007        0.06456832521645
N            1.37168195699595       -1.90322444763186        0.01821282551768
C            0.40646637150469       -0.98134696872905       -0.04607048679690
C            0.94508499131070        0.29782871485291       -0.04662982357567
C            0.08436595245708        1.44563979454127       -0.09952979066378
O            0.38106425922386        2.61471164635515       -0.02650437877604
N           -1.39451905414553        1.03576298308854       -0.18888440632867
C           -2.35113781124706        2.07558410692693        0.02617606888226
C           -1.86049737781323       -0.21956046392618       -0.25200790861682
O           -3.05332822654632       -0.46429875022921       -0.32651865983886
N           -0.93090010128603       -1.23653966358655       -0.12245806819555
C           -1.43934882995550       -2.59246312012321       -0.02706211089877
H            3.80351022894156        1.23749781214772        1.07609271507014
H            4.18789019954225        0.99620371403846       -0.63275170907314
H            2.89648278356669        2.11482100660691       -0.14856147160470
H            3.55406416107577       -1.74571554374307        0.06643382771987
H           -1.75123108052015        2.98426796355907        0.16154109996592
H           -3.01238852866554        2.17407945627609       -0.84208615978783
H           -2.97939622327497        1.86803248838051        0.89961169193389
H           -1.07636439113081       -3.08744907291478        0.87652674464693
H           -1.16944333744058       -3.16907459972680       -0.88476600499593
H           -2.52412974580840       -2.48088191804682        0.02665458975412
H            1.28024694350469       -2.91048261145535        0.01216834204618
25
 energy: -43.822961599421 gnorm: 0.030532403560 xtb: 6.6.1 (8d0f1dd)
C            3.36636998972124        1.15455098398103        0.07838496163882
N            2.36248743775588        0.12538667675966       -0.00109381753781
C            2.59362756627003       -1.26238803178540        0.06915981252591
N            1.37073094425327       -1.89344953906921        0.02225022442239
C            0.40161955425583       -0.97296272238703       -0.05685054067580
C            0.94639326221719        0.30506258716102       -0.05868582904492
C            0.07773169460355        1.43047969975576       -0.10993342661320
O            0.36041148444912        2.62196084431506       -0.02765496194298
N           -1.36704946471031        1.03868967945797       -0.20326172988611
C           -2.35418053932104        2.06191612085224        0.03201486367478
C           -1.85797403033558       -0.21368954509895       -0.27807075684392
O           -3.05101961401552       -0.46039639876688       -0.32738626152888
N           -0.92913258983246       -1.23492960391963       -0.13918508876805
C           -1.44508947993001       -2.57326808145645       -0.01154848833693
H            3.81490853806401        1.24416528710766        1.07594793535747
H            4.20409640772034        1.00279375832364       -0.62119645603732
H            2.91010895511764        2.11574790142675       -0.14775043840338
H            3.53972791890944       -1.76277800439911        0.06378096414445
H           -1.74341329413179        2.94759891070997        0.17398455250336
H           -3.01955019301583        2.15215125830297       -0.83049005111326
H           -2.97947841644546        1.82923619220952        0.90976880887616
H           -1.08880800219686       -3.07347570390312        0.88944148311399
H           -1.16867759622713       -3.16225498549606       -0.87580904869635
H           -2.52801752680928       -2.46125665228165        0.02186890182713
H            1.26142087287573       -2.89633860847518        0.01650993519452
25
 energy: -43.823566397012 gnorm: 0.021920385606 xtb: 6.6.1 (8d0f1dd)
C            3.35802103577831        1.15719947109664        0.07512907126012
N            2.35935660380132        0.11933218379506        0.00599777422810
C            2.59859141145908       -1.26422977281519        0.07067619850371
N            1.37775757102956       -1.90018227087954        0.02337770176892
C            0.40125459281219       -0.97772440300218       -0.04347430463558
C            0.94341980629265        0.30317208732869       -0.04526654371036
C            0.07169740610243        1.42667855547175       -0.09639581106012
O            0.37042668452707        2.61520491726641       -0.01714147971519
N           -1.36560207792227        1.04484882767078       -0.18984739832254
C           -2.35540091251314        2.07963942424114        0.02460902558013
C           -1.86279061322408       -0.20895681858705       -0.26046742485548
O           -3.05162523668446       -0.45894580370615       -0.30661958708876
N           -0.93135989557062       -1.23690080341995       -0.12642092302683
C           -1.43858431385251       -2.57934116371053       -0.01485116114696
H            3.80690309125569        1.24836078005263        1.07117181201190
H            4.18747806887018        1.00632326526302       -0.63399427555640
H            2.89102450031089        2.11571955870429       -0.14329593700088
H            3.54576832769627       -1.76855588076824        0.05861835617588
H           -1.73563253998741        2.96300533530791        0.14985691217627
H           -3.00531842216556        2.15662074683754       -0.84916469003046
H           -2.99334455681124        1.87127111124133        0.90002293591557
H           -1.07158476299129       -3.10442760271688        0.86625832851844
H           -1.16723782189722       -3.15694627067702       -0.88637420978377
H           -2.52156830539876       -2.48361809134380        0.02465161382104
H            1.26559423832496       -2.90499535932613        0.00713956382333
25
 energy: -43.824055356919 gnorm: 0.011810077081 xtb: 6.6.1 (8d0f1dd)
C            3.35524613065017        1.15844205585455        0.07793925502425
N            2.35900142407057        0.12193261050974        0.00059626566958
C            2.60396500825347       -1.26330540013030        0.06886582051728
N            1.38280375157316       -1.90241046139788        0.02018787375188
C            0.40428413968970       -0.97968054671068       -0.04943721902061
C            0.94326801239953        0.30397517374019       -0.05531385669383
C            0.06989184107081        1.43321082337826       -0.10971131696295
O            0.38139458511360        2.61416971914473       -0.02959447138525
N           -1.37172976407130        1.04491170227460       -0.19527642305167
C           -2.35786062189734        2.07910224847167        0.03355419120524
C           -1.86374970332272       -0.20966820376375       -0.27074780218775
O           -3.04984076968054       -0.46356903961861       -0.32901700377642
N           -0.93082639190344       -1.23749936537344       -0.13381158504281
C           -1.44050865477441       -2.58086989780086       -0.01657334595068
H            3.79929699124743        1.23936369502135        1.07695264795695
H            4.19055573160837        0.99339059918077       -0.62792414401255
H            2.89805571518070        2.11744898251983       -0.14641522564169
H            3.55323576120709       -1.75706202642442        0.06874855754621
H           -1.75035872455598        2.97691932980689        0.16590384830138
H           -3.01559754552915        2.16677073521887       -0.83384938635314