25
 energy: 0.000000000000 xtb: 6.6.1 (8d0f1dd)
C            3.23720163006194        1.16630919979326        0.08434469647475
N            2.29877817382611        0.07527477071623        0.03981603040599
C            2.58028210190900       -1.21425402444508        0.03006176031096
N            1.43813958087363       -1.93419271955128        0.00098261760884
C            0.39035688448383       -1.05887472636071       -0.00790371836672
C            0.93510056364412        0.21347819449412        0.01709077491437
C            0.09450143893243        1.40504303904423       -0.00410947031874
O            0.49712751527797        2.54126714362870       -0.00342325688240
N           -1.25076640035757        1.06271879480407       -0.03085478223738
C           -2.21907211982101        2.15522099834493       -0.05001256985998
C           -1.81739487048744       -0.20012725993278       -0.04692818574614
O           -2.99983886758376       -0.37846417018721       -0.07008878229737
N           -0.92618586207120       -1.30210215599479       -0.03682761578324
C           -1.46982264913417       -2.64643102187190       -0.06029820460571
H            3.71247264356769        1.21471455160235        1.06488849150277
H            4.00791497605742        1.03430808813993       -0.67357694370751
H            2.69910007168542        2.09770118228144       -0.09130154882931
H            3.56654120610678       -1.63682992603973        0.04233140067262
H           -1.67107961066214        3.09322851271934       -0.02552706933167
H           -2.82428953597071        2.09428624779827       -0.95318082946668
H           -2.87644029173232        2.07745725625962        0.81450067533302
H           -1.17061996399332       -3.19584890659852        0.83242232437030
H           -1.14560257411436       -3.17511610292205       -0.95688275822323
H           -2.55549792440841       -2.55659984320617       -0.07459039797972
H            1.38130855184625       -2.94313852034425       -0.01389874181052
25
 energy: -5.400279656798 xtb: 6.6.1 (8d0f1dd)
C            3.24485342187088        1.17688998754811        0.08661360018672
N            2.30843840758700        0.09541900602054        0.03771009481290
C            2.59969375786780       -1.23279361206759        0.03019717453869
N            1.42746081004928       -1.94014270530288        0.00099480819544
C            0.39655964420843       -1.05580106440670       -0.00823039474610
C            0.93049397979738        0.22284423803780        0.01516575743770
C            0.10153630134864        1.39624906363683       -0.00530490695395
O            0.49822085758150        2.56209410853787       -0.00444641800657
N           -1.26082887419228        1.05096635704645       -0.03154117181340
C           -2.22181912923373        2.14668163272463       -0.04943819529767
C           -1.82378698079598       -0.20039841577858       -0.04846510665539
O           -3.02033468581495       -0.38307034527224       -0.07250386461280
N           -0.93401043513862       -1.30040189150332       -0.03716066774857
C           -1.47153794838479       -2.64242171369897       -0.05989986321835
H            3.72259203580355        1.22329330955389        1.06884924141018
H            4.01337551008831        1.04123705411332       -0.67572621911998
H            2.69874524436815        2.10162402118087       -0.08993543371135
H            3.57781191268897       -1.65939848516464        0.04274393963160
H           -1.66066591837588        3.07810560157256       -0.02442424031726
H           -2.82761231515290        2.09387930217883       -0.95363294309876
H           -2.87949309248220        2.07605227379814        0.81637876938041
H           -1.16766648729736       -3.19355422272617        0.83211211043324
H           -1.14330633540790       -3.17299621314398       -0.95581086234994
H           -2.55681356087635       -2.55146970942248       -0.07378899824828
H            1.36030854782926       -2.94385897529027       -0.01342231398124
25
 energy: -6.566606990477 xtb: 6.6.1 (8d0f1dd)
C            3.25305502362012        1.18225486044141        0.08858744672786
N            2.31515480003518        0.10666178158165        0.03405944649827
C            2.60913662287791       -1.24598061470288        0.03077030348520
N            1.41537127616740       -1.93852064625307        0.00167138819592
C            0.40001434158313       -1.05105474145368       -0.00886371991679
C            0.92714666951668        0.23113451235132        0.01231559758426
C            0.10714858416753        1.38511969535274       -0.00746774162141
O            0.48635583723795        2.56568807978134       -0.00674281939770
N           -1.27150344325993        1.04089958277522       -0.03291289745288
C           -2.22417437768747        2.13986184586486       -0.04841020401733
C           -1.82621662208534       -0.20123939817082       -0.05093558321881
O           -3.02657221536454       -0.39033423365253       -0.07671441718338
N           -0.93945867883765       -1.29645573210534       -0.03771558159278
C           -1.47109191643284       -2.63736628863079       -0.05920182750700
H            3.73651921520089        1.23241321133511        1.06990276599293
H            4.02194321303610        1.05258394235650       -0.67632403029359
H            2.70360311006256        2.10544192198803       -0.08564137467973
H            3.58044293094429       -1.67895284692741        0.04363892998952
H           -1.64762715074675        3.06251188148772       -0.02229069179265
H           -2.83166958794743        2.09518675460762       -0.95250454369504
H           -2.88231782403874        2.07501599150386        0.81812254775737
H           -1.16426806476512       -3.18983233279443        0.83218734496189
H           -1.14132128310278       -3.17009689598907       -0.95446497985696
H           -2.55635416318457       -2.54578077897894       -0.07225589373481
H            1.33889837093964       -2.94013094959644       -0.01177556908507
25
 energy: -6.663826054741 xtb: 6.6.1 (8d0f1dd)
C            3.25760232323629        1.18252108509391        0.08933863147177
N            2.31813521190989        0.10767587599308        0.03098289500609
C            2.60925271551658       -1.25116538915689        0.03142221916289
N            1.41039975781673       -1.93621011190936        0.00274278504917
C            0.40053470847310       -1.04876039834561       -0.00955908639047
C            0.92725925148017        0.23463742518087        0.00994158739042
C            0.10854483748184        1.38313304465054       -0.00975898411847
O            0.47466191480427        2.56662603764956       -0.00924261287906
N           -1.27728077398511        1.03825217032086       -0.03458043313873
C           -2.22594199662219        2.13826404210569       -0.04735577147063
C           -1.82727515606994       -0.20270494233035       -0.05367859502946
O           -3.02693330031977       -0.39691899869032       -0.08121238869883
N           -0.94010529006377       -1.29433396298154       -0.03842922572197
C           -1.46902138028334       -2.63538981853828       -0.05841683708142
H            3.74488362414843        1.23373589991788        1.06926202872262
H            4.02718435166875        1.05994628028569       -0.67657486311719
H            2.70908787291835        2.10760511481470       -0.08084008861485
H            3.57788486750810       -1.68933461340787        0.04448197833578
H           -1.64179280366710        3.05591502631990       -0.01999485996187
H           -2.83479907081474        2.09791574547158       -0.95076059991326
H           -2.88364651217756        2.07466356726100        0.81964273548883
H           -1.16112807649171       -3.18693653566733        0.83321803596257
H           -1.13985138360214       -3.16863502583959       -0.95363532712360
H           -2.55446188669355       -2.54359675443667       -0.07053326920711
H            1.32902086176461       -2.93787616158943       -0.00942605797596
25
 energy: -6.678655446519 xtb: 6.6.1 (8d0f1dd)
C            3.26283243568125        1.18096194865052        0.09019529147262
N            2.32155327672420        0.10657201209054        0.02621693726999
C            2.60711248641801       -1.25524909730004        0.03248543043546
N            1.40632249877471       -1.93315932254639        0.00471065812183
C            0.40020011917811       -1.04569277330226       -0.01092193437462
C            0.92864712166997        0.23847898944359        0.00592631358735
C            0.10948091542799        1.38423428598084       -0.01397094542110
O            0.46038607174634        2.56922892458233       -0.01359676457007
N           -1.28311438643562        1.03684556624886       -0.03778369151543
C           -2.22860515652474        2.13762143740517       -0.04548248247420
C           -1.82907794031374       -0.20454454173621       -0.05874450788027
O           -3.02728253649762       -0.40473840728944       -0.08925919095444
N           -0.93969840117190       -1.29195873468655       -0.03994816902183
C           -1.46516069149035       -2.63405611367308       -0.05693527514972
H            3.75446826955700        1.22903870220179        1.06841473873235
H            4.03227886346052        1.06755820962093       -0.67773723489814
H            2.71624288766964        2.10911793531636       -0.07254533414766
H            3.57288646630527       -1.70024044181103        0.04584357780505
H           -1.63842076478281        3.05094746098136       -0.01586767615824
H           -2.83974082439026        2.10313732273217       -0.94757367791224
H           -2.88508801278819        2.07378606947330        0.82243993281904
H           -1.15524820850689       -3.18293298273215        0.83545972391640
H           -1.13711980562962       -3.16777016770125       -0.95208513148523
H           -2.55089226842605       -2.54313180529619       -0.06735654215567
H            1.31925225228100       -2.93502587448121       -0.00485014989392
25
 energy: -6.644998570234 xtb: 6.6.1 (8d0f1dd)
C            3.26802619376083        1.17789505768081        0.09138162361340
N            2.32452995337842        0.10499092919307        0.01995518702932
C            2.60388723893005       -1.25720110393659        0.03378896943835
N            1.40318175076751       -1.92995776837562        0.00738567683507
C            0.39896546433148       -1.04166813469128       -0.01320938118424
C            0.93028597572503        0.24261018422267       -0.00002146556983
C            0.11012208791657        1.38749152133286       -0.02040227782360
O            0.44850762847451        2.57351296589915       -0.01999186777689
N           -1.28761669499960        1.03643005268741       -0.04281922358872
C           -2.23194561132117        2.13753129491525       -0.04272252728451
C           -1.83158581459550       -0.20563345927127       -0.06637850817702
O           -3.02842997471967       -0.41067744745457       -0.10100771437450
N           -0.93918280046164       -1.28952231742626       -0.04260761900624
C           -1.46010060440148       -2.63358658339056       -0.05463088870103
H            3.76426809386609        1.21656898324810        1.06787166543562
H            4.03559892264359        1.07352222825075       -0.68013416747652
H            2.72359786305372        2.10941681982657       -0.06047280005834
H            3.56690802613778       -1.70894435976646        0.04770260009625
H           -1.63946791506641        3.04892112283485       -0.00965698434805
H           -2.84624348544751        2.11006824860561       -0.94294928388936
H           -2.88624114068511        2.07098471658538        0.82675085395955
H           -1.14625861075736       -3.17803889617531        0.83894509150526
H           -1.13292811213355       -3.16831159162707       -0.94928457948025
H           -2.54616738821901       -2.54562165259292       -0.06254023035406
H            1.31050362175866       -2.93175220840257        0.00208174732764
25
 energy: -6.445234936418 xtb: 6.6.1 (8d0f1dd)
C            3.27890763152889        1.17004163170961        0.09477125495754
N            2.32930851555648        0.10272001204621        0.00468290529986
C            2.59672696988122       -1.25892262169741        0.03666548001510
N            1.39650517072377       -1.92326251914953        0.01358222261665
C            0.39548368811208       -1.03206972401949       -0.01974446103239
C            0.93277807818772        0.25177554958914       -0.01574918340692
C            0.11086359033239        1.39549966549357       -0.03750865139363
O            0.42897021663482        2.58370822622962       -0.03687764662761
N           -1.29539663242718        1.03666541863822       -0.05640511221218
C           -2.23986194071962        2.13750590374044       -0.03557799538947
C           -1.83735445186126       -0.20611276701884       -0.08636891012788
O           -3.03182841385046       -0.41914174558164       -0.13105290371110
N           -0.93900494728224       -1.28419392031598       -0.05032312301561
C           -1.44853375273485       -2.63322922005242       -0.04842411172271
H            3.78613632491075        1.18029527049097        1.06714110010599
H            4.03989213208678        1.08440133886435       -0.68668526368330
H            2.73958814926595        2.10924040955058       -0.02870215168099
H            3.55437439684987       -1.72343032719268        0.05244426327752
H           -1.64697662279400        3.04786607944187        0.00683268612266
H           -2.86192917093832        2.12597376017504       -0.93110723556486
H           -2.88797659967374        2.06048627635990        0.83808049591081
H           -1.12319714548813       -3.16584969024658        0.84824220490629
H           -1.12245896487648       -3.17173768877172       -0.94096761357643
H           -2.53533947620055       -2.55475396081381       -0.04978344999648
H            1.29253792271230       -2.92444675529739        0.01986909607640
25
 energy: -4.569392606809 xtb: 6.6.1 (8d0f1dd)
C            3.31360940349154        1.14329084908022        0.10730024991850
N            2.34190171860563        0.09765477823033       -0.04733653208475
C            2.57391814309831       -1.26170150933195        0.04622422252317
N            1.37438951347249       -1.90200313056016        0.03366521235784
C            0.38364753602078       -1.00051271976753       -0.04359663235307
C            0.93882589924602        0.28130468494706       -0.07115461918999
C            0.11189097048192        1.42160284179155       -0.09779177788269
O            0.37427502053248        2.61630884012559       -0.09677194340343
N           -1.31838760699364        1.03919770619126       -0.10450455416719
C           -2.26632590705329        2.13725924392580       -0.01071057712879
C           -1.85577990866691       -0.20501977014900       -0.15609518317144
O           -3.04323263772372       -0.44062451267000       -0.23490231939524
N           -0.94005989996308       -1.26680451944197       -0.07871336470548
C           -1.41114743391524       -2.63207963177831       -0.02637069071793
H            3.85860851530367        1.05113107229523        1.06446225937439
H            4.04972463439719        1.11884156853776       -0.70907672233552
H            2.79244349545821        2.10807182214337        0.08365926941589
H            3.51539610898886       -1.76362628138567        0.06901887162524
H           -1.67699610858159        3.04759851304717        0.06520631655048
H           -2.91456440654422        2.17810008129563       -0.88988112363765
H           -2.89245293363861        2.01854710585640        0.87724722965267
H           -1.04483380966554       -3.12280008838908        0.88119938197140
H           -1.08804746313708       -3.18610675685880       -0.91020423895069
H           -2.50023970460164       -2.58799375297571       -0.00472798689553
H            1.23565152932363       -2.90060783198715        0.08088914877711
25
 energy: -0.328688895846 xtb: 6.6.1 (8d0f1dd)
C            3.35024261410392        1.11229180162941        0.12178826039463
N            2.35320409659216        0.09389510192541       -0.10521719105498
C            2.54967160454232       -1.26099115187466        0.05842658331169
N            1.35073091339935       -1.87890602792103        0.05547624169717
C            0.37040927364203       -0.96614078705849       -0.07135023233190
C            0.94407597608977        0.31250838292797       -0.13438545395302
C            0.11186365045221        1.45031767367310       -0.16672799131416
O            0.32318539301468        2.65047072088204       -0.16696206587414
N           -1.34101657188712        1.04372699319006       -0.15925574082917
C           -2.29523808905130        2.13607866530686        0.01822650678647
C           -1.87538088434928       -0.20172238539331       -0.23505089615726
O           -3.05526087102859       -0.45869970762878       -0.35287413485831
N           -0.94256605367712       -1.24805582213499       -0.11239871171487
C           -1.37151615458458       -2.62995498654697       -0.00132965576624
H            3.93420653831076        0.90428458500494        1.05832391706257
H            4.05757333333466        1.15405045276420       -0.73059015051754
H            2.85155228199437        2.10151029626270        0.20987823777342
H            3.47482750283606       -1.79885397837506        0.08785428376230
H           -1.71480433907337        3.04929636666559        0.13365936020021
H           -2.97177895063812        2.23368432111995       -0.84140221852840
H           -2.89619639187209        1.96486274044820        0.92096156086769
H           -0.95899077256291       -3.07197894887985        0.91808909646682
H           -1.05111458524714       -3.20381551076243       -0.87375968050983
H           -2.46231091114444       -2.62556850841484        0.04705688206655
H            1.17684606473991       -2.87326168463802        0.14859708916761
25
 energy: -0.996886855101 xtb: 6.6.1 (8d0f1dd)
C            3.34990505592612        1.10441461217102        0.12454945542560
N            2.34848882236789        0.09678218041218       -0.11259462613268
C            2.54822521165160       -1.25024048052458        0.06536421505810
N            1.35089642632754       -1.87705917640993        0.05773488660028
C            0.36775210727991       -0.96272516722184       -0.07690526099462
C            0.94178655517165        0.31270383070958       -0.14597697365992
C            0.10945782572092        1.45482425874879       -0.17948255557775
O            0.34135804649016        2.65135302817842       -0.18428672469814
N           -1.33568747163722        1.04858800993728       -0.16793797235099
C           -2.29749389832121        2.13402262912593        0.02566514331857
C           -1.87642312162181       -0.19607613068803       -0.24794192227658
O           -3.05574676810229       -0.44608641557211       -0.37469411024993
N           -0.94576727133992       -1.24737131485340       -0.12104591286463
C           -1.37016674082839       -2.62851884446206        0.00247816063820
H            3.92848211090987        0.87956836084737        1.05113913281479
H            4.05205027473670        1.14685035561182       -0.72402037291607
H            2.85839789538684        2.08542611944927        0.22313599955149
H            3.47512103619733       -1.78023308378731        0.09056879923495
H           -1.73225977498979        3.05599173327437        0.15095685162674
H           -2.97575067048614        2.23483598488210       -0.82819057335417
H           -2.89359308721688        1.94242676853750        0.92749463716357
H           -0.95018925166153       -3.06003887435895        0.92211327806829
H           -1.04806186951612       -3.20970644033064       -0.86489121612377
H           -2.45902524945050       -2.63340439753048        0.05697606557085
H            1.18045847494143       -2.86729894397425        0.15682549227510
25
 energy: -1.070311656884 xtb: 6.6.1 (8d0f1dd)
C            3.35441936336361        1.08318980446853        0.13369781525451
N            2.33505948080733        0.11199145919004       -0.14488867424741
C            2.54452865890990       -1.22575062523072        0.09343544004667
N            1.34140559004628       -1.86890828297623        0.06300554086649
C            0.36258341681756       -0.95168574122421       -0.09798749863338
C            0.93122935265878        0.31676409301712       -0.18937774498130
C            0.09652193842166        1.46091563040839       -0.22660084823162
O            0.37696217483603        2.65522136811537       -0.25095472041964
N           -1.32693731605387        1.05927358256313       -0.19748041261763
C           -2.30431537338391        2.12109857196294        0.05107225619092
C           -1.87679961401364       -0.18146771366416       -0.29553378142844
O           -3.05446126945234       -0.41492671988551       -0.45045106281216
N           -0.95696823632940       -1.24296739053099       -0.15459477515056
C           -1.36591950685123       -2.61770706871571        0.01704574766420
H            3.92454952813795        0.79189835953249        1.02338262763725
H            4.04280084645185        1.14919183967903       -0.70977016959728
H            2.89037112694773        2.04908660342568        0.29308617182723
H            3.47734543411810       -1.73574835648371        0.10056291734038
H           -1.76762838273072        3.05645955066680        0.21402743023066
H           -2.99345308341428        2.24089226755859       -0.78287587852863
H           -2.88392958037409        1.86733171183414        0.94706070784261
H           -0.92381863171996       -3.01110829804012        0.93941514446693
H           -1.04052750593666       -3.22762782372308       -0.83138237877207
H           -2.44812257616898       -2.64790772485787        0.09265151260903
H            1.17731883284847       -2.84848049491791        0.19048852959056
25
 energy: 2.244155171235 xtb: 6.6.1 (8d0f1dd)
C            3.36969423740056        1.05584506207365        0.14989741184702
N            2.32491800411191        0.12648285129239       -0.19669968800008
C            2.53229938796846       -1.20402091923476        0.12618695942725
N            1.32405794465107       -1.85289634885813        0.07321224345893
C            0.35565416014619       -0.93274996797441       -0.13266325978047
C            0.92197656361759        0.32934854470276       -0.25592531245456
C            0.08010640974859        1.47253359731886       -0.30295776245313
O            0.38768807028558        2.66280775044169       -0.34689365527661
N           -1.32850642777823        1.07189559507945       -0.24809598512687
C           -2.31979418989854        2.10594252728249        0.08629902098491
C           -1.87985983519239       -0.16843533863359       -0.37554285285429
O           -3.05339035417631       -0.39480671973469       -0.56623816612767
N           -0.96627062627825       -1.23183084913138       -0.20598212059455
C           -1.35105098752799       -2.60287589390076        0.04292036992492
H            3.95595173136441        0.64269609055763        0.99212002999900
H            4.03313194938098        1.18432204104539       -0.70873861775158
H            2.94287786762241        2.02284246878334        0.42984225916203
H            3.46761141268485       -1.70583412161794        0.10887561789899
H           -1.80541483186898        3.04655698938612        0.30226587839945
H           -3.03062009404609        2.26744691925342       -0.72187203502266
H           -2.87411786513914        1.77245114270724        0.97913832852753
H           -0.87552631120116       -2.93702078436959        0.97627690226171
H           -1.02735106726437       -3.25403979265378       -0.77925597175940
H           -2.42816800810833       -2.66442253521080        0.14792069382309
H            1.15631752743325       -2.82320970643252        0.25294360763436
25
 energy: 3.889373290907 xtb: 6.6.1 (8d0f1dd)
C            3.36008790868447        1.05568914339160        0.16585580195653
N            2.30557205279180        0.15051039135487       -0.20882021501192
C            2.53549530752403       -1.19001794567309        0.16076568408025
N            1.31541682922467       -1.85152742635678        0.06099446173544
C            0.36438631318739       -0.94404778016593       -0.16160730311340
C            0.90518601965705        0.31804469598490       -0.29096761556655
C            0.04984737388143        1.45110026216111       -0.35532514905058
O            0.41176059307084        2.63525907628306       -0.41939441505509
N           -1.32110131227068        1.08069911969592       -0.27115697434473
C           -2.31190057566933        2.08033962950590        0.10833232209374
C           -1.85919327742421       -0.16276573749456       -0.42409692764986
O           -3.03472129039062       -0.36921103099642       -0.62008255043026
N           -0.97077530700971       -1.23189188403355       -0.25716249707233
C           -1.36814653703000       -2.57701623938343        0.06031917999574
H            3.95322593892289        0.57445061819908        0.95018668185240
H            4.01567539971825        1.24892244275230       -0.69642640665911
H            2.96496069227924        2.00895845657725        0.54058152130387
H            3.49019709308139       -1.66009568601182        0.08265746171219
H           -1.78937291759372        2.99878543805147        0.36306351937011
H           -3.03562819250624        2.26074365073051       -0.68210145618570
H           -2.85223732826184        1.70173024699172        0.97797842522254
H           -0.89741228159340       -2.86759181653139        1.00396770463120
H           -1.05086995497112       -3.27344075289800       -0.72953509753758
H           -2.43936798977036       -2.62933550542140        0.17936186671908
H            1.17113011040384       -2.81926276454121        0.28964587315134
25
 energy: 6.770772495640 xtb: 6.6.1 (8d0f1dd)
C            3.37492568993954        1.04264101964207        0.18712447954077
N            2.31232315316586        0.14983974791125       -0.22354936096257
C            2.52342553093243       -1.18724781149294        0.17498561925048
N            1.30755047716613       -1.84197781919762        0.07186203109861
C            0.36132608114041       -0.93195477495779       -0.18918789515613
C            0.91074091003514        0.33015193121496       -0.33264843101701
C            0.04739312967006        1.46198906472168       -0.41569114390824
O            0.38243405870070        2.64614365765838       -0.47617217287757
N           -1.33011781809348        1.08299498417190       -0.31754156615580
C           -2.32242484493739        2.07237003724603        0.13220527705245
C           -1.86359221039000       -0.16465225096590       -0.48903558466340
O           -3.03647177074319       -0.37898392590530       -0.70640183607159
N           -0.96835986857012       -1.22309484094426       -0.29672943252826
C           -1.35585526319131       -2.56773973269774        0.08177343733137
H            3.99364983047825        0.50307532262682        0.93610179700684
H            4.00889759410255        1.28934327893611       -0.68946659238970
H            2.99503082881245        1.98493525508349        0.62443323183970
H            3.47126927810535       -1.67182906077548        0.06244026358189
H           -1.80228685887254        2.98590858101597        0.42686466860818
H           -3.06612264358403        2.29994642613815       -0.64267661668135
H           -2.84430621895447        1.64446104898508        1.00475660630387
H           -0.86468622514328       -2.81310357756331        1.04018894431006
H           -1.04544979793316       -3.29262365834227       -0.68654187202374
H           -2.42918153042318       -2.62724632416148        0.21557462555640
H            1.15210315652335       -2.80431797617567        0.33436541910205
25
 energy: 5.325341695738 xtb: 6.6.1 (8d0f1dd)
C            3.37006455758262        1.06081359116175        0.20684847508882
N            2.32639830177924        0.14144767468193       -0.17683903474861
C            2.52315923218333       -1.20078059427550        0.17248892037304
N            1.31832558319828       -1.84872035127473        0.07191015522353
C            0.36944259127664       -0.94303224176157       -0.20055509811354
C            0.92572458282830        0.32673799668609       -0.32489974351507
C            0.05535977617035        1.45652627094940       -0.43321068544877
O            0.34310928917529        2.64236948147063       -0.48378744294855
N           -1.33414266599864        1.07391833900038       -0.33716893788311
C           -2.31205600865540        2.06467250651985        0.13423472818530
C           -1.85730627633108       -0.18148977290515       -0.50844203173766
O           -3.03225268819186       -0.40550597354677       -0.72175102170344
N           -0.95366117658669       -1.22562655825699       -0.31435142981350
C           -1.36759326986389       -2.55820884271990        0.09173584000792
H            4.01636209646511        0.55391894564626        0.93421177542592
H            3.99179007649938        1.32525193751196       -0.66892948180576
H            2.97607486983814        1.97562206462346        0.62920445657937
H            3.46283242077398       -1.70035571689471       -0.00108764607116
H           -1.77178812956686        2.95937385095670        0.44468475554316
H           -3.05702940030082        2.31687779106399       -0.63927536692289
H           -2.83474049621848        1.63110698488688        1.00186567952416
H           -0.89195019231388       -2.78913123848758        1.06205936802399
H           -1.06813368621559       -3.29758360689415       -0.65700985447402
H           -2.44887143214893       -2.57983750504988        0.21412220074045
H            1.16309671255751       -2.80933643092027        0.33097531661774
25