      -----------------------------------------------------------      
     |                   =====================                   |     
     |                           x T B                           |     
     |                   =====================                   |     
     |                         S. Grimme                         |     
     |          Mulliken Center for Theoretical Chemistry        |     
     |                    University of Bonn                     |     
      -----------------------------------------------------------      

   * xtb version 6.6.1 (8d0f1dd) compiled by 'conda@1efc2f54142f' on 2023-08-01

   xtb is free software: you can redistribute it and/or modify it under
   the terms of the GNU Lesser General Public License as published by
   the Free Software Foundation, either version 3 of the License, or
   (at your option) any later version.
   
   xtb is distributed in the hope that it will be useful,
   but WITHOUT ANY WARRANTY; without even the implied warranty of
   MERCHANTABILITY or FITNESS FOR A PARTICULAR PURPOSE.  See the
   GNU Lesser General Public License for more details.
   
   Cite this work as:
   * C. Bannwarth, E. Caldeweyher, S. Ehlert, A. Hansen, P. Pracht,
     J. Seibert, S. Spicher, S. Grimme, WIREs Comput. Mol. Sci., 2020, 11,
     e01493. DOI: 10.1002/wcms.1493
   
   for GFN2-xTB:
   * C. Bannwarth, S. Ehlert and S. Grimme., J. Chem. Theory Comput., 2019,
     15, 1652-1671. DOI: 10.1021/acs.jctc.8b01176
   for GFN1-xTB:
   * S. Grimme, C. Bannwarth, P. Shushkov, J. Chem. Theory Comput., 2017,
     13, 1989-2009. DOI: 10.1021/acs.jctc.7b00118
   for GFN0-xTB:
   * P. Pracht, E. Caldeweyher, S. Ehlert, S. Grimme, ChemRxiv, 2019, preprint.
     DOI: 10.26434/chemrxiv.8326202.v1
   for GFN-FF:
   * S. Spicher and S. Grimme, Angew. Chem. Int. Ed., 2020, 59, 15665-15673.
     DOI: 10.1002/anie.202004239
   
   for ALPB and GBSA implicit solvation:
   * S. Ehlert, M. Stahn, S. Spicher, S. Grimme, J. Chem. Theory Comput.,
     2021, 17, 4250-4261. DOI: 10.1021/acs.jctc.1c00471
   
   for DFT-D4:
   * E. Caldeweyher, C. Bannwarth and S. Grimme, J. Chem. Phys., 2017,
     147, 034112. DOI: 10.1063/1.4993215
   * E. Caldeweyher, S. Ehlert, A. Hansen, H. Neugebauer, S. Spicher,
     C. Bannwarth and S. Grimme, J. Chem. Phys., 2019, 150, 154122.
     DOI: 10.1063/1.5090222
   * E. Caldeweyher, J.-M. Mewes, S. Ehlert and S. Grimme, Phys. Chem. Chem. Phys.
     2020, 22, 8499-8512. DOI: 10.1039/D0CP00502A
   
   for sTDA-xTB:
   * S. Grimme and C. Bannwarth, J. Chem. Phys., 2016, 145, 054103.
     DOI: 10.1063/1.4959605
   
   in the mass-spec context:
   * V. Asgeirsson, C. Bauer and S. Grimme, Chem. Sci., 2017, 8, 4879.
     DOI: 10.1039/c7sc00601b
   * J. Koopman and S. Grimme, ACS Omega 2019, 4, 12, 15120-15133.
     DOI: 10.1021/acsomega.9b02011
   
   for metadynamics refer to:
   * S. Grimme, J. Chem. Theory Comput., 2019, 155, 2847-2862
     DOI: 10.1021/acs.jctc.9b00143
   
   for SPH calculations refer to:
   * S. Spicher and S. Grimme, J. Chem. Theory Comput., 2021, 17, 1701-1714
     DOI: 10.1021/acs.jctc.0c01306
   
   with help from (in alphabetical order)
   P. Atkinson, C. Bannwarth, F. Bohle, G. Brandenburg, E. Caldeweyher
   M. Checinski, S. Dohm, S. Ehlert, S. Ehrlich, I. Gerasimov, C. Hölzer
   A. Katbashev, J. Koopman, C. Lavigne, S. Lehtola, F. März, M. Müller,
   F. Musil, H. Neugebauer, J. Pisarek, C. Plett, P. Pracht, F. Pultar,
   J. Seibert, P. Shushkov, S. Spicher, M. Stahn, M. Steiner, T. Strunk,
   J. Stückrath, T. Rose, and J. Unsleber
   
 * started run on 2024/06/05 at 20:00:10.349     

           -------------------------------------------------
          |                Calculation Setup                |
           -------------------------------------------------

          program call               : xtb xtbopt.xyz --opt crude --input .xc2 --gfn2
          hostname                   : n-62-11-66
          coordinate file            : xtbopt.xyz
          omp threads                :                     1

   ID    Z sym.   atoms
    1    6 C      1, 3, 5-7, 10, 11, 14
    2    7 N      2, 4, 9, 13
    3    8 O      8, 12
    4    1 H      15-25
########################################################################
[WARNING] Please study the warnings concerning your input carefully
-1- readin_getIntValue: could not parse ''
########################################################################

           -------------------------------------------------
          |                 G F N 2 - x T B                 |
           -------------------------------------------------

        Reference                      10.1021/acs.jctc.8b01176
      * Hamiltonian:
        H0-scaling (s, p, d)           1.850000    2.230000    2.230000
        zeta-weighting                 0.500000
      * Dispersion:
        s8                             2.700000
        a1                             0.520000
        a2                             5.000000
        s9                             5.000000
      * Repulsion:
        kExp                           1.500000    1.000000
        rExp                           1.000000
      * Coulomb:
        alpha                          2.000000
        third order                    shell-resolved
        anisotropic                    true
        a3                             3.000000
        a5                             4.000000
        cn-shift                       1.200000
        cn-exp                         4.000000
        max-rad                        5.000000

q/qsh data taken from xtbrestart
CAMM data taken from xtbrestart

          ...................................................
          :                      SETUP                      :
          :.................................................:
          :  # basis functions                  67          :
          :  # atomic orbitals                  67          :
          :  # shells                           39          :
          :  # electrons                        74          :
          :  max. iterations                   250          :
          :  Hamiltonian                  GFN2-xTB          :
          :  restarted?                       true          :
          :  GBSA solvation                  false          :
          :  PC potential                    false          :
          :  electronic temp.         5000.0000000     K    :
          :  accuracy                    1.0000000          :
          :  -> integral cutoff          0.2500000E+02      :
          :  -> integral neglect         0.1000000E-07      :
          :  -> SCF convergence          0.1000000E-05 Eh   :
          :  -> wf. convergence          0.1000000E-03 e    :
          :  Broyden damping             0.4000000          :
          ...................................................

 iter      E             dE          RMSdq      gap      omega  full diag
   1    -42.6542021 -0.426542E+02  0.110E-05    1.84       0.0  T
   2    -42.6542021  0.184031E-11  0.122E-05    1.84    1644.1  T
   3    -42.6542021 -0.468248E-11  0.301E-06    1.84    6642.0  T

   *** convergence criteria satisfied after 3 iterations ***

         #    Occupation            Energy/Eh            Energy/eV
      -------------------------------------------------------------
         1        2.0000           -0.9540931             -25.9622
       ...           ...                  ...                  ...
        31        1.9992           -0.6374122             -17.3449
        32        1.9991           -0.6339684             -17.2512
        33        1.9941           -0.6047467             -16.4560
        34        1.9891           -0.5950681             -16.1926
        35        1.9490           -0.5702357             -15.5169
        36        1.8948           -0.5583297             -15.1929
        37        1.8166           -0.5488740             -14.9356 (HOMO)
        38        0.2449           -0.4813795             -13.0990 (LUMO)
        39        0.1144           -0.4681845             -12.7399
        40        0.0007           -0.3855576             -10.4916
        41        0.0003           -0.3733287             -10.1588
        42        0.0000           -0.3315092              -9.0208
       ...           ...                  ...                  ...
        67                          0.9098751              24.7590
      -------------------------------------------------------------
                  HL-Gap            0.0674945 Eh            1.8366 eV
             Fermi-level           -0.5125613 Eh          -13.9475 eV

 SCC (total)                   0 d,  0 h,  0 min,  0.028 sec
 SCC setup                      ...        0 min,  0.001 sec (  1.980%)
 Dispersion                     ...        0 min,  0.001 sec (  2.072%)
 classical contributions        ...        0 min,  0.000 sec (  0.644%)
 integral evaluation            ...        0 min,  0.009 sec ( 34.012%)
 iterations                     ...        0 min,  0.005 sec ( 18.549%)
 molecular gradient             ...        0 min,  0.012 sec ( 42.153%)
 printout                       ...        0 min,  0.000 sec (  0.552%)

         :::::::::::::::::::::::::::::::::::::::::::::::::::::
         ::                     SUMMARY                     ::
         :::::::::::::::::::::::::::::::::::::::::::::::::::::
         :: total energy             -42.098371792025 Eh    ::
         :: gradient norm              0.003065212463 Eh/a0 ::
         :: HOMO-LUMO gap              1.836619028373 eV    ::
         ::.................................................::
         :: SCC energy               -42.654202108047 Eh    ::
         :: -> isotropic ES            0.124315482121 Eh    ::
         :: -> anisotropic ES         -0.000031034998 Eh    ::
         :: -> anisotropic XC          0.019362835165 Eh    ::
         :: -> dispersion             -0.021884353867 Eh    ::
         :: repulsion energy           0.555546860428 Eh    ::
         :: add. restraining           0.000000000000 Eh    ::
         :: total charge               1.000000000000 e     ::
         :::::::::::::::::::::::::::::::::::::::::::::::::::::

      ----------------------------------------------------------- 
     |                   =====================                   |
     |                        A N C O P T                        |
     |                   =====================                   |
     |               Approximate Normal Coordinate               |
     |                Rational Function Optimizer                |
      ----------------------------------------------------------- 

          ...................................................
          :                      SETUP                      :
          :.................................................:
          :   optimization level             crude          :
          :   max. optcycles                   200          :
          :   ANC micro-cycles                  20          :
          :   degrees of freedom                69          :
          :.................................................:
          :   RF solver                   davidson          :
          :   write xtbopt.log                true          :
          :   linear?                        false          :
          :   energy convergence         0.5000000E-03 Eh   :
          :   grad. convergence          0.1000000E-01 Eh/α :
          :   maxmium RF displ.          1.0000000          :
          :   Hlow (freq-cutoff)         0.1000000E-01      :
          :   Hmax (freq-cutoff)         5.0000000          :
          :   S6 in model hess.         20.0000000          :
          ...................................................

generating ANC from model Hessian ...
Using Lindh-Hessian (1995)
 Shifting diagonal of input Hessian by    9.1309883647055275E-003
 Lowest  eigenvalues of input Hessian
    0.000000    0.000000    0.000000    0.000000    0.000000    0.000000
    0.010000    0.010783    0.011599    0.012376    0.013611    0.015693
    0.018121    0.019048    0.019505    0.020651    0.022130    0.026551
 Highest eigenvalues
    1.869646    2.175915    2.226938    2.323864    2.657910    2.747859


........................................................................
.............................. CYCLE    1 ..............................
........................................................................

 iter      E             dE          RMSdq      gap      omega  full diag
   1    -42.6542021 -0.426542E+02  0.185E-06    1.84       0.0  T
   2    -42.6542021  0.135003E-12  0.141E-06    1.84   14232.3  T
   3    -42.6542021 -0.710543E-13  0.924E-07    1.84   21646.1  T
     SCC iter.                  ...        0 min,  0.004 sec
     gradient                   ...        0 min,  0.011 sec
 * total energy  :   -42.0983718 Eh     change       -0.9237056E-13 Eh
   gradient norm :     0.0030652 Eh/α   predicted     0.0000000E+00 (-100.00%)
   displ. norm   :     0.0464052 α      lambda       -0.9189599E-05
   maximum displ.:     0.0284028 α      in ANC's #2, #7, #11, ...

   *** GEOMETRY OPTIMIZATION CONVERGED AFTER 1 ITERATIONS ***

------------------------------------------------------------------------
 total energy gain   :        -0.0000000 Eh       -0.0000 kcal/mol
 total RMSD          :         0.0000000 a0        0.0000 Å
 total power (kW/mol):        -0.0000000 (step)   -0.0000 (real)
------------------------------------------------------------------------

 ANCopt (total)                0 d,  0 h,  0 min,  0.032 sec
 optimizer setup                ...        0 min,  0.000 sec (  0.845%)
 model hessian                  ...        0 min,  0.009 sec ( 26.905%)
 ANC generation                 ...        0 min,  0.001 sec (  2.278%)
 coordinate transformation      ...        0 min,  0.000 sec (  0.028%)
 single point calculation       ...        0 min,  0.021 sec ( 64.253%)
 optimization log               ...        0 min,  0.001 sec (  4.619%)
 hessian update                 ...        0 min,  0.000 sec (  0.002%)
 rational function              ...        0 min,  0.000 sec (  0.355%)

================
 final structure:
================
25
 xtb: 6.6.1 (8d0f1dd)
C            2.28304682561441       -0.15548927572167        1.31124023044339
N            1.81756935768964       -0.37343265204062       -0.04306482204246
C            2.55373736687285       -1.10787627732741       -0.93257148694601
N            2.38138921389946       -1.27925551704207       -2.16204822532652
C           -0.57671230252111        0.17147176002262       -0.03832889422320
C            0.72527472992510        0.44412463729150       -0.48060703874775
C            1.01425782070178        1.48248180446304       -1.28918347129728
O            1.34997199704509        2.31870625232695       -2.00233403781541
N           -1.77256752708687        0.82297761311256       -0.19069982100747
C           -2.19412703916441        2.11770384439174       -0.63558257996948
C           -2.39608953169802       -0.20950241267619        0.57264659902582
O           -3.48910076351513       -0.43805086298541        0.93684688679541
N           -1.12212944044369       -0.84227135246283        0.70827501587915
C           -0.73642096606011       -2.16966855574619        1.08822505668802
H            2.88755867158360       -1.00242048794545        1.62838461338113
H            2.89109992655786        0.75030426763977        1.38139530764577
H            1.43405401034630       -0.05124245642475        1.98606740809119
H            3.38784353391855       -1.63069951945654       -0.47618439731909
H           -1.86083179620444        2.29782451561777       -1.65895958249452
H           -3.28265090900767        2.13521432686938       -0.60668541253252
H           -1.80921086678894        2.90752642104222        0.01547023068190
H            0.09802693366111       -2.14691184367450        1.79074942030014
H           -0.45651641052216       -2.76663930943281        0.21710588233296
H           -1.59550592571029       -2.62972139268401        1.57506448526652
H            1.62846460504396       -0.82691498557358       -2.66404974892250

 Bond Distances (Angstroems)
 ---------------------------
C1-N2=1.4486         C1-H15=1.0878        C1-H16=1.0932        C1-H17=1.0895        N2-C1=1.4486         N2-C3=1.3684         
N2-C6=1.4328         C3-N2=1.3684         C3-N4=1.2533         C3-H18=1.0851        N4-C3=1.2533         N4-H25=1.0117        
C5-C6=1.4018         C5-N9=1.3703         C5-N13=1.3721        C6-N2=1.4328         C6-C5=1.4018         C6-C7=1.3474         
C7-C6=1.3474         C7-O8=1.1492         O8-C7=1.1492         N9-C5=1.3703         N9-C10=1.4325        N9-C11=1.4274        
C10-N9=1.4325        C10-H19=1.0913       C10-H20=1.0890       C10-H21=1.0935       C11-N9=1.4274        C11-O12=1.1745       
C11-N13=1.4289       O12-C11=1.1745       N13-C5=1.3721        N13-C11=1.4289       N13-C14=1.4336       C14-N13=1.4336       
C14-H22=1.0910       C14-H23=1.0925       C14-H24=1.0894       H15-C1=1.0878        H16-C1=1.0932        H17-C1=1.0895        
H18-C3=1.0851        H19-C10=1.0913       H20-C10=1.0890       H21-C10=1.0935       H22-C14=1.0910       H23-C14=1.0925       
H24-C14=1.0894       H25-N4=1.0117        
 C  H  Rav=1.0902 sigma=0.0025  Rmin=1.0851  Rmax=1.0935    10
 C  C  Rav=1.3746 sigma=0.0272  Rmin=1.3474  Rmax=1.4018     2
 N  H  Rav=1.0117 sigma=0.0000  Rmin=1.0117  Rmax=1.0117     1
 N  C  Rav=1.3968 sigma=0.0559  Rmin=1.2533  Rmax=1.4486    10
 O  C  Rav=1.1618 sigma=0.0127  Rmin=1.1492  Rmax=1.1745     2

 selected bond angles (degree)
 --------------------
H15-C1-N2=109.51               H16-C1-N2=111.31               H16-C1-H15=108.50              H17-C1-N2=110.06               
H17-C1-H15=109.08              H17-C1-H16=108.32              C3-N2-C1=121.04                C6-N2-C1=116.40                
C6-N2-C3=121.19                N4-C3-N2=129.58                H18-C3-N2=113.50               H18-C3-N4=116.90               
H25-N4-C3=121.87               N9-C5-C6=133.08                N13-C5-C6=133.20               N13-C5-N9= 93.72               
C5-C6-N2=120.05                C7-C6-N2=117.35                C7-C6-C5=122.58                O8-C7-C6=174.78                
C10-N9-C5=136.14               C11-N9-C5= 88.73               C11-N9-C10=133.73              H19-C10-N9=110.52              
H20-C10-N9=107.48              H20-C10-H19=109.12             H21-C10-N9=111.37              H21-C10-H19=109.37             
H21-C10-H20=108.93             

 selected dihedral angles (degree)
 ---------------------------------
C3-N2-C1-H15=330.02           C3-N2-C1-H16= 89.99           C3-N2-C1-H17=210.10           C6-N2-C1-H15=163.24           
C6-N2-C1-H16=283.21           C6-N2-C1-H17= 43.33           N4-C3-N2-C1=188.33            N4-C3-N2-C6=354.47            
H18-C3-N2-C1= 10.19           H18-C3-N2-C6=176.33           H25-N4-C3-N2=  2.05           H25-N4-C3-H18=180.13          
C5-C6-N2-C1=284.18            C5-C6-N2-C3=117.42            C7-C6-N2-C1=102.48            C7-C6-N2-C3=295.72            
N2-C6-C5-N9=173.78            N2-C6-C5-N13=353.98           C7-C6-C5-N9=355.57            C7-C6-C5-N13=175.77           
O8-C7-C6-N2= 20.79            O8-C7-C6-C5=199.05            C10-N9-C5-C6=346.92           C10-N9-C5-N13=166.77          
C11-N9-C5-C6=179.76           C11-N9-C5-N13=359.62          H19-C10-N9-C5= 58.76          H19-C10-N9-C11=220.84         
H20-C10-N9-C5=177.74          H20-C10-N9-C11=339.82         H21-C10-N9-C5=296.98          H21-C10-N9-C11= 99.06         
           -------------------------------------------------
          |                Final Singlepoint                |
           -------------------------------------------------

          ...................................................
          :                      SETUP                      :
          :.................................................:
          :  # basis functions                  67          :
          :  # atomic orbitals                  67          :
          :  # shells                           39          :
          :  # electrons                        74          :
          :  max. iterations                   250          :
          :  Hamiltonian                  GFN2-xTB          :
          :  restarted?                      false          :
          :  GBSA solvation                  false          :
          :  PC potential                    false          :
          :  electronic temp.         5000.0000000     K    :
          :  accuracy                    1.0000000          :
          :  -> integral cutoff          0.2500000E+02      :
          :  -> integral neglect         0.1000000E-07      :
          :  -> SCF convergence          0.1000000E-05 Eh   :
          :  -> wf. convergence          0.1000000E-03 e    :
          :  Broyden damping             0.4000000          :
          ...................................................

 iter      E             dE          RMSdq      gap      omega  full diag
   1    -42.6542021 -0.426542E+02  0.585E-07    1.84       0.0  T
   2    -42.6542021 -0.852651E-13  0.630E-07    1.84   31768.2  T
   3    -42.6542021  0.994760E-13  0.192E-07    1.84  100000.0  T

   *** convergence criteria satisfied after 3 iterations ***

         #    Occupation            Energy/Eh            Energy/eV
      -------------------------------------------------------------
         1        2.0000           -0.9540930             -25.9622
       ...           ...                  ...                  ...
        31        1.9992           -0.6374122             -17.3449
        32        1.9991           -0.6339684             -17.2512
        33        1.9941           -0.6047467             -16.4560
        34        1.9891           -0.5950681             -16.1926
        35        1.9490           -0.5702357             -15.5169
        36        1.8948           -0.5583297             -15.1929
        37        1.8166           -0.5488741             -14.9356 (HOMO)
        38        0.2449           -0.4813795             -13.0990 (LUMO)
        39        0.1144           -0.4681845             -12.7399
        40        0.0007           -0.3855576             -10.4916
        41        0.0003           -0.3733287             -10.1588
        42        0.0000           -0.3315092              -9.0208
       ...           ...                  ...                  ...
        67                          0.9098752              24.7590
      -------------------------------------------------------------
                  HL-Gap            0.0674945 Eh            1.8366 eV
             Fermi-level           -0.5125613 Eh          -13.9475 eV

 SCC (total)                   0 d,  0 h,  0 min,  0.021 sec
 SCC setup                      ...        0 min,  0.000 sec (  0.944%)
 Dispersion                     ...        0 min,  0.000 sec (  0.823%)
 classical contributions        ...        0 min,  0.000 sec (  0.319%)
 integral evaluation            ...        0 min,  0.004 sec ( 20.324%)
 iterations                     ...        0 min,  0.005 sec ( 21.939%)
 molecular gradient             ...        0 min,  0.011 sec ( 54.999%)
 printout                       ...        0 min,  0.000 sec (  0.618%)

         :::::::::::::::::::::::::::::::::::::::::::::::::::::
         ::                     SUMMARY                     ::
         :::::::::::::::::::::::::::::::::::::::::::::::::::::
         :: total energy             -42.098371792025 Eh    ::
         :: gradient norm              0.003065217815 Eh/a0 ::
         :: HOMO-LUMO gap              1.836620104119 eV    ::
         ::.................................................::
         :: SCC energy               -42.654202108047 Eh    ::
         :: -> isotropic ES            0.124315551740 Eh    ::
         :: -> anisotropic ES         -0.000031029299 Eh    ::
         :: -> anisotropic XC          0.019362837551 Eh    ::
         :: -> dispersion             -0.021884353808 Eh    ::
         :: repulsion energy           0.555546860428 Eh    ::
         :: add. restraining           0.000000000000 Eh    ::
         :: total charge               1.000000000000 e     ::
         :::::::::::::::::::::::::::::::::::::::::::::::::::::

           -------------------------------------------------
          |                Property Printout                |
           -------------------------------------------------

    * Orbital Energies and Occupations

         #    Occupation            Energy/Eh            Energy/eV
      -------------------------------------------------------------
         1        2.0000           -0.9540930             -25.9622
       ...           ...                  ...                  ...
        25        2.0000           -0.6871057             -18.6971
        26        2.0000           -0.6805523             -18.5188
        27        1.9997           -0.6497472             -17.6805
        28        1.9996           -0.6475291             -17.6202
        29        1.9994           -0.6405306             -17.4297
        30        1.9993           -0.6397180             -17.4076
        31        1.9992           -0.6374122             -17.3449
        32        1.9991           -0.6339684             -17.2512
        33        1.9941           -0.6047467             -16.4560
        34        1.9891           -0.5950681             -16.1926
        35        1.9490           -0.5702357             -15.5169
        36        1.8948           -0.5583297             -15.1929
        37        1.8166           -0.5488741             -14.9356 (HOMO)
        38        0.2449           -0.4813795             -13.0990 (LUMO)
        39        0.1144           -0.4681845             -12.7399
        40        0.0007           -0.3855576             -10.4916
        41        0.0003           -0.3733287             -10.1588
        42        0.0000           -0.3315092              -9.0208
        43                         -0.2181960              -5.9374
        44                         -0.1989471              -5.4136
        45                         -0.1651536              -4.4941
        46                         -0.1294312              -3.5220
        47                         -0.0897923              -2.4434
        48                         -0.0662027              -1.8015
       ...                                ...                  ...
        67                          0.9098752              24.7590
      -------------------------------------------------------------
                  HL-Gap            0.0674945 Eh            1.8366 eV
             Fermi-level           -0.5125613 Eh          -13.9475 eV

     #   Z          covCN         q      C6AA      α(0)
     1   6 C        3.697    -0.070    22.009     6.710
     2   7 N        2.740    -0.047    22.151     6.990
     3   6 C        2.763     0.122    25.302     8.238
     4   7 N        1.774    -0.252    27.374     7.748
     5   6 C        3.397     0.140    21.539     7.177
     6   6 C        2.888     0.005    27.907     8.661
     7   6 C        1.859     0.258    25.186     8.106
     8   8 O        0.856    -0.078    16.189     5.395
     9   7 N        2.995    -0.088    22.942     7.114
    10   6 C        3.682    -0.063    21.922     6.705
    11   6 C        3.253     0.342    20.397     7.307
    12   8 O        0.856    -0.250    18.909     5.830
    13   7 N        2.995    -0.079    22.778     7.088
    14   6 C        3.683    -0.063    21.919     6.704
    15   1 H        0.925     0.097     1.814     2.106
    16   1 H        0.924     0.083     1.945     2.181
    17   1 H        0.925     0.079     1.995     2.209
    18   1 H        0.925     0.108     1.713     2.047
    19   1 H        0.924     0.087     1.904     2.158
    20   1 H        0.925     0.116     1.645     2.006
    21   1 H        0.924     0.089     1.889     2.149
    22   1 H        0.924     0.092     1.862     2.134
    23   1 H        0.924     0.088     1.897     2.154
    24   1 H        0.925     0.112     1.679     2.026
    25   1 H        0.860     0.170     1.271     1.766

 Mol. C6AA /au·bohr⁶  :       6547.641736
 Mol. C8AA /au·bohr⁸  :     149567.628865
 Mol. α(0) /au        :        122.708881


Wiberg/Mayer (AO) data.
largest (>0.10) Wiberg bond orders for each atom

 ---------------------------------------------------------------------------
     #   Z sym  total        # sym  WBO       # sym  WBO       # sym  WBO
 ---------------------------------------------------------------------------
     1   6 C    3.935 --     2 N    0.984    17 H    0.972    15 H    0.968
                            16 H    0.963
     2   7 N    3.380 --     3 C    1.173     1 C    0.984     6 C    0.968
                             4 N    0.146
     3   6 C    3.947 --     4 N    1.800     2 N    1.173    18 H    0.923
     4   7 N    2.921 --     3 C    1.800    25 H    0.929     2 N    0.146
     5   6 C    3.813 --     6 C    1.252     9 N    1.173    13 N    1.172
     6   6 C    3.907 --     7 C    1.397     5 C    1.252     2 N    0.968
                             8 O    0.139
     7   6 C    3.687 --     8 O    2.149     6 C    1.397
     8   8 O    2.409 --     7 C    2.149     6 C    0.139
     9   7 N    3.474 --     5 C    1.173    10 C    0.993    11 C    0.976
                            13 N    0.120    12 O    0.107
    10   6 C    3.929 --     9 N    0.993    20 H    0.967    19 H    0.965
                            21 H    0.959
    11   6 C    3.901 --    12 O    1.858     9 N    0.976    13 N    0.974
    12   8 O    2.151 --    11 C    1.858     9 N    0.107    13 N    0.106
    13   7 N    3.470 --     5 C    1.172    14 C    0.991    11 C    0.974
                             9 N    0.120    12 O    0.106
    14   6 C    3.927 --    13 N    0.991    24 H    0.968    22 H    0.962
                            23 H    0.961
    15   1 H    0.988 --     1 C    0.968
    16   1 H    0.980 --     1 C    0.963
    17   1 H    0.988 --     1 C    0.972
    18   1 H    0.974 --     3 C    0.923
    19   1 H    0.986 --    10 C    0.965
    20   1 H    0.985 --    10 C    0.967
    21   1 H    0.983 --    10 C    0.959
    22   1 H    0.984 --    14 C    0.962
    23   1 H    0.983 --    14 C    0.961
    24   1 H    0.986 --    14 C    0.968
    25   1 H    0.961 --     4 N    0.929
 ---------------------------------------------------------------------------

Topologies differ in total number of bonds
Writing topology from bond orders to xtbtopo.mol

molecular dipole:
                 x           y           z       tot (Debye)
 q only:        0.742       0.184       0.223
   full:        0.769       0.450       0.307       2.396
molecular quadrupole (traceless):
                xx          xy          yy          xz          yz          zz
 q only:        1.150      -7.398       4.320       7.190      -7.004      -5.469
  q+dip:       -0.322      -5.532       4.637      10.435      -7.658      -4.315
   full:       -0.683      -5.850       4.902      11.243      -6.549      -4.219

           -------------------------------------------------
          |                Geometry Summary                 |
           -------------------------------------------------

      molecular mass/u    :      195.1988581
   center of mass at/Å    :       -0.0231807       0.0541412      -0.2168282
  moments of inertia/u·Å² :        0.5122195E+03   0.9274742E+03   0.1232429E+04
rotational constants/cm⁻¹ :        0.3291095E-01   0.1817585E-01   0.1367839E-01

 * 23 selected distances

     #   Z          #   Z                                           value/Å
     1   6 C        2   7 N                                       1.4485548 (max)
     2   7 N        3   6 C                                       1.3684200
     3   6 C        4   7 N                                       1.2532709
     5   6 C        6   6 C                                       1.4018274
     6   6 C        7   6 C                                       1.3474023
     7   6 C        8   8 O                                       1.1491559
     5   6 C        9   7 N                                       1.3703090
     9   7 N       10   6 C                                       1.4324627
     9   7 N       11   6 C                                       1.4274077
    11   6 C       12   8 O                                       1.1745425
     5   6 C       13   7 N                                       1.3720688
    11   6 C       13   7 N                                       1.4289039
    13   7 N       14   6 C                                       1.4335678
     1   6 C       15   1 H                                       1.0877995
     1   6 C       16   1 H                                       1.0932120
     1   6 C       17   1 H                                       1.0895174
     3   6 C       18   1 H                                       1.0850653 (min)
    10   6 C       19   1 H                                       1.0912515
    10   6 C       20   1 H                                       1.0890483
    10   6 C       21   1 H                                       1.0935493
    14   6 C       22   1 H                                       1.0910371
    14   6 C       23   1 H                                       1.0925061
    14   6 C       24   1 H                                       1.0893523

 * 4 distinct bonds (by element types)

   Z      Z             #   av. dist./Å        max./Å        min./Å
   1 H    6 C          10     1.0902339     1.0935493     1.0850653
   6 C    6 C           2     1.3746149     1.4018274     1.3474023
   6 C    7 N           9     1.3927740     1.4485548     1.2532709
   6 C    8 O           2     1.1618492     1.1745425     1.1491559


optimized geometry written to: xtbopt.xyz


           -------------------------------------------------
          | TOTAL ENERGY              -42.098371792025 Eh   |
          | GRADIENT NORM               0.003065217815 Eh/α |
          | HOMO-LUMO GAP               1.836620104119 eV   |
           -------------------------------------------------

------------------------------------------------------------------------
 * finished run on 2024/06/05 at 20:00:10.464     
------------------------------------------------------------------------
 total:
 * wall-time:     0 d,  0 h,  0 min,  0.115 sec
 *  cpu-time:     0 d,  0 h,  0 min,  0.092 sec
 * ratio c/w:     0.798 speedup
 SCF:
 * wall-time:     0 d,  0 h,  0 min,  0.028 sec
 *  cpu-time:     0 d,  0 h,  0 min,  0.027 sec
 * ratio c/w:     0.981 speedup
 ANC optimizer:
 * wall-time:     0 d,  0 h,  0 min,  0.057 sec
 *  cpu-time:     0 d,  0 h,  0 min,  0.052 sec
 * ratio c/w:     0.913 speedup

