      -----------------------------------------------------------      
     |                   =====================                   |     
     |                           x T B                           |     
     |                   =====================                   |     
     |                         S. Grimme                         |     
     |          Mulliken Center for Theoretical Chemistry        |     
     |                    University of Bonn                     |     
      -----------------------------------------------------------      

   * xtb version 6.6.1 (8d0f1dd) compiled by 'conda@1efc2f54142f' on 2023-08-01

   xtb is free software: you can redistribute it and/or modify it under
   the terms of the GNU Lesser General Public License as published by
   the Free Software Foundation, either version 3 of the License, or
   (at your option) any later version.
   
   xtb is distributed in the hope that it will be useful,
   but WITHOUT ANY WARRANTY; without even the implied warranty of
   MERCHANTABILITY or FITNESS FOR A PARTICULAR PURPOSE.  See the
   GNU Lesser General Public License for more details.
   
   Cite this work as:
   * C. Bannwarth, E. Caldeweyher, S. Ehlert, A. Hansen, P. Pracht,
     J. Seibert, S. Spicher, S. Grimme, WIREs Comput. Mol. Sci., 2020, 11,
     e01493. DOI: 10.1002/wcms.1493
   
   for GFN2-xTB:
   * C. Bannwarth, S. Ehlert and S. Grimme., J. Chem. Theory Comput., 2019,
     15, 1652-1671. DOI: 10.1021/acs.jctc.8b01176
   for GFN1-xTB:
   * S. Grimme, C. Bannwarth, P. Shushkov, J. Chem. Theory Comput., 2017,
     13, 1989-2009. DOI: 10.1021/acs.jctc.7b00118
   for GFN0-xTB:
   * P. Pracht, E. Caldeweyher, S. Ehlert, S. Grimme, ChemRxiv, 2019, preprint.
     DOI: 10.26434/chemrxiv.8326202.v1
   for GFN-FF:
   * S. Spicher and S. Grimme, Angew. Chem. Int. Ed., 2020, 59, 15665-15673.
     DOI: 10.1002/anie.202004239
   
   for ALPB and GBSA implicit solvation:
   * S. Ehlert, M. Stahn, S. Spicher, S. Grimme, J. Chem. Theory Comput.,
     2021, 17, 4250-4261. DOI: 10.1021/acs.jctc.1c00471
   
   for DFT-D4:
   * E. Caldeweyher, C. Bannwarth and S. Grimme, J. Chem. Phys., 2017,
     147, 034112. DOI: 10.1063/1.4993215
   * E. Caldeweyher, S. Ehlert, A. Hansen, H. Neugebauer, S. Spicher,
     C. Bannwarth and S. Grimme, J. Chem. Phys., 2019, 150, 154122.
     DOI: 10.1063/1.5090222
   * E. Caldeweyher, J.-M. Mewes, S. Ehlert and S. Grimme, Phys. Chem. Chem. Phys.
     2020, 22, 8499-8512. DOI: 10.1039/D0CP00502A
   
   for sTDA-xTB:
   * S. Grimme and C. Bannwarth, J. Chem. Phys., 2016, 145, 054103.
     DOI: 10.1063/1.4959605
   
   in the mass-spec context:
   * V. Asgeirsson, C. Bauer and S. Grimme, Chem. Sci., 2017, 8, 4879.
     DOI: 10.1039/c7sc00601b
   * J. Koopman and S. Grimme, ACS Omega 2019, 4, 12, 15120-15133.
     DOI: 10.1021/acsomega.9b02011
   
   for metadynamics refer to:
   * S. Grimme, J. Chem. Theory Comput., 2019, 155, 2847-2862
     DOI: 10.1021/acs.jctc.9b00143
   
   for SPH calculations refer to:
   * S. Spicher and S. Grimme, J. Chem. Theory Comput., 2021, 17, 1701-1714
     DOI: 10.1021/acs.jctc.0c01306
   
   with help from (in alphabetical order)
   P. Atkinson, C. Bannwarth, F. Bohle, G. Brandenburg, E. Caldeweyher
   M. Checinski, S. Dohm, S. Ehlert, S. Ehrlich, I. Gerasimov, C. Hölzer
   A. Katbashev, J. Koopman, C. Lavigne, S. Lehtola, F. März, M. Müller,
   F. Musil, H. Neugebauer, J. Pisarek, C. Plett, P. Pracht, F. Pultar,
   J. Seibert, P. Shushkov, S. Spicher, M. Stahn, M. Steiner, T. Strunk,
   J. Stückrath, T. Rose, and J. Unsleber
   
 * started run on 2024/04/06 at 11:11:46.997     

           -------------------------------------------------
          |                Calculation Setup                |
           -------------------------------------------------

          program call               : xtb xtbopt.xyz --opt crude --input .xc2 --gfn2
          hostname                   : n-62-30-23
          coordinate file            : xtbopt.xyz
          omp threads                :                     1

   ID    Z sym.   atoms
    1    7 N      1, 17
    2    6 C      2-6, 8, 9, 11-16, 18-23, 25, 26, 28-33
    3    8 O      7, 10, 24, 27
    4    1 H      34-72

molecular fragmentation (1/2 indicates fragments):
111111111111111111111111111111111111111111211111111111111111111111111111
# atoms in fragment 1/2:    71     1
 fragment masses (1/2) :      454.60        1.01
CMA distance (Bohr)    :  11.713
constraining FC (au)   :  0.0500
########################################################################
[WARNING] Please study the warnings concerning your input carefully
-1- readin_getIntValue: could not parse ''
########################################################################

           -------------------------------------------------
          |                 G F N 2 - x T B                 |
           -------------------------------------------------

        Reference                      10.1021/acs.jctc.8b01176
      * Hamiltonian:
        H0-scaling (s, p, d)           1.850000    2.230000    2.230000
        zeta-weighting                 0.500000
      * Dispersion:
        s8                             2.700000
        a1                             0.520000
        a2                             5.000000
        s9                             5.000000
      * Repulsion:
        kExp                           1.500000    1.000000
        rExp                           1.000000
      * Coulomb:
        alpha                          2.000000
        third order                    shell-resolved
        anisotropic                    true
        a3                             3.000000
        a5                             4.000000
        cn-shift                       1.200000
        cn-exp                         4.000000
        max-rad                        5.000000

q/qsh data taken from xtbrestart
CAMM data taken from xtbrestart

          ...................................................
          :                      SETUP                      :
          :.................................................:
          :  # basis functions                 171          :
          :  # atomic orbitals                 171          :
          :  # shells                          105          :
          :  # electrons                       180          :
          :  max. iterations                   250          :
          :  Hamiltonian                  GFN2-xTB          :
          :  restarted?                       true          :
          :  GBSA solvation                  false          :
          :  PC potential                    false          :
          :  electronic temp.         5000.0000000     K    :
          :  accuracy                    1.0000000          :
          :  -> integral cutoff          0.2500000E+02      :
          :  -> integral neglect         0.1000000E-07      :
          :  -> SCF convergence          0.1000000E-05 Eh   :
          :  -> wf. convergence          0.1000000E-03 e    :
          :  Broyden damping             0.4000000          :
          ...................................................

 iter      E             dE          RMSdq      gap      omega  full diag
   1   -100.6720069 -0.100672E+03  0.263E-05    0.64       0.0  T
   2   -100.6720069  0.148219E-09  0.422E-05    0.64     278.9  T
   3   -100.6720069 -0.216417E-09  0.820E-06    0.64    1437.9  T

   *** convergence criteria satisfied after 3 iterations ***

         #    Occupation            Energy/Eh            Energy/eV
      -------------------------------------------------------------
         1        2.0000           -0.8188140             -22.2811
       ...           ...                  ...                  ...
        84        1.9887           -0.5165845             -14.0570
        85        1.9638           -0.4980121             -13.5516
        86        1.9623           -0.4973682             -13.5341
        87        1.9104           -0.4832149             -13.1489
        88        1.7891           -0.4686301             -12.7521
        89        1.7641           -0.4666330             -12.6977
        90        1.6416           -0.4588738             -12.4866 (HOMO)
        91        1.0225           -0.4354891             -11.8503 (LUMO)
        92        0.0075           -0.3462960              -9.4232
        93        0.0019           -0.3242209              -8.8225
        94        0.0016           -0.3216902              -8.7536
        95        0.0015           -0.3211203              -8.7381
       ...           ...                  ...                  ...
       171                          0.5654045              15.3854
      -------------------------------------------------------------
                  HL-Gap            0.0233847 Eh            0.6363 eV
             Fermi-level           -0.4347764 Eh          -11.8309 eV

 SCC (total)                   0 d,  0 h,  0 min,  0.121 sec
 SCC setup                      ...        0 min,  0.001 sec (  1.042%)
 Dispersion                     ...        0 min,  0.002 sec (  1.758%)
 classical contributions        ...        0 min,  0.001 sec (  0.474%)
 integral evaluation            ...        0 min,  0.019 sec ( 15.342%)
 iterations                     ...        0 min,  0.028 sec ( 23.051%)
 molecular gradient             ...        0 min,  0.070 sec ( 57.803%)
 printout                       ...        0 min,  0.001 sec (  0.516%)

         :::::::::::::::::::::::::::::::::::::::::::::::::::::
         ::                     SUMMARY                     ::
         :::::::::::::::::::::::::::::::::::::::::::::::::::::
         :: total energy             -99.309580612372 Eh    ::
         :: gradient norm              0.007469907952 Eh/a0 ::
         :: HOMO-LUMO gap              0.636329908412 eV    ::
         ::.................................................::
         :: SCC energy              -100.672006926398 Eh    ::
         :: -> isotropic ES            0.104178803279 Eh    ::
         :: -> anisotropic ES          0.002441104680 Eh    ::
         :: -> anisotropic XC          0.043396940920 Eh    ::
         :: -> dispersion             -0.077786741433 Eh    ::
         :: repulsion energy           1.360925186776 Eh    ::
         :: add. restraining           0.000000000000 Eh    ::
         :: total charge               1.000000000002 e     ::
         :::::::::::::::::::::::::::::::::::::::::::::::::::::

      ----------------------------------------------------------- 
     |                   =====================                   |
     |                        A N C O P T                        |
     |                   =====================                   |
     |               Approximate Normal Coordinate               |
     |                Rational Function Optimizer                |
      ----------------------------------------------------------- 

          ...................................................
          :                      SETUP                      :
          :.................................................:
          :   optimization level             crude          :
          :   max. optcycles                   200          :
          :   ANC micro-cycles                  20          :
          :   degrees of freedom               210          :
          :.................................................:
          :   RF solver                   davidson          :
          :   write xtbopt.log                true          :
          :   linear?                        false          :
          :   energy convergence         0.5000000E-03 Eh   :
          :   grad. convergence          0.1000000E-01 Eh/α :
          :   maxmium RF displ.          1.0000000          :
          :   Hlow (freq-cutoff)         0.1000000E-01      :
          :   Hmax (freq-cutoff)         5.0000000          :
          :   S6 in model hess.         20.0000000          :
          ...................................................

generating ANC from model Hessian ...
Using Lindh-Hessian (1995)
 Shifting diagonal of input Hessian by    9.9526233743008445E-003
 Lowest  eigenvalues of input Hessian
    0.000000    0.000000    0.000000    0.000000    0.000000    0.000000
    0.010000    0.010013    0.010106    0.010147    0.010237    0.010294
    0.010529    0.010659    0.010783    0.010957    0.011366    0.011456
 Highest eigenvalues
    1.926123    2.041684    2.046455    2.106695    2.183043    2.186224


........................................................................
.............................. CYCLE    1 ..............................
........................................................................

 iter      E             dE          RMSdq      gap      omega  full diag
   1   -100.6720069 -0.100672E+03  0.534E-06    0.64       0.0  T
   2   -100.6720069 -0.710543E-12  0.448E-06    0.64    2628.1  T
   3   -100.6720069 -0.197531E-11  0.212E-06    0.64    5550.0  T
     SCC iter.                  ...        0 min,  0.026 sec
     gradient                   ...        0 min,  0.070 sec
 * total energy  :   -99.3095806 Eh     change       -0.5968559E-12 Eh
   gradient norm :     0.0074699 Eh/α   predicted     0.0000000E+00 (-100.00%)
   displ. norm   :     0.3359384 α      lambda       -0.1786273E-02
   maximum displ.:     0.2969799 α      in ANC's #19, #18, #4, ...

   *** GEOMETRY OPTIMIZATION CONVERGED AFTER 1 ITERATIONS ***

------------------------------------------------------------------------
 total energy gain   :        -0.0000000 Eh       -0.0000 kcal/mol
 total RMSD          :         0.0000000 a0        0.0000 Å
 total power (kW/mol):        -0.0000000 (step)   -0.0000 (real)
------------------------------------------------------------------------

 ANCopt (total)                0 d,  0 h,  0 min,  0.188 sec
 optimizer setup                ...        0 min,  0.000 sec (  0.139%)
 model hessian                  ...        0 min,  0.061 sec ( 32.230%)
 ANC generation                 ...        0 min,  0.007 sec (  3.473%)
 coordinate transformation      ...        0 min,  0.000 sec (  0.025%)
 single point calculation       ...        0 min,  0.118 sec ( 62.626%)
 optimization log               ...        0 min,  0.002 sec (  1.040%)
 hessian update                 ...        0 min,  0.000 sec (  0.001%)
 rational function              ...        0 min,  0.000 sec (  0.100%)

================
 final structure:
================
72
 xtb: 6.6.1 (8d0f1dd)
N           -1.71754860000685        2.62417241699465        2.47748366237674
C           -1.52274988240463        1.83746923556397        1.52811488111714
C           -2.49315091541515        1.67272032319868        0.36652302471978
C           -3.12363894946041        0.29009862233290        0.44640075158707
C           -4.03366296558022       -0.10144622265369       -0.53734160080677
C           -4.66331718587549       -1.33613725707435       -0.49614366122504
O           -5.55939477708856       -1.77599876547856       -1.39618211198421
C           -5.95838968471198       -0.92567772396984       -2.44789920198991
C           -4.36876082824760       -2.23832183649862        0.56650510788182
O           -5.00676367015421       -3.41945087009615        0.51722579061332
C           -4.79278361273910       -4.36709709965994        1.53805951575800
C           -3.47756601513136       -1.83309835295262        1.55047707586277
C           -2.87065364047165       -0.58650811431437        1.49481739404815
C           -1.66158304788747        1.85841044436790       -0.90993558158588
C           -1.59327567646560        0.90995975301695       -2.07215089489255
C           -0.36188815929931        1.13027916051493       -1.24755728449197
N            0.21146838200184        0.12159511907461       -0.41731190373363
C            1.61301685781545        0.29550743716968       -0.12119545661484
C            2.56042054522809       -0.10341886743716       -1.27846231323652
C            3.98957603541848        0.06883076640993       -0.86600558721026
C            4.64881637052875        1.27609207253617       -1.06056383119881
C            5.96685891256763        1.43878036215179       -0.66822408541576
C            6.65849868252103        0.39620219819652       -0.06321592276693
O            7.93520032069156        0.43503806591236        0.34846555940553
C            8.69457250509174        1.60548254220483        0.14782117884953
C            5.98772038750049       -0.84333420376553        0.15307046629934
O            6.72755852006039       -1.79612330976392        0.74575691514840
C            6.16665533550085       -3.06656729630532        0.97943934616962
C            4.66793943575738       -0.98032444014218       -0.25058951312787
C           -0.20816504378870       -1.24711633504158       -0.61206147579966
C           -3.64493304247580        2.73109477971892        0.38749236684038
C           -4.61246620024545        2.47847599470725        1.53712754242998
C           -3.17723231130924        4.17938398346641        0.44133701047629
H           -4.27505310343992        0.58572663008416       -1.33218273365691
H           -6.38768761692699        0.00722524911521       -2.07055818035381
H           -6.71769454886632       -1.47794433126171       -2.99764549039981
H           -5.12199009456917       -0.69653994519863       -3.11589863128627
H           -5.10232757195332       -3.98204404139666        2.51374201763867
H           -5.41143715891130       -5.22332888775973        1.27559467367318
H           -3.74427093589592       -4.67705634577855        1.58235458637353
H           -3.25477134046001       -2.48375124002426        2.38042758355948
H           -2.20471259740817       -0.30647955159595        2.29503903043439
H           -5.26892119186688        2.57286565283535       -1.87865648127540
H           -1.61997802738000        2.90312255515252       -1.19063100529725
H           -2.08490485781418       -0.04413837156959       -1.99488330671824
H           -1.62017963870160        1.33032053374720       -3.06637698949167
H           -0.63699168007042        1.20041658672591        1.41844097239545
H            0.39425990837486        1.77924570091759       -1.67716623579444
H            1.85260806778929       -0.31616895239326        0.75337625711159
H            1.78875299928355        1.34243295593855        0.13909044116984
H            2.34270571480485        0.52000974060378       -2.14688605894215
H            2.37389358396688       -1.14462024978226       -1.54357933211518
H            4.13597049636953        2.09843852943988       -1.53538407358414
H            6.45411474346688        2.38421931238836       -0.84190555924379
H            8.27141619225795        2.45506728782088        0.69188952644075
H            8.77269083904443        1.85338323856701       -0.91474789705422
H            9.68449597096561        1.38175679288455        0.54075827798309
H            6.95555533147038       -3.65264594249507        1.44665732986291
H            5.30984235411751       -3.00748286982254        1.65778332687643
H            5.86248929577416       -3.54786841400663        0.04512802456229
H            4.15484858258409       -1.91760427741007       -0.10237073105187
H           -0.02715516234095       -1.59943840813449       -1.63412705660696
H           -1.26994382448407       -1.34424209254175       -0.39313789382384
H            0.33896727090571       -1.88275532088298        0.08113862281014
H           -4.22653729485777        2.61600943040857       -0.57408295476403
H           -4.08909095285897        2.59851849529918        2.48336479561969
H           -5.04089430050116        1.48010694951947        1.49779824259257
H           -5.42450700407203        3.20012800125009        1.49893397652207
H           -2.61552115863831        4.35238670653183        1.35677717752259
H           -2.56062477684201        4.46027083050476       -0.40902051910024
H           -4.04654235071519        4.83240023722920        0.44381580089869
H           -1.01473664650033        2.68522476522320        3.20711814559826

 Bond Distances (Angstroems)
 ---------------------------
N1-C2=1.2483         N1-H72=1.0149        C2-N1=1.2483         C2-C3=1.5225         C2-H47=1.0966        C3-C2=1.5225         
C3-C4=1.5217         C3-C14=1.5347        C3-C31=1.5644        C4-C3=1.5217         C4-C5=1.3961         C4-C13=1.3898        
C5-C4=1.3961         C5-C6=1.3866         C5-H34=1.0781        C6-C5=1.3866         C6-O7=1.3441         C6-C9=1.4248         
O7-C6=1.3441         O7-C8=1.4101         C8-O7=1.4101         C8-H35=1.0941        C8-H36=1.0880        C8-H37=1.0947        
C9-C6=1.4248         C9-O10=1.3433        C9-C12=1.3880        O10-C9=1.3433        O10-C11=1.4092       C11-O10=1.4092       
C11-H38=1.0936       C11-H39=1.0885       C11-H40=1.0943       C12-C9=1.3880        C12-C13=1.3876       C12-H41=1.0779       
C13-C4=1.3898        C13-C12=1.3876       C13-H42=1.0781       C14-C3=1.5347        C14-C15=1.5017       C14-C16=1.5275       
C14-H44=1.0826       C15-C14=1.5017       C15-C16=1.4983       C15-H45=1.0761       C15-H46=1.0798       C16-C14=1.5275       
C16-C15=1.4983       C16-N17=1.4267       C16-H48=1.0851       N17-C16=1.4267       N17-C18=1.4430       N17-C30=1.4448       
C18-N17=1.4430       C18-C19=1.5479       C18-H49=1.0938       C18-H50=1.0930       C19-C18=1.5479       C19-C20=1.4974       
C19-H51=1.0910       C19-H52=1.0905       C20-C19=1.4974       C20-C21=1.3892       C20-C29=1.3927       C21-C20=1.3892       
C21-C22=1.3848       C21-H53=1.0792       C22-C21=1.3848       C22-C23=1.3897       C22-H54=1.0777       C23-C22=1.3897       
C23-O24=1.3420       C23-C26=1.4259       O24-C23=1.3420       O24-C25=1.4096       C25-O24=1.4096       C25-H55=1.0940       
C25-H56=1.0939       C25-H57=1.0883       C26-C23=1.4259       C26-O27=1.3440       C26-C29=1.3869       O27-C26=1.3440       
O27-C28=1.4083       C28-O27=1.4083       C28-H58=1.0882       C28-H59=1.0944       C28-H60=1.0941       C29-C20=1.3927       
C29-C26=1.3869       C29-H61=1.0788       C30-N17=1.4448       C30-H62=1.0961       C30-H63=1.0885       C30-H64=1.0881       
C31-C3=1.5644        C31-C32=1.5237       C31-C33=1.5229       C31-H65=1.1297       C32-C31=1.5237       C32-H66=1.0880       
C32-H67=1.0871       C32-H68=1.0870       C33-C31=1.5229       C33-H69=1.0879       C33-H70=1.0873       C33-H71=1.0873       
H34-C5=1.0781        H35-C8=1.0941        H36-C8=1.0880        H37-C8=1.0947        H38-C11=1.0936       H39-C11=1.0885       
H40-C11=1.0943       H41-C12=1.0779       H42-C13=1.0781       H44-C14=1.0826       H45-C15=1.0761       H46-C15=1.0798       
H47-C2=1.0966        H48-C16=1.0851       H49-C18=1.0938       H50-C18=1.0930       H51-C19=1.0910       H52-C19=1.0905       
H53-C21=1.0792       H54-C22=1.0777       H55-C25=1.0940       H56-C25=1.0939       H57-C25=1.0883       H58-C28=1.0882       
H59-C28=1.0944       H60-C28=1.0941       H61-C29=1.0788       H62-C30=1.0961       H63-C30=1.0885       H64-C30=1.0881       
H65-C31=1.1297       H66-C32=1.0880       H67-C32=1.0871       H68-C32=1.0870       H69-C33=1.0879       H70-C33=1.0873       
H71-C33=1.0873       H72-N1=1.0149        
 C  H  Rav=1.0889 sigma=0.0091  Rmin=1.0761  Rmax=1.1297    37
 C  C  Rav=1.4567 sigma=0.0664  Rmin=1.3848  Rmax=1.5644    23
 N  H  Rav=1.0149 sigma=0.0000  Rmin=1.0149  Rmax=1.0149     1
 N  C  Rav=1.3907 sigma=0.0825  Rmin=1.2483  Rmax=1.4448     4
 O  C  Rav=1.3763 sigma=0.0330  Rmin=1.3420  Rmax=1.4101     8

 selected bond angles (degree)
 --------------------
H72-N1-C2=118.46               C3-C2-N1=123.30                H47-C2-N1=124.63               H47-C2-C3=112.07               
C4-C3-C2=108.81                C14-C3-C2=106.03               C14-C3-C4=112.22               C31-C3-C2=112.70               
C31-C3-C4=108.00               C31-C3-C14=109.16              C5-C4-C3=119.20                C13-C4-C3=122.50               
C13-C4-C5=118.25               C6-C5-C4=121.65                H34-C5-C4=119.12               H34-C5-C6=119.20               
O7-C6-C5=125.05                C9-C6-C5=119.48                C9-C6-O7=115.47                C8-O7-C6=119.39                
H35-C8-O7=111.59               H36-C8-O7=105.56               H36-C8-H35=109.47              H37-C8-O7=111.42               
H37-C8-H35=109.38              H37-C8-H36=109.34              O10-C9-C6=115.54               C12-C9-C6=118.46               
C12-C9-O10=125.99              C11-O10-C9=119.51              

 selected dihedral angles (degree)
 ---------------------------------
C3-C2-N1-H72=180.89           H47-C2-N1-H72=359.80          C4-C3-C2-N1=248.41            C4-C3-C2-H47= 69.37           
C14-C3-C2-N1=127.52           C14-C3-C2-H47=308.48          C31-C3-C2-N1=  8.16           C31-C3-C2-H47=189.12          
C5-C4-C3-C2=181.31            C5-C4-C3-C14=298.32           C5-C4-C3-C31= 58.69           C13-C4-C3-C2=  3.97           
C13-C4-C3-C14=120.98          C13-C4-C3-C31=241.35          C6-C5-C4-C3=181.63            C6-C5-C4-C13=359.08           
H34-C5-C4-C3=359.73           H34-C5-C4-C13=177.19          O7-C6-C5-C4=179.23            O7-C6-C5-H34=  1.12           
C9-C6-C5-C4=359.35            C9-C6-C5-H34=181.25           C8-O7-C6-C5=357.20            C8-O7-C6-C9=177.08            
H35-C8-O7-C6=301.97           H36-C8-O7-C6=183.14           H37-C8-O7-C6= 64.56           O10-C9-C6-C5=181.02           
O10-C9-C6-O7=  1.14           C12-C9-C6-C5=  1.55           C12-C9-C6-O7=181.66           C11-O10-C9-C6=180.97          
C11-O10-C9-C12=  0.40         

 CMA Distance (Angstroems)
 ---------------------------
R(CMA):  6.1982
           -------------------------------------------------
          |                Final Singlepoint                |
           -------------------------------------------------

          ...................................................
          :                      SETUP                      :
          :.................................................:
          :  # basis functions                 171          :
          :  # atomic orbitals                 171          :
          :  # shells                          105          :
          :  # electrons                       180          :
          :  max. iterations                   250          :
          :  Hamiltonian                  GFN2-xTB          :
          :  restarted?                      false          :
          :  GBSA solvation                  false          :
          :  PC potential                    false          :
          :  electronic temp.         5000.0000000     K    :
          :  accuracy                    1.0000000          :
          :  -> integral cutoff          0.2500000E+02      :
          :  -> integral neglect         0.1000000E-07      :
          :  -> SCF convergence          0.1000000E-05 Eh   :
          :  -> wf. convergence          0.1000000E-03 e    :
          :  Broyden damping             0.4000000          :
          ...................................................

 iter      E             dE          RMSdq      gap      omega  full diag
   1   -100.6720069 -0.100672E+03  0.177E-06    0.64       0.0  T
   2   -100.6720069  0.198952E-12  0.274E-06    0.64    4308.3  T
   3   -100.6720069 -0.113687E-12  0.512E-07    0.64   23002.7  T

   *** convergence criteria satisfied after 3 iterations ***

         #    Occupation            Energy/Eh            Energy/eV
      -------------------------------------------------------------
         1        2.0000           -0.8188139             -22.2811
       ...           ...                  ...                  ...
        84        1.9887           -0.5165845             -14.0570
        85        1.9638           -0.4980121             -13.5516
        86        1.9623           -0.4973682             -13.5341
        87        1.9104           -0.4832149             -13.1489
        88        1.7891           -0.4686301             -12.7521
        89        1.7641           -0.4666330             -12.6977
        90        1.6416           -0.4588738             -12.4866 (HOMO)
        91        1.0225           -0.4354892             -11.8503 (LUMO)
        92        0.0075           -0.3462960              -9.4232
        93        0.0019           -0.3242209              -8.8225
        94        0.0016           -0.3216902              -8.7536
        95        0.0015           -0.3211203              -8.7381
       ...           ...                  ...                  ...
       171                          0.5654045              15.3854
      -------------------------------------------------------------
                  HL-Gap            0.0233846 Eh            0.6363 eV
             Fermi-level           -0.4347764 Eh          -11.8309 eV

 SCC (total)                   0 d,  0 h,  0 min,  0.118 sec
 SCC setup                      ...        0 min,  0.001 sec (  0.742%)
 Dispersion                     ...        0 min,  0.002 sec (  1.352%)
 classical contributions        ...        0 min,  0.000 sec (  0.370%)
 integral evaluation            ...        0 min,  0.018 sec ( 15.499%)
 iterations                     ...        0 min,  0.026 sec ( 22.384%)
 molecular gradient             ...        0 min,  0.070 sec ( 59.179%)
 printout                       ...        0 min,  0.001 sec (  0.457%)

         :::::::::::::::::::::::::::::::::::::::::::::::::::::
         ::                     SUMMARY                     ::
         :::::::::::::::::::::::::::::::::::::::::::::::::::::
         :: total energy             -99.309580612372 Eh    ::
         :: gradient norm              0.007469896239 Eh/a0 ::
         :: HOMO-LUMO gap              0.636328433258 eV    ::
         ::.................................................::
         :: SCC energy              -100.672006926398 Eh    ::
         :: -> isotropic ES            0.104178846808 Eh    ::
         :: -> anisotropic ES          0.002441098865 Eh    ::
         :: -> anisotropic XC          0.043396936574 Eh    ::
         :: -> dispersion             -0.077786748992 Eh    ::
         :: repulsion energy           1.360925186776 Eh    ::
         :: add. restraining           0.000000000000 Eh    ::
         :: total charge               1.000000000002 e     ::
         :::::::::::::::::::::::::::::::::::::::::::::::::::::

           -------------------------------------------------
          |                Property Printout                |
           -------------------------------------------------

    * Orbital Energies and Occupations

         #    Occupation            Energy/Eh            Energy/eV
      -------------------------------------------------------------
         1        2.0000           -0.8188139             -22.2811
       ...           ...                  ...                  ...
        78        1.9967           -0.5361953             -14.5906
        79        1.9959           -0.5327645             -14.4973
        80        1.9947           -0.5286850             -14.3863
        81        1.9944           -0.5277831             -14.3617
        82        1.9932           -0.5246112             -14.2754
        83        1.9925           -0.5230606             -14.2332
        84        1.9887           -0.5165845             -14.0570
        85        1.9638           -0.4980121             -13.5516
        86        1.9623           -0.4973682             -13.5341
        87        1.9104           -0.4832149             -13.1489
        88        1.7891           -0.4686301             -12.7521
        89        1.7641           -0.4666330             -12.6977
        90        1.6416           -0.4588738             -12.4866 (HOMO)
        91        1.0225           -0.4354892             -11.8503 (LUMO)
        92        0.0075           -0.3462960              -9.4232
        93        0.0019           -0.3242209              -8.8225
        94        0.0016           -0.3216902              -8.7536
        95        0.0015           -0.3211203              -8.7381
        96        0.0014           -0.3191888              -8.6856
        97        0.0000           -0.1994480              -5.4273
        98        0.0000           -0.1968541              -5.3567
        99        0.0000           -0.1765484              -4.8041
       100                         -0.1124272              -3.0593
       101                         -0.0741970              -2.0190
       ...                                ...                  ...
       171                          0.5654045              15.3854
      -------------------------------------------------------------
                  HL-Gap            0.0233846 Eh            0.6363 eV
             Fermi-level           -0.4347764 Eh          -11.8309 eV

     #   Z          covCN         q      C6AA      α(0)
     1   7 N        1.774    -0.257    27.503     7.766
     2   6 C        2.826     0.099    25.798     8.323
     3   6 C        3.906     0.013    20.306     6.405
     4   6 C        2.972     0.011    27.758     8.642
     5   6 C        2.920    -0.078    29.947     8.974
     6   6 C        2.862     0.134    25.068     8.207
     7   8 O        1.706    -0.217    17.605     5.665
     8   6 C        3.645     0.023    20.520     6.511
     9   6 C        2.862     0.134    25.078     8.208
    10   8 O        1.706    -0.215    17.576     5.660
    11   6 C        3.645     0.023    20.518     6.510
    12   6 C        2.913    -0.069    29.730     8.941
    13   6 C        2.920    -0.045    29.115     8.848
    14   6 C        3.866    -0.033    21.127     6.536
    15   6 C        3.806    -0.076    21.948     6.669
    16   6 C        3.804     0.033    20.022     6.370
    17   7 N        2.725    -0.103    23.260     7.163
    18   6 C        3.755    -0.001    20.654     6.480
    19   6 C        3.807    -0.072    21.869     6.657
    20   6 C        2.968     0.009    27.806     8.649
    21   6 C        2.921    -0.043    29.064     8.841
    22   6 C        2.912    -0.064    29.599     8.921
    23   6 C        2.864     0.137    25.007     8.197
    24   8 O        1.706    -0.211    17.500     5.648
    25   6 C        3.645     0.022    20.542     6.514
    26   6 C        2.862     0.137    25.010     8.197
    27   8 O        1.706    -0.214    17.563     5.658
    28   6 C        3.645     0.024    20.503     6.508
    29   6 C        2.919    -0.076    29.901     8.967
    30   6 C        3.698    -0.050    21.635     6.653
    31   6 C        3.847    -0.005    20.641     6.462
    32   6 C        3.757    -0.118    22.809     6.809
    33   6 C        3.756    -0.119    22.827     6.812
    34   1 H        0.926     0.073     2.057     2.243
    35   1 H        0.924     0.065     2.147     2.291
    36   1 H        0.925     0.086     1.921     2.168
    37   1 H        0.924     0.055     2.256     2.349
    38   1 H        0.924     0.060     2.196     2.317
    39   1 H        0.925     0.086     1.919     2.167
    40   1 H        0.924     0.055     2.254     2.348
    41   1 H        0.926     0.059     2.206     2.323
    42   1 H        0.926     0.048     2.340     2.392
    43   1 H        0.000    -0.141    18.000     7.758
    44   1 H        0.925     0.057     2.230     2.335
    45   1 H        0.926     0.059     2.215     2.327
    46   1 H        0.926     0.057     2.229     2.335
    47   1 H        0.924     0.038     2.477     2.461
    48   1 H        0.925     0.044     2.394     2.420
    49   1 H        0.924     0.053     2.283     2.363
    50   1 H        0.924     0.052     2.295     2.369
    51   1 H        0.924     0.052     2.295     2.369
    52   1 H        0.924     0.055     2.256     2.349
    53   1 H        0.926     0.053     2.279     2.361
    54   1 H        0.926     0.064     2.158     2.297
    55   1 H        0.924     0.060     2.199     2.319
    56   1 H        0.924     0.061     2.185     2.312
    57   1 H        0.925     0.087     1.910     2.161
    58   1 H        0.925     0.086     1.920     2.167
    59   1 H        0.924     0.054     2.268     2.355
    60   1 H        0.924     0.058     2.226     2.333
    61   1 H        0.926     0.054     2.273     2.357
    62   1 H        0.924     0.051     2.307     2.375
    63   1 H        0.925     0.060     2.195     2.317
    64   1 H        0.925     0.058     2.217     2.329
    65   1 H        0.918     0.087     1.911     2.162
    66   1 H        0.925     0.074     2.037     2.232
    67   1 H        0.925     0.041     2.438     2.442
    68   1 H        0.925     0.060     2.201     2.320
    69   1 H        0.925     0.076     2.021     2.223
    70   1 H        0.925     0.040     2.447     2.446
    71   1 H        0.925     0.063     2.166     2.301
    72   1 H        0.860     0.166     1.298     1.785

 Mol. C6AA /au·bohr⁶  :      48015.142394
 Mol. C8AA /au·bohr⁸  :    1087355.569201
 Mol. α(0) /au        :        336.653287


Wiberg/Mayer (AO) data.
largest (>0.10) Wiberg bond orders for each atom

 ---------------------------------------------------------------------------
     #   Z sym  total        # sym  WBO       # sym  WBO       # sym  WBO
 ---------------------------------------------------------------------------
     1   7 N    3.014 --     2 C    1.964    72 H    0.935
     2   6 C    3.925 --     1 N    1.964     3 C    0.969    47 H    0.919
     3   6 C    3.960 --     4 C    0.971     2 C    0.969    14 C    0.959
                            31 C    0.938
     4   6 C    3.925 --    13 C    1.394     5 C    1.372     3 C    0.971
     5   6 C    3.940 --     6 C    1.387     4 C    1.372    34 H    0.947
     6   6 C    3.883 --     5 C    1.387     9 C    1.206     7 O    1.116
     7   8 O    2.251 --     6 C    1.116     8 C    0.973
     8   6 C    3.921 --    36 H    0.976     7 O    0.973    37 H    0.971
                            35 H    0.969
     9   6 C    3.876 --    12 C    1.377     6 C    1.206    10 O    1.118
    10   8 O    2.251 --     9 C    1.118    11 C    0.974
    11   6 C    3.924 --    39 H    0.976    10 O    0.974    40 H    0.972
                            38 H    0.971
    12   6 C    3.949 --    13 C    1.415     9 C    1.377    41 H    0.962
    13   6 C    3.930 --    12 C    1.415     4 C    1.394    42 H    0.961
    14   6 C    3.886 --    15 C    0.965     3 C    0.959    44 H    0.958
                            16 C    0.905
    15   6 C    3.922 --    46 H    0.974    45 H    0.966    14 C    0.965
                            16 C    0.957
    16   6 C    3.902 --    17 N    1.027    48 H    0.958    15 C    0.957
                            14 C    0.905
    17   7 N    3.145 --    16 C    1.027    18 C    1.011    30 C    1.009
    18   6 C    3.962 --    17 N    1.011    50 H    0.970    49 H    0.967
                            19 C    0.955
    19   6 C    3.964 --    20 C    1.018    52 H    0.969    51 H    0.969
                            18 C    0.955
    20   6 C    3.921 --    21 C    1.385    29 C    1.382    19 C    1.018
    21   6 C    3.922 --    22 C    1.428    20 C    1.385    53 H    0.967
    22   6 C    3.945 --    21 C    1.428    23 C    1.369    54 H    0.962
    23   6 C    3.866 --    22 C    1.369    26 C    1.203    24 O    1.123
    24   8 O    2.250 --    23 C    1.123    25 C    0.973
    25   6 C    3.921 --    57 H    0.976    24 O    0.973    56 H    0.970
                            55 H    0.970
    26   6 C    3.876 --    29 C    1.387    23 C    1.203    27 O    1.116
    27   8 O    2.251 --    26 C    1.116    28 C    0.976
    28   6 C    3.926 --    58 H    0.976    27 O    0.976    59 H    0.972
                            60 H    0.971
    29   6 C    3.946 --    26 C    1.387    20 C    1.382    61 H    0.961
    30   6 C    3.963 --    17 N    1.009    64 H    0.979    63 H    0.967
                            62 H    0.964
    31   6 C    3.858 --    33 C    1.011    32 C    1.010     3 C    0.938
                            65 H    0.836
    32   6 C    3.967 --    31 C    1.010    67 H    0.978    68 H    0.978
                            66 H    0.961
    33   6 C    3.966 --    31 C    1.011    71 H    0.976    70 H    0.974
                            69 H    0.957
    34   1 H    0.993 --     5 C    0.947
    35   1 H    0.989 --     8 C    0.969
    36   1 H    0.992 --     8 C    0.976
    37   1 H    0.989 --     8 C    0.971
    38   1 H    0.989 --    11 C    0.971
    39   1 H    0.992 --    11 C    0.976
    40   1 H    0.990 --    11 C    0.972
    41   1 H    0.994 --    12 C    0.962
    42   1 H    0.996 --    13 C    0.961
    43   1 H    0.161 --    65 H    0.114
    44   1 H    0.993 --    14 C    0.958
    45   1 H    0.996 --    15 C    0.966
    46   1 H    0.991 --    15 C    0.974
    47   1 H    0.969 --     2 C    0.919
    48   1 H    0.989 --    16 C    0.958
    49   1 H    0.992 --    18 C    0.967
    50   1 H    0.994 --    18 C    0.970
    51   1 H    0.995 --    19 C    0.969
    52   1 H    0.995 --    19 C    0.969
    53   1 H    0.996 --    21 C    0.967
    54   1 H    0.994 --    22 C    0.962
    55   1 H    0.988 --    25 C    0.970
    56   1 H    0.988 --    25 C    0.970
    57   1 H    0.991 --    25 C    0.976
    58   1 H    0.992 --    28 C    0.976
    59   1 H    0.990 --    28 C    0.972
    60   1 H    0.990 --    28 C    0.971
    61   1 H    0.995 --    29 C    0.961
    62   1 H    0.976 --    30 C    0.964
    63   1 H    0.989 --    30 C    0.967
    64   1 H    0.996 --    30 C    0.979
    65   1 H    0.976 --    31 C    0.836    43 H    0.114
    66   1 H    0.980 --    32 C    0.961
    67   1 H    0.994 --    32 C    0.978
    68   1 H    0.991 --    32 C    0.978
    69   1 H    0.980 --    33 C    0.957
    70   1 H    0.994 --    33 C    0.974
    71   1 H    0.990 --    33 C    0.976
    72   1 H    0.961 --     1 N    0.935
 ---------------------------------------------------------------------------

Topologies differ in total number of bonds
Writing topology from bond orders to xtbtopo.mol

molecular dipole:
                 x           y           z       tot (Debye)
 q only:        1.277      -0.378       0.314
   full:        1.661      -0.522       0.140       4.440
molecular quadrupole (traceless):
                xx          xy          yy          xz          yz          zz
 q only:       56.731      15.729     -16.044      -3.334      -6.593     -40.687
  q+dip:       50.518      19.179     -15.273      -1.907     -10.351     -35.245
   full:       50.483      18.998     -15.687      -4.165      -9.898     -34.796

           -------------------------------------------------
          |                Geometry Summary                 |
           -------------------------------------------------

      molecular mass/u    :      455.6105846
   center of mass at/Å    :        0.0217629      -0.0010770       0.0268378
  moments of inertia/u·Å² :        0.2377191E+04   0.1016077E+05   0.1129223E+05
rotational constants/cm⁻¹ :        0.7091409E-02   0.1659089E-02   0.1492853E-02

 * 67 selected distances

     #   Z          #   Z                                           value/Å
     1   7 N        2   6 C                                       1.2482587
     4   6 C        5   6 C                                       1.3961377
     5   6 C        6   6 C                                       1.3865872
     6   6 C        7   8 O                                       1.3440620
     7   8 O        8   6 C                                       1.4100894
     6   6 C        9   6 C                                       1.4247537
     9   6 C       10   8 O                                       1.3433325
    10   8 O       11   6 C                                       1.4092277
     9   6 C       12   6 C                                       1.3880329
     4   6 C       13   6 C                                       1.3898269
    12   6 C       13   6 C                                       1.3875980
     3   6 C       14   6 C                                       1.5347094 (max)
    14   6 C       15   6 C                                       1.5016556
    14   6 C       16   6 C                                       1.5275375
    15   6 C       16   6 C                                       1.4982693
    16   6 C       17   7 N                                       1.4267056
    17   7 N       18   6 C                                       1.4430069
    20   6 C       21   6 C                                       1.3892195
    21   6 C       22   6 C                                       1.3847868
    22   6 C       23   6 C                                       1.3897374
    23   6 C       24   8 O                                       1.3419975
    24   8 O       25   6 C                                       1.4095549
    23   6 C       26   6 C                                       1.4258942
    26   6 C       27   8 O                                       1.3440406
    27   8 O       28   6 C                                       1.4082784
    20   6 C       29   6 C                                       1.3927099
    26   6 C       29   6 C                                       1.3869138
    17   7 N       30   6 C                                       1.4447806
    31   6 C       32   6 C                                       1.5236791
    31   6 C       33   6 C                                       1.5228871
     5   6 C       34   1 H                                       1.0780762
     8   6 C       35   1 H                                       1.0940709
     8   6 C       36   1 H                                       1.0880090
     8   6 C       37   1 H                                       1.0946652
    11   6 C       38   1 H                                       1.0936361
    11   6 C       39   1 H                                       1.0884636
    11   6 C       40   1 H                                       1.0942650
    12   6 C       41   1 H                                       1.0778705
    13   6 C       42   1 H                                       1.0780762
    14   6 C       44   1 H                                       1.0825639
    15   6 C       45   1 H                                       1.0760915 (min)
    15   6 C       46   1 H                                       1.0797744
     2   6 C       47   1 H                                       1.0965547
    16   6 C       48   1 H                                       1.0851182
    18   6 C       49   1 H                                       1.0938134
    18   6 C       50   1 H                                       1.0930166
    19   6 C       51   1 H                                       1.0909734
    19   6 C       52   1 H                                       1.0904952
    21   6 C       53   1 H                                       1.0792215
    22   6 C       54   1 H                                       1.0777006
    25   6 C       55   1 H                                       1.0940138
    25   6 C       56   1 H                                       1.0938969
    25   6 C       57   1 H                                       1.0883021
    28   6 C       58   1 H                                       1.0881839
    28   6 C       59   1 H                                       1.0944269
    28   6 C       60   1 H                                       1.0941232
    29   6 C       61   1 H                                       1.0787607
    30   6 C       62   1 H                                       1.0961358
    30   6 C       63   1 H                                       1.0884555
    30   6 C       64   1 H                                       1.0880796
    31   6 C       65   1 H                                       1.1296617
    32   6 C       66   1 H                                       1.0879784
    32   6 C       67   1 H                                       1.0871239
    32   6 C       68   1 H                                       1.0870377
    33   6 C       69   1 H                                       1.0878788
    33   6 C       70   1 H                                       1.0872950
    33   6 C       71   1 H                                       1.0872610

 * 4 distinct bonds (by element types)

   Z      Z             #   av. dist./Å        max./Å        min./Å
   1 H    6 C          37     1.0889479     1.1296617     1.0760915
   6 C    6 C          18     1.4361631     1.5347094     1.3847868
   6 C    7 N           4     1.3906880     1.4447806     1.2482587
   6 C    8 O           8     1.3763229     1.4100894     1.3419975


optimized geometry written to: xtbopt.xyz


           -------------------------------------------------
          | TOTAL ENERGY              -99.309580612372 Eh   |
          | GRADIENT NORM               0.007469896239 Eh/α |
          | HOMO-LUMO GAP               0.636328433258 eV   |
           -------------------------------------------------

------------------------------------------------------------------------
 * finished run on 2024/04/06 at 11:11:47.479     
------------------------------------------------------------------------
 total:
 * wall-time:     0 d,  0 h,  0 min,  0.481 sec
 *  cpu-time:     0 d,  0 h,  0 min,  0.452 sec
 * ratio c/w:     0.939 speedup
 SCF:
 * wall-time:     0 d,  0 h,  0 min,  0.121 sec
 *  cpu-time:     0 d,  0 h,  0 min,  0.121 sec
 * ratio c/w:     1.000 speedup
 ANC optimizer:
 * wall-time:     0 d,  0 h,  0 min,  0.314 sec
 *  cpu-time:     0 d,  0 h,  0 min,  0.306 sec
 * ratio c/w:     0.976 speedup

