72
 energy: -99.309580612372 gnorm: 0.007469896239 xtb: 6.6.1 (8d0f1dd)
N           -1.71754860000685        2.62417241699465        2.47748366237674
C           -1.52274988240463        1.83746923556397        1.52811488111714
C           -2.49315091541515        1.67272032319868        0.36652302471978
C           -3.12363894946041        0.29009862233290        0.44640075158707
C           -4.03366296558022       -0.10144622265369       -0.53734160080677
C           -4.66331718587549       -1.33613725707435       -0.49614366122504
O           -5.55939477708856       -1.77599876547856       -1.39618211198421
C           -5.95838968471198       -0.92567772396984       -2.44789920198991
C           -4.36876082824760       -2.23832183649862        0.56650510788182
O           -5.00676367015421       -3.41945087009615        0.51722579061332
C           -4.79278361273910       -4.36709709965994        1.53805951575800
C           -3.47756601513136       -1.83309835295262        1.55047707586277
C           -2.87065364047165       -0.58650811431437        1.49481739404815
C           -1.66158304788747        1.85841044436790       -0.90993558158588
C           -1.59327567646560        0.90995975301695       -2.07215089489255
C           -0.36188815929931        1.13027916051493       -1.24755728449197
N            0.21146838200184        0.12159511907461       -0.41731190373363
C            1.61301685781545        0.29550743716968       -0.12119545661484
C            2.56042054522809       -0.10341886743716       -1.27846231323652
C            3.98957603541848        0.06883076640993       -0.86600558721026
C            4.64881637052875        1.27609207253617       -1.06056383119881
C            5.96685891256763        1.43878036215179       -0.66822408541576
C            6.65849868252103        0.39620219819652       -0.06321592276693
O            7.93520032069156        0.43503806591236        0.34846555940553
C            8.69457250509174        1.60548254220483        0.14782117884953
C            5.98772038750049       -0.84333420376553        0.15307046629934
O            6.72755852006039       -1.79612330976392        0.74575691514840
C            6.16665533550085       -3.06656729630532        0.97943934616962
C            4.66793943575738       -0.98032444014218       -0.25058951312787
C           -0.20816504378870       -1.24711633504158       -0.61206147579966
C           -3.64493304247580        2.73109477971892        0.38749236684038
C           -4.61246620024545        2.47847599470725        1.53712754242998
C           -3.17723231130924        4.17938398346641        0.44133701047629
H           -4.27505310343992        0.58572663008416       -1.33218273365691
H           -6.38768761692699        0.00722524911521       -2.07055818035381
H           -6.71769454886632       -1.47794433126171       -2.99764549039981
H           -5.12199009456917       -0.69653994519863       -3.11589863128627
H           -5.10232757195332       -3.98204404139666        2.51374201763867
H           -5.41143715891130       -5.22332888775973        1.27559467367318
H           -3.74427093589592       -4.67705634577855        1.58235458637353
H           -3.25477134046001       -2.48375124002426        2.38042758355948
H           -2.20471259740817       -0.30647955159595        2.29503903043439
H           -5.26892119186688        2.57286565283535       -1.87865648127540
H           -1.61997802738000        2.90312255515252       -1.19063100529725
H           -2.08490485781418       -0.04413837156959       -1.99488330671824
H           -1.62017963870160        1.33032053374720       -3.06637698949167
H           -0.63699168007042        1.20041658672591        1.41844097239545
H            0.39425990837486        1.77924570091759       -1.67716623579444
H            1.85260806778929       -0.31616895239326        0.75337625711159
H            1.78875299928355        1.34243295593855        0.13909044116984
H            2.34270571480485        0.52000974060378       -2.14688605894215
H            2.37389358396688       -1.14462024978226       -1.54357933211518
H            4.13597049636953        2.09843852943988       -1.53538407358414
H            6.45411474346688        2.38421931238836       -0.84190555924379
H            8.27141619225795        2.45506728782088        0.69188952644075
H            8.77269083904443        1.85338323856701       -0.91474789705422
H            9.68449597096561        1.38175679288455        0.54075827798309
H            6.95555533147038       -3.65264594249507        1.44665732986291
H            5.30984235411751       -3.00748286982254        1.65778332687643
H            5.86248929577416       -3.54786841400663        0.04512802456229
H            4.15484858258409       -1.91760427741007       -0.10237073105187
H           -0.02715516234095       -1.59943840813449       -1.63412705660696
H           -1.26994382448407       -1.34424209254175       -0.39313789382384
H            0.33896727090571       -1.88275532088298        0.08113862281014
H           -4.22653729485777        2.61600943040857       -0.57408295476403
H           -4.08909095285897        2.59851849529918        2.48336479561969
H           -5.04089430050116        1.48010694951947        1.49779824259257
H           -5.42450700407203        3.20012800125009        1.49893397652207
H           -2.61552115863831        4.35238670653183        1.35677717752259
H           -2.56062477684201        4.46027083050476       -0.40902051910024
H           -4.04654235071519        4.83240023722920        0.44381580089869
H           -1.01473664650033        2.68522476522320        3.20711814559826
