25
 energy: -42.146047980582 gnorm: 0.045742491756 xtb: 6.6.1 (8d0f1dd)
C            3.91870238716498        0.44786818105284        0.16254359375517
N            2.77666686825775       -0.23182103938384        0.05805631537160
C            2.66771514439930       -1.57694090685449       -0.03055591472266
N            1.34592246219669       -1.94173502923454       -0.08844607208368
C            0.60191259458460       -0.82562715007187       -0.04320968767210
C            1.46781586210059        0.27669113053807        0.01679887822666
C            0.90965845848424        1.57015050586208       -0.04702903187752
O            1.71575189266878        2.64817912752597       -0.14538365454409
N           -0.45574674134702        1.65487120386200       -0.02174977376944
C           -3.85103225449396        1.22315653783936        0.10515922036063
C           -1.26403997462605        0.62092019106110        0.00318227408172
O           -2.57670827083232        0.49137875926181        0.06874725303155
N           -0.74670697847689       -0.69804460975533       -0.05349831266157
C           -1.54584315550504       -1.90896922436946       -0.07763407733694
H            3.93388896527544        1.47617894753789        0.46118317724481
H            4.83422211096866       -0.11023969119252        0.16734739910511
H            2.60968215225657        2.39711017571938       -0.41326963273763
H            3.48785170613654       -2.25991160463838       -0.03595413996877
H           -3.69710180688492        2.30072153008952        0.11001036498932
H           -4.39764303876361        0.91042381556011       -0.78047333791167
H           -4.34868867851669        0.89510408213797        1.01394838408281
H           -1.28957143144085       -2.53542749877022        0.77808506709595
H           -1.36281003037680       -2.45576825905490       -1.00413431101255
H           -2.59848127994260       -1.65578674052608       -0.02174548736612
H            1.02501455081126       -2.89424389259369       -0.15080687577997
25
 energy: -42.155659434420 gnorm: 0.027170727444 xtb: 6.6.1 (8d0f1dd)
C            3.91349827292765        0.45134959588553        0.16542140837712
N            2.77248296985294       -0.23013811385096        0.05979464067954
C            2.67312206949124       -1.57659935852150       -0.03042088541826
N            1.35484548703052       -1.95265887007208       -0.08809247112764
C            0.60369430597426       -0.84387201174529       -0.04141861181403
C            1.45735754558039        0.26753315164076        0.02040498788086
C            0.86574888090726        1.54856726733061       -0.04455779126298
O            1.59771147580705        2.66062020521966       -0.15293804254791
N           -0.48594185024317        1.62279115190842       -0.01914482708270
C           -3.77533442656031        1.26896551944160        0.10274766986097
C           -1.26718501051248        0.58291125023103        0.00624245912086
O           -2.56672740740616        0.46317299182477        0.07149526113836
N           -0.74422874662567       -0.72782851878949       -0.05241303182297
C           -1.54581560355756       -1.93360655556085       -0.07977780970710
H            3.93158148426874        1.47609109145132        0.47043048250369
H            4.82919833693704       -0.10595303374676        0.16566850065943
H            2.50970083269924        2.45526585893997       -0.41511380632243
H            3.49723667245731       -2.25446318301780       -0.03627292619986
H           -3.60240095568356        2.34125810472034        0.10706869015831
H           -4.34577519512924        0.96583534383453       -0.77502736935097
H           -4.29977709044816        0.95180234073519        1.00394460192037
H           -1.29244895849145       -2.55822141365510        0.77760847725746
H           -1.36252836928149       -2.47599748065873       -1.00822035763276
H           -2.59705386186708       -1.67191282586203       -0.02521154466488
H            1.03947065597132       -2.90667396608034       -0.15104608670186
25
 energy: -42.163475973777 gnorm: 0.022029268892 xtb: 6.6.1 (8d0f1dd)
C            3.89356926761652        0.47061805056745        0.16137314757656
N            2.76313554600983       -0.22621931428985        0.06157225065485
C            2.68233136296479       -1.57522746551636       -0.02632778549407
N            1.36872241545171       -1.97001567340415       -0.08596975104754
C            0.60480567253631       -0.87195439507613       -0.03882153351602
C            1.44178068755632        0.25269354369092        0.02366708514002
C            0.81539537726677        1.51763271652084       -0.04529812322110
O            1.46724879003186        2.66541529754347       -0.15440349798118
N           -0.52545505593971        1.57903243440604       -0.01982339935091
C           -3.67991735178892        1.32832775136309        0.10055583489437
C           -1.27798369234079        0.52560004962355        0.00705427428959
O           -2.56753446917638        0.41879080886008        0.07436187773376
N           -0.74421863760615       -0.77383571164392       -0.05148108895327
C           -1.54679042092060       -1.97636583887441       -0.08318918435692
H            3.89427242040268        1.50449316706483        0.43614327512573
H            4.81666151989910       -0.07561668639798        0.16533717502489
H            2.41068156652468        2.51392560459355       -0.36853677204019
H            3.51430520217487       -2.24321112421300       -0.03370431058070
H           -3.43473096179782        2.38677538921029        0.10250024308626
H           -4.29032737353679        1.06597640184966       -0.77146178173253
H           -4.24933936600485        1.05322111540546        0.99639369731184
H           -1.29904963021927       -2.60126023890645        0.77496326111336
H           -1.36297385246909       -2.51596144420992       -1.01240787519956
H           -2.59677431616522       -1.70777944718353       -0.03150932700437
H            1.06261681362884       -2.92681644938077       -0.14981607357228
25
 energy: -42.168871784110 gnorm: 0.027751943716 xtb: 6.6.1 (8d0f1dd)
C            3.87209913467535        0.49335370119580        0.15727565534367
N            2.75264453476958       -0.21926532950733        0.05986149384105
C            2.69168560252206       -1.57029743055055       -0.02417642866828
N            1.38324495101565       -1.98499752676896       -0.08316853466527
C            0.60365616884032       -0.89848184680978       -0.03702315472834
C            1.42495563440274        0.24133119632583        0.02434010663093
C            0.77264580041948        1.49350680545130       -0.04185823495246
O            1.36503356928434        2.67005525947862       -0.15079654500799
N           -0.56708025688266        1.53289970261136       -0.01384581344488
C           -3.60387845761365        1.38562893260910        0.09839130310827
C           -1.29742665347473        0.46344096519041        0.01060943052281
O           -2.58667722896314        0.37157215468524        0.07784415114215
N           -0.74869863023489       -0.82312177502237       -0.04966488927431
C           -1.54660480454775       -2.02821967386379       -0.08725895105010
H            3.85492097415071        1.53520782663076        0.40208981770957
H            4.80296058006893       -0.03906764881916        0.16639302054182
H            2.32434806871599        2.56856516214095       -0.33255301915000
H            3.53265024879427       -2.22705376508309       -0.03128438439604
H           -3.24574705697015        2.42185374325332        0.09764625889648
H           -4.24425230604874        1.18486967344823       -0.77489105435901
H           -4.20889011342753        1.17256552105827        0.99434112912569
H           -1.30315984742416       -2.65538749759135        0.77027583257316
H           -1.35997613822679       -2.56576798027078       -1.01695880276757
H           -2.59684310923245       -1.75918218450116       -0.03904125314966
H            1.08882084948596       -2.94576944368810       -0.14537551592114
25
 energy: -42.173219546012 gnorm: 0.024679866583 xtb: 6.6.1 (8d0f1dd)
C            3.84516830100518        0.51951312856144        0.15254948976038
N            2.73779913794097       -0.21015310815698        0.05605596407360
C            2.69755421351548       -1.56256727830320       -0.02270409772990
N            1.39499493081084       -1.99687536028929       -0.07892279501683
C            0.59821624873558       -0.92217745518255       -0.03594249136773
C            1.40419844699336        0.23237445671241        0.02205756646885
C            0.73534779811181        1.47410071187139       -0.03564900301095
O            1.28836722097796        2.66830815398900       -0.13660989986950
N           -0.60767412028683        1.48750008272443       -0.00400182658392
C           -3.53464096122541        1.43925197951205        0.09627556697026
C           -1.31996077532946        0.40350379999273        0.01406648968994
O           -2.61463929886122        0.33276572405884        0.07960396669356
N           -0.75797987297922       -0.87057474724997       -0.04756625103547
C           -1.54730895848804       -2.08229960487796       -0.09166439257739
H            3.80817977823832        1.56924662043091        0.36246658036520
H            4.78520087671491        0.00414615967935        0.16753010844024
H            2.24783493443680        2.61026859501077       -0.30228484175859
H            3.54831024869373       -2.20699516149455       -0.02826587790201
H           -3.06000626284953        2.43761998428205        0.09366132090915
H           -4.18606205371525        1.30746004665131       -0.78180485603353
H           -4.15558313256404        1.29528591585386        0.99440247962937
H           -1.30711609288627       -2.71303932323539        0.76450606824805
H           -1.35492966246552       -2.61904934963172       -1.02105562482898
H           -2.59896256351516       -1.81702884725440       -0.04814693899817
H            1.11412313308981       -2.96234658205180       -0.13738508663510
25
 energy: -42.176349985041 gnorm: 0.014056399372 xtb: 6.6.1 (8d0f1dd)
C            3.81525282646440        0.54527372313151        0.14480874660822
N            2.72026765674474       -0.20189180444938        0.05014020114096
C            2.69830056566872       -1.55489615881320       -0.02149756407673
N            1.40147209170311       -2.00583129458922       -0.07274881055466
C            0.58896154988879       -0.94179237707842       -0.03565639558062
C            1.38199197502576        0.22424325372299        0.01671869135755
C            0.70701394576832        1.45941043934780       -0.03069825166712
O            1.23950126557598        2.66210120169826       -0.11639936307704
N           -0.63915206036343        1.44924818360047        0.00254391040419
C           -3.47325266248995        1.48076894556026        0.09436219455987
C           -1.33904335001801        0.35606175076635        0.01480199315211
O           -2.64106015117264        0.31266337934378        0.07776858755883
N           -0.77045858259797       -0.90930914415528       -0.04566882479447
C           -1.55043653038721       -2.12871570284569       -0.09507789282858
H            3.75851954637778        1.60085238520214        0.31920432783026
H            4.76488480328799        0.04886345814248        0.16577259976153
H            2.19558990736467        2.64068036546397       -0.26449275681168
H            3.55815185410668       -2.18732210907727       -0.02463256267074
H           -2.91376579987999        2.42758243302957        0.09114345762854
H           -4.11917586633779        1.41291040714564       -0.78773640553923
H           -4.09086637872130        1.40129432725862        0.99447945945129
H           -1.31229883253009       -2.76257759046975        0.76001552559591
H           -1.35004488744492       -2.66620828075835       -1.02309569422691
H           -2.60415417307123       -1.86933220655109       -0.05738033834013
H            1.13423280113641       -2.97583904302350       -0.12550321698094
25
 energy: -42.177861787523 gnorm: 0.011708085068 xtb: 6.6.1 (8d0f1dd)
C            3.78694860334799        0.56962552731427        0.13246201611052
N            2.70380187671530       -0.19516412531940        0.04298404244976
C            2.69694417521603       -1.54830515034709       -0.02069520051160
N            1.40524224390894       -2.01360588811176       -0.06570302322866
C            0.57906639161985       -0.95957445251488       -0.03568050010027
C            1.36093882088271        0.21458880488138        0.01098174987551
C            0.68167042945755        1.44566263074600       -0.02724386409871
O            1.20136138280779        2.65502259380172       -0.09586027414881
N           -0.66356823916985        1.41685550978552        0.00298309751092
C           -3.41994597713276        1.51173446334950        0.09161348957352
C           -1.35454354628921        0.31856579941658        0.01286316466869
O           -2.66079801279221        0.29736062242614        0.07225986014582
N           -0.78253107442497       -0.94126048586665       -0.04416651725101
C           -1.55395788335367       -2.16599002374943       -0.09637823049222
H            3.71344633425382        1.62666658963310        0.28062889934549
H            4.74571981327527        0.09219606678258        0.15638810768308
H            2.16268526889248        2.66475853760939       -0.21484329868795
H            3.56484443739936       -2.16945405245775       -0.02155021466577
H           -2.78312895674214        2.40629275096996        0.08876467784295
H           -4.06651588785979        1.50365950343330       -0.79095213478931
H           -4.03884341302183        1.49073450385806        0.99201039086518
H           -1.31572681825029       -2.79893291854563        0.75966700339940
H           -1.34425896653229       -2.70369131861588       -1.02269737071171
H           -2.60960115694190       -1.91198829801636       -0.06474572414883
H            1.15118166883272       -2.98751864886000       -0.11191852873561
25
 energy: -42.178291514046 gnorm: 0.007921470826 xtb: 6.6.1 (8d0f1dd)
C            3.76820183623985        0.58468374548550        0.12020554130188
N            2.69308624545244       -0.19177009844294        0.03834369527339
C            2.69392021377853       -1.54446057782533       -0.01928300596286
N            1.40514776306925       -2.01734482124106       -0.05991496440003
C            0.57157768760219       -0.96892656223609       -0.03441527370375
C            1.34807152183689        0.20802017552402        0.00932282418540
C            0.66849596507650        1.43887809341011       -0.01975527956234
O            1.18768070090788        2.64801658014469       -0.07762595953962
N           -0.67372067596975        1.40247194421339        0.00444266191994
C           -3.38931990695787        1.52834092295152        0.08782285794508
C           -1.36356289757032        0.30365752907067        0.01123473196160
O           -2.67143750899170        0.29674763178215        0.06480442805547
N           -0.79121328761931       -0.95592064564721       -0.04228585316684
C           -1.55672301176652       -2.18441719363264       -0.09630944983714
H            3.68452684971674        1.64225041465201        0.25113446170032
H            4.73295548086476        0.12061884016665        0.14260920401343
H            2.14763717245466        2.66675752431468       -0.17860793296755
H            3.56636869797285       -2.15876647582453       -0.01934250790616
H           -2.71953397912402        2.38348816283598        0.08683517920732
H           -4.02853364651333        1.55095136533085       -0.79338624165265
H           -4.00059792726314        1.53368610502423        0.98665195473202
H           -1.31881695635257       -2.81574177957894        0.76119069030333
H           -1.33956228192990       -2.72298424532783       -1.02056457007676
H           -2.61403130264562       -1.93648738628972       -0.07012857491813
H            1.15981476183043       -2.99351070725751       -0.10180699900504
