      -----------------------------------------------------------      
     |                   =====================                   |     
     |                           x T B                           |     
     |                   =====================                   |     
     |                         S. Grimme                         |     
     |          Mulliken Center for Theoretical Chemistry        |     
     |                    University of Bonn                     |     
      -----------------------------------------------------------      

   * xtb version 6.6.1 (8d0f1dd) compiled by 'conda@1efc2f54142f' on 2023-08-01

   xtb is free software: you can redistribute it and/or modify it under
   the terms of the GNU Lesser General Public License as published by
   the Free Software Foundation, either version 3 of the License, or
   (at your option) any later version.
   
   xtb is distributed in the hope that it will be useful,
   but WITHOUT ANY WARRANTY; without even the implied warranty of
   MERCHANTABILITY or FITNESS FOR A PARTICULAR PURPOSE.  See the
   GNU Lesser General Public License for more details.
   
   Cite this work as:
   * C. Bannwarth, E. Caldeweyher, S. Ehlert, A. Hansen, P. Pracht,
     J. Seibert, S. Spicher, S. Grimme, WIREs Comput. Mol. Sci., 2020, 11,
     e01493. DOI: 10.1002/wcms.1493
   
   for GFN2-xTB:
   * C. Bannwarth, S. Ehlert and S. Grimme., J. Chem. Theory Comput., 2019,
     15, 1652-1671. DOI: 10.1021/acs.jctc.8b01176
   for GFN1-xTB:
   * S. Grimme, C. Bannwarth, P. Shushkov, J. Chem. Theory Comput., 2017,
     13, 1989-2009. DOI: 10.1021/acs.jctc.7b00118
   for GFN0-xTB:
   * P. Pracht, E. Caldeweyher, S. Ehlert, S. Grimme, ChemRxiv, 2019, preprint.
     DOI: 10.26434/chemrxiv.8326202.v1
   for GFN-FF:
   * S. Spicher and S. Grimme, Angew. Chem. Int. Ed., 2020, 59, 15665-15673.
     DOI: 10.1002/anie.202004239
   
   for ALPB and GBSA implicit solvation:
   * S. Ehlert, M. Stahn, S. Spicher, S. Grimme, J. Chem. Theory Comput.,
     2021, 17, 4250-4261. DOI: 10.1021/acs.jctc.1c00471
   
   for DFT-D4:
   * E. Caldeweyher, C. Bannwarth and S. Grimme, J. Chem. Phys., 2017,
     147, 034112. DOI: 10.1063/1.4993215
   * E. Caldeweyher, S. Ehlert, A. Hansen, H. Neugebauer, S. Spicher,
     C. Bannwarth and S. Grimme, J. Chem. Phys., 2019, 150, 154122.
     DOI: 10.1063/1.5090222
   * E. Caldeweyher, J.-M. Mewes, S. Ehlert and S. Grimme, Phys. Chem. Chem. Phys.
     2020, 22, 8499-8512. DOI: 10.1039/D0CP00502A
   
   for sTDA-xTB:
   * S. Grimme and C. Bannwarth, J. Chem. Phys., 2016, 145, 054103.
     DOI: 10.1063/1.4959605
   
   in the mass-spec context:
   * V. Asgeirsson, C. Bauer and S. Grimme, Chem. Sci., 2017, 8, 4879.
     DOI: 10.1039/c7sc00601b
   * J. Koopman and S. Grimme, ACS Omega 2019, 4, 12, 15120-15133.
     DOI: 10.1021/acsomega.9b02011
   
   for metadynamics refer to:
   * S. Grimme, J. Chem. Theory Comput., 2019, 155, 2847-2862
     DOI: 10.1021/acs.jctc.9b00143
   
   for SPH calculations refer to:
   * S. Spicher and S. Grimme, J. Chem. Theory Comput., 2021, 17, 1701-1714
     DOI: 10.1021/acs.jctc.0c01306
   
   with help from (in alphabetical order)
   P. Atkinson, C. Bannwarth, F. Bohle, G. Brandenburg, E. Caldeweyher
   M. Checinski, S. Dohm, S. Ehlert, S. Ehrlich, I. Gerasimov, C. Hölzer
   A. Katbashev, J. Koopman, C. Lavigne, S. Lehtola, F. März, M. Müller,
   F. Musil, H. Neugebauer, J. Pisarek, C. Plett, P. Pracht, F. Pultar,
   J. Seibert, P. Shushkov, S. Spicher, M. Stahn, M. Steiner, T. Strunk,
   J. Stückrath, T. Rose, and J. Unsleber
   
 * started run on 2024/04/06 at 11:16:20.160     

           -------------------------------------------------
          |                Calculation Setup                |
           -------------------------------------------------

          program call               : xtb struc.xyz --opt loose --input .xc1 --gfn2
          hostname                   : n-62-30-23
          coordinate file            : struc.xyz
          omp threads                :                     1

   ID    Z sym.   atoms
    1    7 N      1, 17
    2    6 C      2-6, 8, 9, 11-16, 18-23, 25, 26, 28-33
    3    8 O      7, 10, 24, 27
    4    1 H      34-72
constraining bond 13 34 to    3.7133300 Å, actual value:    3.3658249 Å

           -------------------------------------------------
          |                 G F N 2 - x T B                 |
           -------------------------------------------------

        Reference                      10.1021/acs.jctc.8b01176
      * Hamiltonian:
        H0-scaling (s, p, d)           1.850000    2.230000    2.230000
        zeta-weighting                 0.500000
      * Dispersion:
        s8                             2.700000
        a1                             0.520000
        a2                             5.000000
        s9                             5.000000
      * Repulsion:
        kExp                           1.500000    1.000000
        rExp                           1.000000
      * Coulomb:
        alpha                          2.000000
        third order                    shell-resolved
        anisotropic                    true
        a3                             3.000000
        a5                             4.000000
        cn-shift                       1.200000
        cn-exp                         4.000000
        max-rad                        5.000000


          ...................................................
          :                      SETUP                      :
          :.................................................:
          :  # basis functions                 171          :
          :  # atomic orbitals                 171          :
          :  # shells                          105          :
          :  # electrons                       180          :
          :  max. iterations                   250          :
          :  Hamiltonian                  GFN2-xTB          :
          :  restarted?                      false          :
          :  GBSA solvation                  false          :
          :  PC potential                    false          :
          :  electronic temp.         5000.0000000     K    :
          :  accuracy                    1.0000000          :
          :  -> integral cutoff          0.2500000E+02      :
          :  -> integral neglect         0.1000000E-07      :
          :  -> SCF convergence          0.1000000E-05 Eh   :
          :  -> wf. convergence          0.1000000E-03 e    :
          :  Broyden damping             0.4000000          :
          ...................................................

 iter      E             dE          RMSdq      gap      omega  full diag
   1   -100.5973919 -0.100597E+03  0.374E+00    3.20       0.0  T
   2   -100.7362642 -0.138872E+00  0.221E+00    1.08       1.0  T
   3   -100.7049001  0.313641E-01  0.141E+00    3.29       1.0  T
   4   -100.7721690 -0.672689E-01  0.526E-01    1.50       1.0  T
   5   -100.7894292 -0.172602E-01  0.190E-01    1.98       1.0  T
   6   -100.7911978 -0.176856E-02  0.792E-02    1.77       1.0  T
   7   -100.7914750 -0.277198E-03  0.375E-02    1.83       1.0  T
   8   -100.7914914 -0.164582E-04  0.140E-02    1.83       1.0  T
   9   -100.7914976 -0.616739E-05  0.474E-03    1.82       2.5  T
  10   -100.7914988 -0.118227E-05  0.172E-03    1.82       6.8  T
  11   -100.7914989 -0.139928E-06  0.766E-04    1.82      15.4  T
  12   -100.7914989 -0.773143E-08  0.318E-04    1.82      37.0  T

   *** convergence criteria satisfied after 12 iterations ***

         #    Occupation            Energy/Eh            Energy/eV
      -------------------------------------------------------------
         1        2.0000           -0.8078051             -21.9815
       ...           ...                  ...                  ...
        84        1.9966           -0.5157491             -14.0342
        85        1.9959           -0.5128261             -13.9547
        86        1.9840           -0.4911498             -13.3649
        87        1.9795           -0.4872543             -13.2589
        88        1.9640           -0.4782114             -13.0128
        89        1.8920           -0.4602041             -12.5228
        90        1.8557           -0.4553147             -12.3897 (HOMO)
        91        0.3166           -0.3884132             -10.5693 (LUMO)
        92        0.0218           -0.3434697              -9.3463
        93        0.0041           -0.3169887              -8.6257
        94        0.0034           -0.3139726              -8.5436
        95        0.0029           -0.3112618              -8.4699
       ...           ...                  ...                  ...
       171                          0.5822580              15.8440
      -------------------------------------------------------------
                  HL-Gap            0.0669015 Eh            1.8205 eV
             Fermi-level           -0.4148687 Eh          -11.2892 eV

 SCC (total)                   0 d,  0 h,  0 min,  0.190 sec
 SCC setup                      ...        0 min,  0.001 sec (  0.647%)
 Dispersion                     ...        0 min,  0.002 sec (  0.904%)
 classical contributions        ...        0 min,  0.000 sec (  0.256%)
 integral evaluation            ...        0 min,  0.018 sec (  9.563%)
 iterations                     ...        0 min,  0.098 sec ( 51.836%)
 molecular gradient             ...        0 min,  0.069 sec ( 36.448%)
 printout                       ...        0 min,  0.001 sec (  0.338%)

         :::::::::::::::::::::::::::::::::::::::::::::::::::::
         ::                     SUMMARY                     ::
         :::::::::::::::::::::::::::::::::::::::::::::::::::::
         :: total energy             -99.425692961575 Eh    ::
         :: gradient norm              0.099587268085 Eh/a0 ::
         :: HOMO-LUMO gap              1.820481192090 eV    ::
         ::.................................................::
         :: SCC energy              -100.791498925389 Eh    ::
         :: -> isotropic ES            0.109302908418 Eh    ::
         :: -> anisotropic ES          0.005415138735 Eh    ::
         :: -> anisotropic XC          0.042392697176 Eh    ::
         :: -> dispersion             -0.075527661009 Eh    ::
         :: repulsion energy           1.386151658689 Eh    ::
         :: add. restraining          -0.021562047381 Eh    ::
         :: total charge               1.000000000108 e     ::
         :::::::::::::::::::::::::::::::::::::::::::::::::::::

      ----------------------------------------------------------- 
     |                   =====================                   |
     |                        A N C O P T                        |
     |                   =====================                   |
     |               Approximate Normal Coordinate               |
     |                Rational Function Optimizer                |
      ----------------------------------------------------------- 

          ...................................................
          :                      SETUP                      :
          :.................................................:
          :   optimization level             loose          :
          :   max. optcycles                   200          :
          :   ANC micro-cycles                  20          :
          :   degrees of freedom               210          :
          :.................................................:
          :   RF solver                   davidson          :
          :   write xtbopt.log                true          :
          :   linear?                        false          :
          :   energy convergence         0.5000000E-04 Eh   :
          :   grad. convergence          0.4000000E-02 Eh/α :
          :   maxmium RF displ.          1.0000000          :
          :   Hlow (freq-cutoff)         0.1000000E-01      :
          :   Hmax (freq-cutoff)         5.0000000          :
          :   S6 in model hess.         20.0000000          :
          ...................................................

generating ANC from model Hessian ...
Using Lindh-Hessian (1995)
 Shifting diagonal of input Hessian by    9.9116928377579235E-003
 Lowest  eigenvalues of input Hessian
    0.000000    0.000000    0.000000    0.000000    0.000000    0.000000
    0.010000    0.010029    0.010106    0.010186    0.010357    0.010570
    0.010673    0.010919    0.011140    0.011682    0.011765    0.012745
 Highest eigenvalues
    2.034456    2.035877    2.051493    2.179593    2.184410    2.187331


........................................................................
.............................. CYCLE    1 ..............................
........................................................................

 iter      E             dE          RMSdq      gap      omega  full diag
   1   -100.7914989 -0.100791E+03  0.114E-04    1.82       0.0  T
   2   -100.7914989 -0.678995E-10  0.713E-05    1.82     165.2  T
   3   -100.7914989  0.665210E-10  0.496E-05    1.82     237.5  T
     SCC iter.                  ...        0 min,  0.026 sec
     gradient                   ...        0 min,  0.069 sec
 * total energy  :   -99.4256930 Eh     change       -0.4035485E-08 Eh
   gradient norm :     0.0995889 Eh/α   predicted     0.0000000E+00 (-100.00%)
   displ. norm   :     0.5974888 α      lambda       -0.4515587E-01
   maximum displ.:     0.3018179 α      in ANC's #59, #58, #61, ...

........................................................................
.............................. CYCLE    2 ..............................
........................................................................

 iter      E             dE          RMSdq      gap      omega  full diag
   1   -100.8174462 -0.100817E+03  0.443E-01    1.69       0.0  T
   2   -100.8175067 -0.605125E-04  0.272E-01    1.84       1.0  T
   3   -100.8133333  0.417339E-02  0.210E-01    1.51       1.0  T
   4   -100.8177703 -0.443697E-02  0.404E-02    1.80       1.0  T
   5   -100.8179399 -0.169595E-03  0.851E-03    1.76       1.4  T
   6   -100.8179411 -0.120390E-05  0.429E-03    1.76       2.7  T
   7   -100.8179415 -0.463276E-06  0.146E-03    1.76       8.1  T
   8   -100.8179416 -0.907472E-07  0.518E-04    1.76      22.7  T
   9   -100.8179416 -0.693166E-08  0.211E-04    1.76      55.7  T
     SCC iter.                  ...        0 min,  0.073 sec
     gradient                   ...        0 min,  0.069 sec
 * total energy  :   -99.4624719 Eh     change       -0.3677897E-01 Eh
   gradient norm :     0.0783266 Eh/α   predicted    -0.3064010E-01 ( -16.69%)
   displ. norm   :     0.6800349 α      lambda       -0.3423312E-01
   maximum displ.:     0.3370329 α      in ANC's #59, #58, #61, ...

........................................................................
.............................. CYCLE    3 ..............................
........................................................................

 iter      E             dE          RMSdq      gap      omega  full diag
   1   -100.7659499 -0.100766E+03  0.528E-01    1.64       0.0  T
   2   -100.7661802 -0.230298E-03  0.323E-01    1.79       1.0  T
   3   -100.7601563  0.602391E-02  0.258E-01    1.42       1.0  T
   4   -100.7665018 -0.634554E-02  0.638E-02    1.78       1.0  T
   5   -100.7669287 -0.426822E-03  0.128E-02    1.70       1.0  T
   6   -100.7669332 -0.452858E-05  0.597E-03    1.70       2.0  T
   7   -100.7669338 -0.552949E-06  0.229E-03    1.70       5.1  T
   8   -100.7669340 -0.232458E-06  0.939E-04    1.70      12.6  T
   9   -100.7669340 -0.222798E-07  0.364E-04    1.70      32.4  T
     SCC iter.                  ...        0 min,  0.073 sec
     gradient                   ...        0 min,  0.069 sec
 * total energy  :   -99.4891131 Eh     change       -0.2664119E-01 Eh
   gradient norm :     0.1237883 Eh/α   predicted    -0.2503206E-01 (  -6.04%)
   displ. norm   :     0.6724406 α      lambda       -0.3134919E-01
   maximum displ.:     0.2980391 α      in ANC's #59, #58, #61, ...

........................................................................
.............................. CYCLE    4 ..............................
........................................................................

 iter      E             dE          RMSdq      gap      omega  full diag
   1   -100.6335114 -0.100634E+03  0.438E-01    0.92       0.0  T
   2   -100.6193300  0.141814E-01  0.579E-01    1.93       1.0  T
   3   -100.6488810 -0.295510E-01  0.207E-01    1.47       1.0  T
   4   -100.6484936  0.387441E-03  0.953E-02    1.32       1.0  T
   5   -100.6494481 -0.954465E-03  0.549E-02    1.37       1.0  T
   6   -100.6496650 -0.216899E-03  0.141E-02    1.39       1.0  T
   7   -100.6496676 -0.267007E-05  0.686E-03    1.39       1.7  T
   8   -100.6496710 -0.338436E-05  0.240E-03    1.38       4.9  T
   9   -100.6496714 -0.349124E-06  0.884E-04    1.38      13.3  T
  10   -100.6496714 -0.683109E-08  0.385E-04    1.38      30.6  T
     SCC iter.                  ...        0 min,  0.081 sec
     gradient                   ...        0 min,  0.069 sec
 * total energy  :   -99.5226557 Eh     change       -0.3354258E-01 Eh
   gradient norm :     0.1981548 Eh/α   predicted    -0.2276237E-01 ( -32.14%)
   displ. norm   :     0.6639267 α      lambda       -0.6157937E-01
   maximum displ.:     0.2719654 α      in ANC's #59, #58, #61, ...

........................................................................
.............................. CYCLE    5 ..............................
........................................................................

 iter      E             dE          RMSdq      gap      omega  full diag
   1   -100.5080325 -0.100508E+03  0.733E-01    0.22       0.0  T
   2   -100.3767285  0.131304E+00  0.133E+00    1.79       1.0  T
   3   -100.5556255 -0.178897E+00  0.402E-01    1.19       1.0  T
   4   -100.5636478 -0.802227E-02  0.160E-01    0.75       1.0  T
   5   -100.5647523 -0.110453E-02  0.667E-02    0.82       1.0  T
   6   -100.5653221 -0.569797E-03  0.272E-02    0.86       1.0  T
   7   -100.5653781 -0.559125E-04  0.862E-03    0.88       1.4  T
   8   -100.5653791 -0.106474E-05  0.415E-03    0.87       2.8  T
   9   -100.5653801 -0.991402E-06  0.142E-03    0.87       8.3  T
  10   -100.5653802 -0.892726E-07  0.644E-04    0.87      18.3  T
  11   -100.5653802 -0.153838E-07  0.253E-04    0.87      46.5  T
     SCC iter.                  ...        0 min,  0.089 sec
     gradient                   ...        0 min,  0.069 sec
 * total energy  :   -99.6059114 Eh     change       -0.8325568E-01 Eh
   gradient norm :     0.2501054 Eh/α   predicted    -0.4436174E-01 ( -46.72%)
   displ. norm   :     0.7169426 α      lambda       -0.1061197E+00
   maximum displ.:     0.2344180 α      in ANC's #59, #58, #61, ...

........................................................................
.............................. CYCLE    6 ..............................
........................................................................

 iter      E             dE          RMSdq      gap      omega  full diag
   1   -100.4770658 -0.100477E+03  0.549E-01    0.33       0.0  T
   2   -100.4118945  0.651714E-01  0.829E-01    1.32       1.0  T
   3   -100.4871815 -0.752871E-01  0.283E-01    0.40       1.0  T
   4   -100.4921443 -0.496275E-02  0.177E-01    0.71       1.0  T
   5   -100.4940880 -0.194376E-02  0.463E-02    0.63       1.0  T
   6   -100.4942736 -0.185512E-03  0.126E-02    0.61       1.0  T
   7   -100.4942885 -0.149933E-04  0.660E-03    0.62       1.8  T
   8   -100.4942907 -0.215860E-05  0.356E-03    0.62       3.3  T
   9   -100.4942916 -0.898277E-06  0.109E-03    0.62      10.9  T
  10   -100.4942917 -0.584146E-07  0.368E-04    0.62      32.0  T
  11   -100.4942917 -0.758936E-08  0.169E-04    0.62      69.7  T
     SCC iter.                  ...        0 min,  0.089 sec
     gradient                   ...        0 min,  0.069 sec
 * total energy  :   -99.7215856 Eh     change       -0.1156742E+00 Eh
   gradient norm :     0.4643254 Eh/α   predicted    -0.8033302E-01 ( -30.55%)
   displ. norm   :     0.8001545 α      lambda       -0.3170312E+00
   maximum displ.:     0.2818179 α      in ANC's #77, #53, #125, ...

........................................................................
.............................. CYCLE    7 ..............................
........................................................................

 iter      E             dE          RMSdq      gap      omega  full diag
   1   -100.4221898 -0.100422E+03  0.729E-01    0.62       0.0  T
   2   -100.3227460  0.994438E-01  0.101E+00    0.41       1.0  T
   3   -100.4266065 -0.103861E+00  0.427E-01    0.59       1.0  T
   4   -100.4355368 -0.893031E-02  0.246E-01    0.47       1.0  T
   5   -100.4392894 -0.375261E-02  0.591E-02    0.50       1.0  T
   6   -100.4396440 -0.354586E-03  0.210E-02    0.48       1.0  T
   7   -100.4396547 -0.106772E-04  0.122E-02    0.48       1.0  T
   8   -100.4396671 -0.123533E-04  0.531E-03    0.48       2.2  T
   9   -100.4396693 -0.225003E-05  0.143E-03    0.48       8.3  T
  10   -100.4396694 -0.602082E-07  0.579E-04    0.48      20.3  T
  11   -100.4396694 -0.116262E-07  0.274E-04    0.48      43.0  T
     SCC iter.                  ...        0 min,  0.089 sec
     gradient                   ...        0 min,  0.069 sec
 * total energy  :   -99.8139264 Eh     change       -0.9234078E-01 Eh
   gradient norm :     0.3930988 Eh/α   predicted    -0.2600049E+00 ( 181.57%)
   displ. norm   :     0.8505899 α      lambda       -0.2577347E+00
   maximum displ.:     0.2953177 α      in ANC's #59, #58, #61, ...

........................................................................
.............................. CYCLE    8 ..............................
........................................................................

 iter      E             dE          RMSdq      gap      omega  full diag
   1   -100.2777922 -0.100278E+03  0.923E-01    0.82       0.0  T
   2   -100.1512860  0.126506E+00  0.108E+00    0.41       1.0  T
   3   -100.2492772 -0.979912E-01  0.756E-01    0.74       1.0  T
   4   -100.2927238 -0.434466E-01  0.329E-01    0.57       1.0  T
   5   -100.2986809 -0.595710E-02  0.142E-01    0.57       1.0  T
   6   -100.3010850 -0.240412E-02  0.378E-02    0.51       1.0  T
   7   -100.3011212 -0.361391E-04  0.226E-02    0.50       1.0  T
   8   -100.3011496 -0.284560E-04  0.107E-02    0.52       1.1  T
   9   -100.3011614 -0.117801E-04  0.427E-03    0.51       2.8  T
  10   -100.3011628 -0.136867E-05  0.174E-03    0.51       6.8  T
  11   -100.3011630 -0.209063E-06  0.593E-04    0.51      19.9  T
  12   -100.3011630  0.198625E-09  0.390E-04    0.51      30.2  T
     SCC iter.                  ...        0 min,  0.096 sec
     gradient                   ...        0 min,  0.069 sec
 * total energy  :  -100.1159041 Eh     change       -0.3019777E+00 Eh
   gradient norm :     0.5440430 Eh/α   predicted    -0.2221034E+00 ( -26.45%)
   displ. norm   :     0.8455777 α      lambda       -0.3732968E+00
   maximum displ.:     0.2887140 α      in ANC's #59, #81, #58, ...

........................................................................
.............................. CYCLE    9 ..............................
........................................................................

 iter      E             dE          RMSdq      gap      omega  full diag
   1   -100.2276441 -0.100228E+03  0.900E-01    1.38       0.0  T
   2   -100.0059774  0.221667E+00  0.141E+00    0.25       1.0  T
   3   -100.2392169 -0.233239E+00  0.575E-01    1.38       1.0  T
   4   -100.2590219 -0.198050E-01  0.252E-01    1.07       1.0  T
   5   -100.2636837 -0.466183E-02  0.105E-01    0.96       1.0  T
   6   -100.2645248 -0.841116E-03  0.456E-02    0.94       1.0  T
   7   -100.2643727  0.152118E-03  0.570E-02    0.97       1.0  T
   8   -100.2646358 -0.263079E-03  0.184E-02    0.96       1.0  T
   9   -100.2646593 -0.235489E-04  0.777E-03    0.96       1.5  T
  10   -100.2646633 -0.397008E-05  0.333E-03    0.96       3.5  T
  11   -100.2646641 -0.743282E-06  0.156E-03    0.96       7.5  T
  12   -100.2646642 -0.941199E-07  0.541E-04    0.96      21.8  T
  13   -100.2646642 -0.162484E-07  0.248E-04    0.96      47.5  T
     SCC iter.                  ...        0 min,  0.103 sec
     gradient                   ...        0 min,  0.069 sec
 * total energy  :  -100.1764331 Eh     change       -0.6052902E-01 Eh
   gradient norm :     1.5358179 Eh/α   predicted    -0.3201023E+00 ( 428.84%)
   displ. norm   :     0.4557448 α      lambda       -0.6571385E+00
   maximum displ.:     0.1288851 α      in ANC's #59, #61, #81, ...

........................................................................
.............................. CYCLE   10 ..............................
........................................................................

 iter      E             dE          RMSdq      gap      omega  full diag
   1   -100.2889249 -0.100289E+03  0.365E-01    0.79       0.0  T
   2   -100.2786481  0.102768E-01  0.389E-01    1.20       1.0  T
   3   -100.2882366 -0.958855E-02  0.271E-01    0.69       1.0  T
   4   -100.2934479 -0.521125E-02  0.143E-01    0.98       1.0  T
   5   -100.2941727 -0.724831E-03  0.761E-02    0.89       1.0  T
   6   -100.2946736 -0.500925E-03  0.293E-02    0.90       1.0  T
   7   -100.2947580 -0.843926E-04  0.896E-03    0.90       1.3  T
   8   -100.2947594 -0.139772E-05  0.620E-03    0.90       1.9  T
   9   -100.2947631 -0.366706E-05  0.235E-03    0.90       5.0  T
  10   -100.2947632 -0.973346E-07  0.992E-04    0.90      11.9  T
  11   -100.2947633 -0.811539E-07  0.324E-04    0.90      36.4  T
     SCC iter.                  ...        0 min,  0.088 sec
     gradient                   ...        0 min,  0.069 sec
 * total energy  :  -100.3052920 Eh     change       -0.1288589E+00 Eh
   gradient norm :     0.4683673 Eh/α   predicted    -0.3968141E+00 ( 207.94%)
   displ. norm   :     0.5398721 α      lambda       -0.1090998E+00
   maximum displ.:     0.2048611 α      in ANC's #77, #17, #49, ...

........................................................................
.............................. CYCLE   11 ..............................
........................................................................

 iter      E             dE          RMSdq      gap      omega  full diag
   1   -100.3357052 -0.100336E+03  0.493E-01    1.21       0.0  T
   2   -100.3033674  0.323377E-01  0.594E-01    0.59       1.0  T
   3   -100.3349487 -0.315813E-01  0.326E-01    1.28       1.0  T
   4   -100.3374625 -0.251374E-02  0.235E-01    0.90       1.0  T
   5   -100.3431230 -0.566052E-02  0.458E-02    1.06       1.0  T
   6   -100.3432779 -0.154896E-03  0.178E-02    1.03       1.0  T
   7   -100.3432951 -0.172606E-04  0.116E-02    1.03       1.0  T
   8   -100.3433027 -0.754024E-05  0.387E-03    1.02       3.0  T
   9   -100.3433036 -0.975970E-06  0.173E-03    1.03       6.8  T
  10   -100.3433038 -0.160375E-06  0.718E-04    1.02      16.4  T
  11   -100.3433038 -0.148051E-07  0.293E-04    1.02      40.3  T
     SCC iter.                  ...        0 min,  0.088 sec
     gradient                   ...        0 min,  0.069 sec
 * total energy  :  -100.4023513 Eh     change       -0.9705927E-01 Eh
   gradient norm :     0.3797280 Eh/α   predicted    -0.7044908E-01 ( -27.42%)
   displ. norm   :     0.7146321 α      lambda       -0.1745241E+00
   maximum displ.:     0.2924166 α      in ANC's #77, #159, #137, ...

........................................................................
.............................. CYCLE   12 ..............................
........................................................................

 iter      E             dE          RMSdq      gap      omega  full diag
   1   -100.3962383 -0.100396E+03  0.646E-01    1.33       0.0  T
   2   -100.3752276  0.210107E-01  0.638E-01    0.66       1.0  T
   3   -100.3981599 -0.229322E-01  0.372E-01    1.33       1.0  T
   4   -100.3997896 -0.162975E-02  0.286E-01    0.95       1.0  T
   5   -100.4059325 -0.614286E-02  0.969E-02    1.16       1.0  T
   6   -100.4072297 -0.129716E-02  0.345E-02    1.08       1.0  T
   7   -100.4073309 -0.101226E-03  0.142E-02    1.09       1.0  T
   8   -100.4073383 -0.742062E-05  0.717E-03    1.09       1.6  T
   9   -100.4073420 -0.372285E-05  0.338E-03    1.09       3.5  T
  10   -100.4073427 -0.727923E-06  0.110E-03    1.09      10.7  T
  11   -100.4073428 -0.270909E-07  0.525E-04    1.09      22.5  T
  12   -100.4073428 -0.787799E-08  0.241E-04    1.09      49.0  T
     SCC iter.                  ...        0 min,  0.096 sec
     gradient                   ...        0 min,  0.069 sec
 * total energy  :  -100.4779003 Eh     change       -0.7554900E-01 Eh
   gradient norm :     0.6091602 Eh/α   predicted    -0.1318267E+00 (  74.49%)
   displ. norm   :     0.5907770 α      lambda       -0.1211330E+00
   maximum displ.:     0.2830650 α      in ANC's #53, #41, #49, ...

........................................................................
.............................. CYCLE   13 ..............................
........................................................................

 iter      E             dE          RMSdq      gap      omega  full diag
   1   -100.4630564 -0.100463E+03  0.338E-01    1.05       0.0  T
   2   -100.4542411  0.881532E-02  0.349E-01    1.20       1.0  T
   3   -100.4631274 -0.888624E-02  0.212E-01    0.96       1.0  T
   4   -100.4652410 -0.211367E-02  0.143E-01    1.21       1.0  T
   5   -100.4668415 -0.160050E-02  0.304E-02    1.08       1.0  T
   6   -100.4668975 -0.559353E-04  0.105E-02    1.10       1.1  T
   7   -100.4668960  0.141325E-05  0.825E-03    1.10       1.4  T
   8   -100.4669012 -0.512942E-05  0.361E-03    1.10       3.3  T
   9   -100.4669022 -0.106083E-05  0.126E-03    1.10       9.4  T
  10   -100.4669023 -0.105193E-06  0.506E-04    1.10      23.3  T
  11   -100.4669024 -0.842441E-08  0.246E-04    1.10      47.8  T
     SCC iter.                  ...        0 min,  0.088 sec
     gradient                   ...        0 min,  0.069 sec
 * total energy  :  -100.5495513 Eh     change       -0.7165103E-01 Eh
   gradient norm :     0.2385908 Eh/α   predicted    -0.8170529E-01 (  14.03%)
   displ. norm   :     0.6383988 α      lambda       -0.6161479E-01
   maximum displ.:     0.2891451 α      in ANC's #17, #26, #37, ...

........................................................................
.............................. CYCLE   14 ..............................
........................................................................

 iter      E             dE          RMSdq      gap      omega  full diag
   1   -100.5204186 -0.100520E+03  0.353E-01    0.94       0.0  T
   2   -100.5192893  0.112937E-02  0.267E-01    0.82       1.0  T
   3   -100.5193745 -0.852464E-04  0.219E-01    0.93       1.0  T
   4   -100.5189783  0.396248E-03  0.196E-01    0.81       1.0  T
   5   -100.5225372 -0.355892E-02  0.650E-02    0.91       1.0  T
   6   -100.5231559 -0.618697E-03  0.159E-02    0.89       1.0  T
   7   -100.5231799 -0.240520E-04  0.859E-03    0.90       1.4  T
   8   -100.5231820 -0.211358E-05  0.434E-03    0.90       2.7  T
   9   -100.5231834 -0.134966E-05  0.199E-03    0.90       5.9  T
  10   -100.5231836 -0.234591E-06  0.594E-04    0.90      19.8  T
  11   -100.5231836 -0.111040E-07  0.257E-04    0.90      45.8  T
     SCC iter.                  ...        0 min,  0.088 sec
     gradient                   ...        0 min,  0.069 sec
 * total energy  :  -100.5961735 Eh     change       -0.4662215E-01 Eh
   gradient norm :     0.1174474 Eh/α   predicted    -0.4336304E-01 (  -6.99%)
   displ. norm   :     0.7323850 α      lambda       -0.5593130E-01
   maximum displ.:     0.2463918 α      in ANC's #37, #17, #26, ...

........................................................................
.............................. CYCLE   15 ..............................
........................................................................

 iter      E             dE          RMSdq      gap      omega  full diag
   1   -100.5909713 -0.100591E+03  0.573E-01    0.85       0.0  T
   2   -100.5709963  0.199750E-01  0.529E-01    0.63       1.0  T
   3   -100.5778591 -0.686283E-02  0.471E-01    0.83       1.0  T
   4   -100.5937094 -0.158503E-01  0.243E-01    0.73       1.0  T
   5   -100.5979868 -0.427738E-02  0.701E-02    0.85       1.0  T
   6   -100.5984917 -0.504918E-03  0.199E-02    0.82       1.0  T
   7   -100.5985252 -0.334882E-04  0.798E-03    0.83       1.5  T
   8   -100.5985261 -0.892260E-06  0.494E-03    0.83       2.4  T
   9   -100.5985274 -0.135906E-05  0.203E-03    0.83       5.8  T
  10   -100.5985278 -0.322066E-06  0.682E-04    0.83      17.3  T
  11   -100.5985278 -0.143599E-07  0.301E-04    0.83      39.2  T
     SCC iter.                  ...        0 min,  0.088 sec
     gradient                   ...        0 min,  0.069 sec
 * total energy  :  -100.6352480 Eh     change       -0.3907453E-01 Eh
   gradient norm :     0.1594798 Eh/α   predicted    -0.4296608E-01 (   9.96%)
   displ. norm   :     0.6817964 α      lambda       -0.5044257E-01
   maximum displ.:     0.2364728 α      in ANC's #26, #17, #37, ...

........................................................................
.............................. CYCLE   16 ..............................
........................................................................

 iter      E             dE          RMSdq      gap      omega  full diag
   1   -100.5837963 -0.100584E+03  0.903E-01    1.32       0.0  T
   2   -100.4324050  0.151391E+00  0.127E+00    0.35       1.0  T
   3   -100.5862395 -0.153835E+00  0.576E-01    1.19       1.0  T
   4   -100.6055425 -0.193030E-01  0.376E-01    0.87       1.0  T
   5   -100.6155200 -0.997751E-02  0.744E-02    1.10       1.0  T
   6   -100.6160063 -0.486295E-03  0.250E-02    1.07       1.0  T
   7   -100.6160558 -0.494573E-04  0.107E-02    1.06       1.1  T
   8   -100.6160573 -0.153817E-05  0.504E-03    1.06       2.3  T
   9   -100.6160585 -0.115719E-05  0.183E-03    1.06       6.4  T
  10   -100.6160587 -0.225563E-06  0.852E-04    1.06      13.8  T
  11   -100.6160588 -0.588109E-07  0.393E-04    1.06      30.0  T
     SCC iter.                  ...        0 min,  0.087 sec
     gradient                   ...        0 min,  0.069 sec
 * total energy  :  -100.6695586 Eh     change       -0.3431056E-01 Eh
   gradient norm :     0.0999714 Eh/α   predicted    -0.3694536E-01 (   7.68%)
   displ. norm   :     0.5954404 α      lambda       -0.2325639E-01
   maximum displ.:     0.2032030 α      in ANC's #17, #25, #37, ...

........................................................................
.............................. CYCLE   17 ..............................
........................................................................

 iter      E             dE          RMSdq      gap      omega  full diag
   1   -100.6257993 -0.100626E+03  0.401E-01    1.29       0.0  T
   2   -100.6035160  0.222833E-01  0.508E-01    0.81       1.0  T
   3   -100.6239492 -0.204332E-01  0.278E-01    1.31       1.0  T
   4   -100.6263421 -0.239289E-02  0.193E-01    1.01       1.0  T
   5   -100.6302937 -0.395163E-02  0.311E-02    1.17       1.0  T
   6   -100.6303814 -0.876321E-04  0.986E-03    1.16       1.2  T
   7   -100.6303913 -0.991205E-05  0.363E-03    1.16       3.2  T
   8   -100.6303914 -0.138421E-06  0.193E-03    1.16       6.1  T
   9   -100.6303914 -0.390487E-07  0.822E-04    1.16      14.3  T
  10   -100.6303915 -0.452567E-07  0.294E-04    1.16      40.1  T
     SCC iter.                  ...        0 min,  0.080 sec
     gradient                   ...        0 min,  0.069 sec
 * total energy  :  -100.6852653 Eh     change       -0.1570674E-01 Eh
   gradient norm :     0.0670978 Eh/α   predicted    -0.1575097E-01 (   0.28%)
   displ. norm   :     0.6167308 α      lambda       -0.1630776E-01
   maximum displ.:     0.3088365 α      in ANC's #41, #8, #17, ...

........................................................................
.............................. CYCLE   18 ..............................
........................................................................

 iter      E             dE          RMSdq      gap      omega  full diag
   1   -100.6512683 -0.100651E+03  0.216E-01    1.21       0.0  T
   2   -100.6507493  0.518998E-03  0.164E-01    1.15       1.0  T
   3   -100.6505006  0.248701E-03  0.148E-01    1.27       1.0  T
   4   -100.6499099  0.590642E-03  0.113E-01    1.07       1.0  T
   5   -100.6517676 -0.185764E-02  0.246E-02    1.21       1.0  T
   6   -100.6518235 -0.559543E-04  0.725E-03    1.20       1.6  T
   7   -100.6518284 -0.489838E-05  0.293E-03    1.19       4.0  T
   8   -100.6518287 -0.311766E-06  0.172E-03    1.19       6.9  T
   9   -100.6518288 -0.960747E-07  0.795E-04    1.19      14.8  T
  10   -100.6518289 -0.359116E-07  0.287E-04    1.19      41.1  T
     SCC iter.                  ...        0 min,  0.080 sec
     gradient                   ...        0 min,  0.069 sec
 * total energy  :  -100.6955495 Eh     change       -0.1028421E-01 Eh
   gradient norm :     0.1132072 Eh/α   predicted    -0.1125527E-01 (   9.44%)
   displ. norm   :     0.6084969 α      lambda       -0.1464767E-01
   maximum displ.:     0.2383140 α      in ANC's #41, #6, #17, ...

........................................................................
.............................. CYCLE   19 ..............................
........................................................................

 iter      E             dE          RMSdq      gap      omega  full diag
   1   -100.6588891 -0.100659E+03  0.191E-01    1.20       0.0  T
   2   -100.6588117  0.774560E-04  0.131E-01    1.19       1.0  T
   3   -100.6585564  0.255292E-03  0.111E-01    1.18       1.0  T
   4   -100.6589334 -0.377002E-03  0.556E-02    1.23       1.0  T
   5   -100.6591320 -0.198640E-03  0.287E-02    1.16       1.0  T
   6   -100.6592328 -0.100715E-03  0.732E-03    1.19       1.6  T
   7   -100.6592375 -0.473400E-05  0.246E-03    1.19       4.8  T
   8   -100.6592376 -0.161873E-06  0.104E-03    1.19      11.3  T
   9   -100.6592377 -0.227466E-07  0.480E-04    1.19      24.6  T
  10   -100.6592377 -0.186867E-07  0.199E-04    1.19      59.1  T
     SCC iter.                  ...        0 min,  0.080 sec
     gradient                   ...        0 min,  0.070 sec
 * total energy  :  -100.7025321 Eh     change       -0.6982598E-02 Eh
   gradient norm :     0.0472075 Eh/α   predicted    -0.1003564E-01 (  43.72%)
   displ. norm   :     0.5141578 α      lambda       -0.9864012E-02
   maximum displ.:     0.1735621 α      in ANC's #6, #8, #12, ...

........................................................................
.............................. CYCLE   20 ..............................
........................................................................

 iter      E             dE          RMSdq      gap      omega  full diag
   1   -100.6780589 -0.100678E+03  0.209E-01    1.26       0.0  T
   2   -100.6758554  0.220345E-02  0.199E-01    1.12       1.0  T
   3   -100.6773900 -0.153462E-02  0.148E-01    1.33       1.0  T
   4   -100.6771737  0.216307E-03  0.116E-01    1.10       1.0  T
   5   -100.6788975 -0.172376E-02  0.133E-02    1.23       1.0  T
   6   -100.6789143 -0.167902E-04  0.460E-03    1.23       2.6  T
   7   -100.6789167 -0.241235E-05  0.220E-03    1.22       5.4  T
   8   -100.6789168 -0.149614E-06  0.115E-03    1.22      10.3  T
   9   -100.6789169 -0.690987E-07  0.385E-04    1.23      30.6  T
  10   -100.6789169 -0.926346E-08  0.122E-04    1.23      96.3  T
     SCC iter.                  ...        0 min,  0.080 sec
     gradient                   ...        0 min,  0.069 sec
 * total energy  :  -100.7087125 Eh     change       -0.6180351E-02 Eh
   gradient norm :     0.0415121 Eh/α   predicted    -0.6235816E-02 (   0.90%)
   displ. norm   :     0.5682904 α      lambda       -0.7610389E-02
   maximum displ.:     0.1992363 α      in ANC's #6, #8, #4, ...
 * RMSD in coord.:     0.8629379 α      energy gain  -0.1283019E+01 Eh

generating ANC from model Hessian ...
Using Lindh-Hessian (1995)
 Shifting diagonal of input Hessian by    1.0573072049759292E-002
 Lowest  eigenvalues of input Hessian
    0.010000    0.000000    0.000000    0.000000    0.000000    0.000000
    0.000000    0.010660    0.010703    0.010750    0.010887    0.011035
    0.011271    0.011280    0.011458    0.011819    0.012133    0.012491
 Highest eigenvalues
    1.987179    1.991302    2.050971    2.107325    2.149665    2.184131


........................................................................
.............................. CYCLE   21 ..............................
........................................................................

 iter      E             dE          RMSdq      gap      omega  full diag
   1   -100.6769188 -0.100677E+03  0.169E-01    1.19       0.0  T
   2   -100.6761160  0.802738E-03  0.135E-01    1.34       1.0  T
   3   -100.6748476  0.126847E-02  0.152E-01    1.09       1.0  T
   4   -100.6769286 -0.208106E-02  0.472E-02    1.27       1.0  T
   5   -100.6771948 -0.266195E-03  0.699E-03    1.24       1.7  T
   6   -100.6771982 -0.332912E-05  0.268E-03    1.23       4.4  T
   7   -100.6771983 -0.134676E-06  0.146E-03    1.23       8.0  T
   8   -100.6771984 -0.656115E-07  0.701E-04    1.23      16.8  T
   9   -100.6771984 -0.208579E-07  0.322E-04    1.23      36.6  T
     SCC iter.                  ...        0 min,  0.072 sec
     gradient                   ...        0 min,  0.069 sec
 * total energy  :  -100.7134213 Eh     change       -0.4708829E-02 Eh
   gradient norm :     0.0736039 Eh/α   predicted     0.0000000E+00 (-100.00%)
   displ. norm   :     0.3183698 α      lambda       -0.6030617E-02
   maximum displ.:     0.1785070 α      in ANC's #1, #27, #52, ...

........................................................................
.............................. CYCLE   22 ..............................
........................................................................

 iter      E             dE          RMSdq      gap      omega  full diag
   1   -100.6813632 -0.100681E+03  0.860E-02    1.20       0.0  T
   2   -100.6811738  0.189415E-03  0.667E-02    1.26       1.0  T
   3   -100.6807162  0.457543E-03  0.826E-02    1.14       1.0  T
   4   -100.6813818 -0.665620E-03  0.185E-02    1.23       1.0  T
   5   -100.6814152 -0.333219E-04  0.559E-03    1.21       2.1  T
   6   -100.6814176 -0.246347E-05  0.196E-03    1.22       6.0  T
   7   -100.6814177 -0.114978E-06  0.104E-03    1.22      11.4  T
   8   -100.6814178 -0.701594E-07  0.354E-04    1.21      33.3  T
   9   -100.6814178 -0.131601E-07  0.129E-04    1.22      91.4  T
     SCC iter.                  ...        0 min,  0.072 sec
     gradient                   ...        0 min,  0.069 sec
 * total energy  :  -100.7155583 Eh     change       -0.2137062E-02 Eh
   gradient norm :     0.1003299 Eh/α   predicted    -0.3325723E-02 (  55.62%)
   displ. norm   :     0.3356594 α      lambda       -0.4348962E-02
   maximum displ.:     0.1540854 α      in ANC's #1, #27, #52, ...

........................................................................
.............................. CYCLE   23 ..............................
........................................................................

 iter      E             dE          RMSdq      gap      omega  full diag
   1   -100.6809440 -0.100681E+03  0.812E-02    1.18       0.0  T
   2   -100.6807547  0.189302E-03  0.642E-02    1.24       1.0  T
   3   -100.6804303  0.324359E-03  0.753E-02    1.13       1.0  T
   4   -100.6809269 -0.496639E-03  0.244E-02    1.22       1.0  T
   5   -100.6809954 -0.684739E-04  0.483E-03    1.20       2.4  T
   6   -100.6809970 -0.161841E-05  0.202E-03    1.20       5.8  T
   7   -100.6809972 -0.201859E-06  0.103E-03    1.20      11.4  T
   8   -100.6809973 -0.319627E-07  0.327E-04    1.20      36.1  T
   9   -100.6809973 -0.486885E-08  0.147E-04    1.20      80.0  T
     SCC iter.                  ...        0 min,  0.072 sec
     gradient                   ...        0 min,  0.069 sec
 * total energy  :  -100.7186682 Eh     change       -0.3109804E-02 Eh
   gradient norm :     0.0200567 Eh/α   predicted    -0.2421188E-02 ( -22.14%)
   displ. norm   :     0.5151433 α      lambda       -0.2881693E-02
   maximum displ.:     0.2044928 α      in ANC's #1, #27, #11, ...

........................................................................
.............................. CYCLE   24 ..............................
........................................................................

 iter      E             dE          RMSdq      gap      omega  full diag
   1   -100.6786955 -0.100679E+03  0.105E-01    1.16       0.0  T
   2   -100.6784359  0.259609E-03  0.808E-02    1.23       1.0  T
   3   -100.6779059  0.529967E-03  0.947E-02    1.10       1.0  T
   4   -100.6785710 -0.665027E-03  0.424E-02    1.22       1.0  T
   5   -100.6787897 -0.218716E-03  0.611E-03    1.18       1.9  T
   6   -100.6787923 -0.259028E-05  0.284E-03    1.18       4.2  T
   7   -100.6787927 -0.437352E-06  0.118E-03    1.18      10.0  T
   8   -100.6787927  0.840758E-08  0.587E-04    1.18      20.1  T
   9   -100.6787927 -0.376453E-07  0.186E-04    1.18      63.2  T
     SCC iter.                  ...        0 min,  0.072 sec
     gradient                   ...        0 min,  0.069 sec
 * total energy  :  -100.7208630 Eh     change       -0.2194842E-02 Eh
   gradient norm :     0.0271149 Eh/α   predicted    -0.1823207E-02 ( -16.93%)
   displ. norm   :     0.5442342 α      lambda       -0.2158094E-02
   maximum displ.:     0.2350672 α      in ANC's #1, #11, #27, ...

........................................................................
.............................. CYCLE   25 ..............................
........................................................................

 iter      E             dE          RMSdq      gap      omega  full diag
   1   -100.6785145 -0.100679E+03  0.946E-02    1.15       0.0  T
   2   -100.6782870  0.227506E-03  0.752E-02    1.21       1.0  T
   3   -100.6779903  0.296666E-03  0.803E-02    1.10       1.0  T
   4   -100.6783780 -0.387674E-03  0.446E-02    1.21       1.0  T
   5   -100.6786121 -0.234133E-03  0.660E-03    1.17       1.8  T
   6   -100.6786152 -0.310297E-05  0.266E-03    1.17       4.4  T
   7   -100.6786156 -0.379141E-06  0.112E-03    1.17      10.6  T
   8   -100.6786156  0.170443E-07  0.619E-04    1.17      19.0  T
   9   -100.6786157 -0.446764E-07  0.174E-04    1.17      67.8  T
     SCC iter.                  ...        0 min,  0.072 sec
     gradient                   ...        0 min,  0.069 sec
 * total energy  :  -100.7225566 Eh     change       -0.1693644E-02 Eh
   gradient norm :     0.0381945 Eh/α   predicted    -0.1398697E-02 ( -17.41%)
   displ. norm   :     0.5367817 α      lambda       -0.1933881E-02
   maximum displ.:     0.2236442 α      in ANC's #1, #11, #27, ...

........................................................................
.............................. CYCLE   26 ..............................
........................................................................

 iter      E             dE          RMSdq      gap      omega  full diag
   1   -100.6826395 -0.100683E+03  0.814E-02    1.15       0.0  T
   2   -100.6824453  0.194267E-03  0.664E-02    1.21       1.0  T
   3   -100.6822197  0.225595E-03  0.704E-02    1.10       1.0  T
   4   -100.6825741 -0.354424E-03  0.357E-02    1.20       1.0  T
   5   -100.6827150 -0.140889E-03  0.581E-03    1.16       2.0  T
   6   -100.6827173 -0.228744E-05  0.233E-03    1.17       5.0  T
   7   -100.6827176 -0.303039E-06  0.103E-03    1.17      11.4  T
   8   -100.6827176 -0.619941E-08  0.489E-04    1.17      24.1  T
   9   -100.6827176 -0.183442E-07  0.164E-04    1.17      71.8  T
     SCC iter.                  ...        0 min,  0.073 sec
     gradient                   ...        0 min,  0.069 sec
 * total energy  :  -100.7240984 Eh     change       -0.1541715E-02 Eh
   gradient norm :     0.0333521 Eh/α   predicted    -0.1245550E-02 ( -19.21%)
   displ. norm   :     0.5403476 α      lambda       -0.1692375E-02
   maximum displ.:     0.2322035 α      in ANC's #11, #1, #5, ...

........................................................................
.............................. CYCLE   27 ..............................
........................................................................

 iter      E             dE          RMSdq      gap      omega  full diag
   1   -100.6868947 -0.100687E+03  0.766E-02    1.16       0.0  T
   2   -100.6867829  0.111844E-03  0.566E-02    1.21       1.0  T
   3   -100.6862492  0.533696E-03  0.773E-02    1.10       1.0  T
   4   -100.6868782 -0.629054E-03  0.245E-02    1.19       1.0  T
   5   -100.6869388 -0.605325E-04  0.347E-03    1.17       3.4  T
   6   -100.6869395 -0.682111E-06  0.198E-03    1.17       6.0  T
   7   -100.6869396 -0.152702E-06  0.110E-03    1.17      10.7  T
   8   -100.6869397 -0.531074E-07  0.344E-04    1.17      34.2  T
   9   -100.6869397 -0.499038E-08  0.141E-04    1.17      83.9  T
     SCC iter.                  ...        0 min,  0.073 sec
     gradient                   ...        0 min,  0.069 sec
 * total energy  :  -100.7254252 Eh     change       -0.1326858E-02 Eh
   gradient norm :     0.0186490 Eh/α   predicted    -0.1093277E-02 ( -17.60%)
   displ. norm   :     0.5316204 α      lambda       -0.1257222E-02
   maximum displ.:     0.2349956 α      in ANC's #11, #1, #5, ...

........................................................................
.............................. CYCLE   28 ..............................
........................................................................

 iter      E             dE          RMSdq      gap      omega  full diag
   1   -100.6909220 -0.100691E+03  0.770E-02    1.17       0.0  T
   2   -100.6908726  0.493575E-04  0.508E-02    1.21       1.0  T
   3   -100.6901137  0.758900E-03  0.817E-02    1.09       1.0  T
   4   -100.6909094 -0.795646E-03  0.210E-02    1.19       1.0  T
   5   -100.6909476 -0.382533E-04  0.309E-03    1.18       3.8  T
   6   -100.6909479 -0.306916E-06  0.181E-03    1.18       6.5  T
   7   -100.6909480 -0.599601E-07  0.117E-03    1.18      10.0  T
   8   -100.6909481 -0.108515E-06  0.296E-04    1.18      39.8  T
   9   -100.6909481 -0.409003E-08  0.130E-04    1.18      90.8  T
     SCC iter.                  ...        0 min,  0.073 sec
     gradient                   ...        0 min,  0.069 sec
 * total energy  :  -100.7263866 Eh     change       -0.9614296E-03 Eh
   gradient norm :     0.0113447 Eh/α   predicted    -0.8062690E-03 ( -16.14%)
   displ. norm   :     0.5347616 α      lambda       -0.8854177E-03
   maximum displ.:     0.2149020 α      in ANC's #11, #9, #5, ...

........................................................................
.............................. CYCLE   29 ..............................
........................................................................

 iter      E             dE          RMSdq      gap      omega  full diag
   1   -100.6887551 -0.100689E+03  0.802E-02    1.18       0.0  T
   2   -100.6887293  0.257648E-04  0.504E-02    1.21       1.0  T
   3   -100.6881891  0.540190E-03  0.711E-02    1.12       1.0  T
   4   -100.6887035 -0.514436E-03  0.277E-02    1.21       1.0  T
   5   -100.6887804 -0.768529E-04  0.385E-03    1.19       3.1  T
   6   -100.6887808 -0.383627E-06  0.243E-03    1.19       4.9  T
   7   -100.6887811 -0.342447E-06  0.108E-03    1.19      10.9  T
   8   -100.6887812 -0.564948E-07  0.322E-04    1.19      36.6  T
   9   -100.6887812 -0.469117E-08  0.139E-04    1.19      84.5  T
     SCC iter.                  ...        0 min,  0.073 sec
     gradient                   ...        0 min,  0.069 sec
 * total energy  :  -100.7269398 Eh     change       -0.5531649E-03 Eh
   gradient norm :     0.0124266 Eh/α   predicted    -0.5693196E-03 (   2.92%)
   displ. norm   :     0.3981524 α      lambda       -0.7527141E-03
   maximum displ.:     0.1879293 α      in ANC's #9, #11, #5, ...

........................................................................
.............................. CYCLE   30 ..............................
........................................................................

 iter      E             dE          RMSdq      gap      omega  full diag
   1   -100.6957863 -0.100696E+03  0.715E-02    1.19       0.0  T
   2   -100.6957816  0.465393E-05  0.433E-02    1.21       1.0  T
   3   -100.6955301  0.251536E-03  0.507E-02    1.15       1.0  T
   4   -100.6957530 -0.222939E-03  0.225E-02    1.22       1.0  T
   5   -100.6958021 -0.490788E-04  0.523E-03    1.19       2.3  T
   6   -100.6958040 -0.190712E-05  0.236E-03    1.20       5.0  T
   7   -100.6958045 -0.448658E-06  0.983E-04    1.20      12.0  T
   8   -100.6958045 -0.559517E-07  0.226E-04    1.20      52.2  T
     SCC iter.                  ...        0 min,  0.065 sec
     gradient                   ...        0 min,  0.069 sec
 * total energy  :  -100.7272652 Eh     change       -0.3253923E-03 Eh
   gradient norm :     0.0089607 Eh/α   predicted    -0.4360479E-03 (  34.01%)
   displ. norm   :     0.2164199 α      lambda       -0.2773840E-03
   maximum displ.:     0.1038614 α      in ANC's #9, #5, #11, ...

........................................................................
.............................. CYCLE   31 ..............................
........................................................................

 iter      E             dE          RMSdq      gap      omega  full diag
   1   -100.6925636 -0.100693E+03  0.367E-02    1.19       0.0  T
   2   -100.6925547  0.888837E-05  0.236E-02    1.21       1.0  T
   3   -100.6924093  0.145429E-03  0.376E-02    1.16       1.0  T
   4   -100.6925602 -0.150908E-03  0.857E-03    1.20       1.4  T
   5   -100.6925688 -0.862368E-05  0.142E-03    1.20       8.3  T
   6   -100.6925689 -0.567421E-07  0.676E-04    1.20      17.4  T
   7   -100.6925689 -0.143409E-08  0.416E-04    1.20      28.4  T
     SCC iter.                  ...        0 min,  0.057 sec
     gradient                   ...        0 min,  0.069 sec
 * total energy  :  -100.7274616 Eh     change       -0.1963662E-03 Eh
   gradient norm :     0.0063588 Eh/α   predicted    -0.1451910E-03 ( -26.06%)
   displ. norm   :     0.2268895 α      lambda       -0.2659532E-03
   maximum displ.:     0.1204168 α      in ANC's #9, #6, #29, ...

........................................................................
.............................. CYCLE   32 ..............................
........................................................................

 iter      E             dE          RMSdq      gap      omega  full diag
   1   -100.6915262 -0.100692E+03  0.408E-02    1.19       0.0  T
   2   -100.6915076  0.186103E-04  0.272E-02    1.21       1.0  T
   3   -100.6912758  0.231773E-03  0.469E-02    1.15       1.0  T
   4   -100.6915300 -0.254134E-03  0.521E-03    1.20       2.3  T
   5   -100.6915318 -0.184190E-05  0.139E-03    1.19       8.5  T
   6   -100.6915318 -0.534247E-07  0.722E-04    1.19      16.3  T
   7   -100.6915319 -0.102985E-07  0.393E-04    1.19      30.0  T
     SCC iter.                  ...        0 min,  0.057 sec
     gradient                   ...        0 min,  0.069 sec
 * total energy  :  -100.7276469 Eh     change       -0.1853822E-03 Eh
   gradient norm :     0.0097329 Eh/α   predicted    -0.1398227E-03 ( -24.58%)
   displ. norm   :     0.3138377 α      lambda       -0.2799946E-03
   maximum displ.:     0.1659191 α      in ANC's #9, #6, #29, ...

........................................................................
.............................. CYCLE   33 ..............................
........................................................................

 iter      E             dE          RMSdq      gap      omega  full diag
   1   -100.6888811 -0.100689E+03  0.585E-02    1.18       0.0  T
   2   -100.6888001  0.810196E-04  0.437E-02    1.22       1.0  T
   3   -100.6884761  0.324043E-03  0.623E-02    1.13       1.0  T
   4   -100.6888935 -0.417385E-03  0.102E-02    1.19       1.2  T
   5   -100.6889007 -0.722945E-05  0.253E-03    1.19       4.7  T
   6   -100.6889008 -0.149947E-06  0.167E-03    1.19       7.1  T
   7   -100.6889010 -0.162412E-06  0.691E-04    1.19      17.0  T
   8   -100.6889010 -0.216652E-07  0.178E-04    1.19      66.2  T
     SCC iter.                  ...        0 min,  0.065 sec
     gradient                   ...        0 min,  0.069 sec
 * total energy  :  -100.7278265 Eh     change       -0.1795965E-03 Eh
   gradient norm :     0.0078390 Eh/α   predicted    -0.1537911E-03 ( -14.37%)
   displ. norm   :     0.2679850 α      lambda       -0.2550108E-03
   maximum displ.:     0.1213672 α      in ANC's #6, #9, #13, ...

........................................................................
.............................. CYCLE   34 ..............................
........................................................................

 iter      E             dE          RMSdq      gap      omega  full diag
   1   -100.6914240 -0.100691E+03  0.530E-02    1.18       0.0  T
   2   -100.6913908  0.331859E-04  0.362E-02    1.21       1.0  T
   3   -100.6911084  0.282377E-03  0.540E-02    1.13       1.0  T
   4   -100.6914135 -0.305074E-03  0.177E-02    1.20       1.0  T
   5   -100.6914422 -0.287056E-04  0.227E-03    1.19       5.2  T
   6   -100.6914422 -0.592720E-07  0.173E-03    1.19       6.8  T
   7   -100.6914425 -0.211188E-06  0.770E-04    1.19      15.3  T
   8   -100.6914425 -0.220018E-07  0.303E-04    1.19      38.9  T
     SCC iter.                  ...        0 min,  0.066 sec
     gradient                   ...        0 min,  0.075 sec
 * total energy  :  -100.7279781 Eh     change       -0.1515761E-03 Eh
   gradient norm :     0.0102822 Eh/α   predicted    -0.1366652E-03 (  -9.84%)
   displ. norm   :     0.2139688 α      lambda       -0.1764820E-03
   maximum displ.:     0.1039722 α      in ANC's #6, #9, #32, ...

........................................................................
.............................. CYCLE   35 ..............................
........................................................................

 iter      E             dE          RMSdq      gap      omega  full diag
   1   -100.6916860 -0.100692E+03  0.439E-02    1.18       0.0  T
   2   -100.6916708  0.152738E-04  0.283E-02    1.20       1.0  T
   3   -100.6913540  0.316764E-03  0.516E-02    1.13       1.0  T
   4   -100.6916888 -0.334822E-03  0.673E-03    1.19       1.8  T
   5   -100.6916926 -0.375934E-05  0.170E-03    1.19       6.9  T
   6   -100.6916926 -0.784111E-08  0.122E-03    1.19       9.6  T
   7   -100.6916927 -0.817593E-07  0.607E-04    1.19      19.4  T
   8   -100.6916927 -0.262171E-07  0.153E-04    1.19      77.1  T
     SCC iter.                  ...        0 min,  0.065 sec
     gradient                   ...        0 min,  0.069 sec
 * total energy  :  -100.7281139 Eh     change       -0.1357388E-03 Eh
   gradient norm :     0.0066469 Eh/α   predicted    -0.9228137E-04 ( -32.02%)
   displ. norm   :     0.2788097 α      lambda       -0.2313540E-03
   maximum displ.:     0.1495638 α      in ANC's #6, #9, #32, ...

........................................................................
.............................. CYCLE   36 ..............................
........................................................................

 iter      E             dE          RMSdq      gap      omega  full diag
   1   -100.6931544 -0.100693E+03  0.585E-02    1.19       0.0  T
   2   -100.6931559 -0.148889E-05  0.343E-02    1.19       1.0  T
   3   -100.6930883  0.675699E-04  0.252E-02    1.16       1.0  T
   4   -100.6931484 -0.600805E-04  0.103E-02    1.20       1.1  T
   5   -100.6931591 -0.107393E-04  0.304E-03    1.19       3.9  T
   6   -100.6931595 -0.347081E-06  0.187E-03    1.19       6.3  T
   7   -100.6931598 -0.314313E-06  0.519E-04    1.19      22.7  T
   8   -100.6931598 -0.169815E-07  0.176E-04    1.19      67.0  T
     SCC iter.                  ...        0 min,  0.065 sec
     gradient                   ...        0 min,  0.069 sec
 * total energy  :  -100.7282782 Eh     change       -0.1643766E-03 Eh
   gradient norm :     0.0063693 Eh/α   predicted    -0.1246712E-03 ( -24.16%)
   displ. norm   :     0.3641302 α      lambda       -0.1793734E-03
   maximum displ.:     0.1843459 α      in ANC's #6, #9, #27, ...

........................................................................
.............................. CYCLE   37 ..............................
........................................................................

 iter      E             dE          RMSdq      gap      omega  full diag
   1   -100.6908103 -0.100691E+03  0.766E-02    1.18       0.0  T
   2   -100.6908077  0.263101E-05  0.453E-02    1.20       1.0  T
   3   -100.6903886  0.419042E-03  0.571E-02    1.12       1.0  T
   4   -100.6908149 -0.426266E-03  0.880E-03    1.19       1.3  T
   5   -100.6908198 -0.496473E-05  0.340E-03    1.19       3.5  T
   6   -100.6908201 -0.238381E-06  0.201E-03    1.19       5.9  T
   7   -100.6908203 -0.230618E-06  0.846E-04    1.19      13.9  T
   8   -100.6908204 -0.683353E-07  0.186E-04    1.19      63.3  T
     SCC iter.                  ...        0 min,  0.065 sec
     gradient                   ...        0 min,  0.069 sec
 * total energy  :  -100.7283927 Eh     change       -0.1144362E-03 Eh
   gradient norm :     0.0078750 Eh/α   predicted    -0.1015799E-03 ( -11.23%)
   displ. norm   :     0.2599611 α      lambda       -0.1909575E-03
   maximum displ.:     0.1448371 α      in ANC's #6, #9, #10, ...

........................................................................
.............................. CYCLE   38 ..............................
........................................................................

 iter      E             dE          RMSdq      gap      omega  full diag
   1   -100.6933975 -0.100693E+03  0.543E-02    1.19       0.0  T
   2   -100.6933872  0.102881E-04  0.329E-02    1.17       1.0  T
   3   -100.6930105  0.376644E-03  0.564E-02    1.24       1.0  T
   4   -100.6934028 -0.392295E-03  0.482E-03    1.18       2.4  T
   5   -100.6934039 -0.110885E-05  0.213E-03    1.19       5.5  T
   6   -100.6934040 -0.876998E-07  0.124E-03    1.18       9.5  T
   7   -100.6934041 -0.619770E-07  0.717E-04    1.19      16.4  T
   8   -100.6934041 -0.357137E-07  0.184E-04    1.18      64.2  T
     SCC iter.                  ...        0 min,  0.066 sec
     gradient                   ...        0 min,  0.069 sec
 * total energy  :  -100.7284998 Eh     change       -0.1071614E-03 Eh
   gradient norm :     0.0068709 Eh/α   predicted    -0.1019423E-03 (  -4.87%)
   displ. norm   :     0.2892842 α      lambda       -0.1437157E-03
   maximum displ.:     0.1493437 α      in ANC's #6, #9, #27, ...

........................................................................
.............................. CYCLE   39 ..............................
........................................................................

 iter      E             dE          RMSdq      gap      omega  full diag
   1   -100.6920090 -0.100692E+03  0.657E-02    1.18       0.0  T
   2   -100.6920103 -0.130040E-05  0.382E-02    1.19       1.0  T
   3   -100.6918355  0.174774E-03  0.377E-02    1.14       1.0  T
   4   -100.6920123 -0.176762E-03  0.681E-03    1.19       1.7  T
   5   -100.6920153 -0.302030E-05  0.329E-03    1.18       3.6  T
   6   -100.6920158 -0.441084E-06  0.154E-03    1.18       7.7  T
   7   -100.6920159 -0.138386E-06  0.562E-04    1.18      21.0  T
   8   -100.6920159 -0.213264E-07  0.153E-04    1.18      77.0  T
     SCC iter.                  ...        0 min,  0.065 sec
     gradient                   ...        0 min,  0.069 sec
 * total energy  :  -100.7286095 Eh     change       -0.1096244E-03 Eh
   gradient norm :     0.0063170 Eh/α   predicted    -0.7787990E-04 ( -28.96%)
   displ. norm   :     0.3498759 α      lambda       -0.2512193E-03
   maximum displ.:     0.1777297 α      in ANC's #6, #9, #27, ...

........................................................................
.............................. CYCLE   40 ..............................
........................................................................

 iter      E             dE          RMSdq      gap      omega  full diag
   1   -100.6917621 -0.100692E+03  0.919E-02    1.18       0.0  T
   2   -100.6917713 -0.917775E-05  0.526E-02    1.18       1.0  T
   3   -100.6915979  0.173322E-03  0.396E-02    1.14       1.0  T
   4   -100.6917551 -0.157216E-03  0.150E-02    1.19       1.0  T
   5   -100.6917789 -0.237429E-04  0.389E-03    1.18       3.0  T
   6   -100.6917792 -0.344261E-06  0.231E-03    1.18       5.1  T
   7   -100.6917795 -0.223976E-06  0.109E-03    1.18      10.8  T
   8   -100.6917796 -0.946158E-07  0.231E-04    1.18      51.0  T
   9   -100.6917796 -0.192085E-08  0.105E-04    1.18     112.0  T
     SCC iter.                  ...        0 min,  0.073 sec
     gradient                   ...        0 min,  0.069 sec
 * total energy  :  -100.7287875 Eh     change       -0.1780080E-03 Eh
   gradient norm :     0.0081173 Eh/α   predicted    -0.1409872E-03 ( -20.80%)
   displ. norm   :     0.3661899 α      lambda       -0.2563858E-03
   maximum displ.:     0.1922476 α      in ANC's #6, #9, #7, ...

........................................................................
.............................. CYCLE   41 ..............................
........................................................................

 iter      E             dE          RMSdq      gap      omega  full diag
   1   -100.6922722 -0.100692E+03  0.100E-01    1.17       0.0  T
   2   -100.6922657  0.657146E-05  0.591E-02    1.19       1.0  T
   3   -100.6913998  0.865879E-03  0.851E-02    1.09       1.0  T
   4   -100.6922736 -0.873783E-03  0.180E-02    1.19       1.0  T
   5   -100.6923014 -0.278285E-04  0.450E-03    1.17       2.6  T
   6   -100.6923018 -0.403918E-06  0.271E-03    1.18       4.3  T
   7   -100.6923020 -0.228692E-06  0.150E-03    1.17       7.9  T
   8   -100.6923022 -0.172519E-06  0.298E-04    1.17      39.5  T
   9   -100.6923022 -0.387811E-08  0.118E-04    1.17      99.5  T
     SCC iter.                  ...        0 min,  0.073 sec
     gradient                   ...        0 min,  0.069 sec
 * total energy  :  -100.7289562 Eh     change       -0.1687410E-03 Eh
   gradient norm :     0.0111462 Eh/α   predicted    -0.1453875E-03 ( -13.84%)
   displ. norm   :     0.4055698 α      lambda       -0.3389375E-03
   maximum displ.:     0.2031098 α      in ANC's #6, #9, #7, ...

........................................................................
.............................. CYCLE   42 ..............................
........................................................................

 iter      E             dE          RMSdq      gap      omega  full diag
   1   -100.6935287 -0.100694E+03  0.111E-01    1.17       0.0  T
   2   -100.6935223  0.638630E-05  0.649E-02    1.19       1.0  T
   3   -100.6927313  0.791063E-03  0.857E-02    1.10       1.0  T
   4   -100.6934963 -0.765062E-03  0.241E-02    1.20       1.0  T
   5   -100.6935588 -0.624177E-04  0.538E-03    1.17       2.2  T
   6   -100.6935591 -0.364088E-06  0.396E-03    1.17       3.0  T
   7   -100.6935601 -0.101384E-05  0.929E-04    1.17      12.7  T
   8   -100.6935602 -0.478752E-07  0.314E-04    1.17      37.5  T
   9   -100.6935602 -0.348572E-08  0.144E-04    1.17      82.0  T
     SCC iter.                  ...        0 min,  0.074 sec
     gradient                   ...        0 min,  0.069 sec
 * total energy  :  -100.7291961 Eh     change       -0.2398675E-03 Eh
   gradient norm :     0.0131485 Eh/α   predicted    -0.1973481E-03 ( -17.73%)
   displ. norm   :     0.5227358 α      lambda       -0.4541328E-03
   maximum displ.:     0.2647210 α      in ANC's #6, #9, #7, ...
 * RMSD in coord.:     0.7034859 α      energy gain  -0.2048362E-01 Eh

generating ANC from model Hessian ...
Using Lindh-Hessian (1995)
 Shifting diagonal of input Hessian by    9.9251047565392173E-003
 Lowest  eigenvalues of input Hessian
    0.000000    0.000000    0.000000    0.000000    0.000000    0.000000
    0.010000    0.010013    0.010093    0.010248    0.010380    0.010523
    0.010584    0.010702    0.010927    0.011440    0.011717    0.012524
 Highest eigenvalues
    2.021258    2.026715    2.035651    2.047041    2.183834    2.188053


........................................................................
.............................. CYCLE   43 ..............................
........................................................................

 iter      E             dE          RMSdq      gap      omega  full diag
   1   -100.6898667 -0.100690E+03  0.153E-01    1.16       0.0  T
   2   -100.6898111  0.556212E-04  0.931E-02    1.20       1.0  T
   3   -100.6869421  0.286899E-02  0.157E-01    1.02       1.0  T
   4   -100.6898999 -0.295777E-02  0.282E-02    1.19       1.0  T
   5   -100.6899616 -0.617897E-04  0.119E-02    1.16       1.0  T
   6   -100.6899715 -0.983188E-05  0.447E-03    1.17       2.6  T
   7   -100.6899721 -0.637408E-06  0.222E-03    1.17       5.3  T
   8   -100.6899725 -0.341729E-06  0.421E-04    1.17      28.0  T
   9   -100.6899725 -0.837397E-08  0.185E-04    1.17      63.6  T
     SCC iter.                  ...        0 min,  0.073 sec
     gradient                   ...        0 min,  0.069 sec
 * total energy  :  -100.7294807 Eh     change       -0.2846100E-03 Eh
   gradient norm :     0.0209223 Eh/α   predicted     0.0000000E+00 (-100.00%)
   displ. norm   :     0.1396369 α      lambda       -0.7887091E-03
   maximum displ.:     0.0559652 α      in ANC's #30, #10, #27, ...

........................................................................
.............................. CYCLE   44 ..............................
........................................................................

 iter      E             dE          RMSdq      gap      omega  full diag
   1   -100.6941010 -0.100694E+03  0.631E-02    1.18       0.0  T
   2   -100.6940319  0.690157E-04  0.450E-02    1.14       1.0  T
   3   -100.6935711  0.460835E-03  0.688E-02    1.24       1.0  T
   4   -100.6941195 -0.548420E-03  0.109E-02    1.17       1.1  T
   5   -100.6941275 -0.798758E-05  0.373E-03    1.17       3.2  T
   6   -100.6941282 -0.698399E-06  0.193E-03    1.17       6.1  T
   7   -100.6941283 -0.869012E-07  0.117E-03    1.17      10.1  T
   8   -100.6941284 -0.985810E-07  0.278E-04    1.17      42.4  T
   9   -100.6941284 -0.320027E-08  0.125E-04    1.17      94.2  T
     SCC iter.                  ...        0 min,  0.073 sec
     gradient                   ...        0 min,  0.069 sec
 * total energy  :  -100.7300675 Eh     change       -0.5868296E-03 Eh
   gradient norm :     0.0099803 Eh/α   predicted    -0.4020595E-03 ( -31.49%)
   displ. norm   :     0.3161283 α      lambda       -0.9244747E-03
   maximum displ.:     0.1414187 α      in ANC's #30, #28, #10, ...

........................................................................
.............................. CYCLE   45 ..............................
........................................................................

 iter      E             dE          RMSdq      gap      omega  full diag
   1   -100.6970620 -0.100697E+03  0.144E-01    1.19       0.0  T
   2   -100.6969687  0.932647E-04  0.884E-02    1.13       1.0  T
   3   -100.6945519  0.241679E-02  0.145E-01    1.33       1.0  T
   4   -100.6970846 -0.253268E-02  0.233E-02    1.16       1.0  T
   5   -100.6971287 -0.441015E-04  0.823E-03    1.17       1.4  T
   6   -100.6971325 -0.386956E-05  0.410E-03    1.17       2.9  T
   7   -100.6971330 -0.424723E-06  0.199E-03    1.17       5.9  T
   8   -100.6971333 -0.277150E-06  0.391E-04    1.17      30.1  T
   9   -100.6971333 -0.415142E-08  0.216E-04    1.17      54.6  T
     SCC iter.                  ...        0 min,  0.073 sec
     gradient                   ...        0 min,  0.069 sec
 * total energy  :  -100.7307692 Eh     change       -0.7017375E-03 Eh
   gradient norm :     0.0147824 Eh/α   predicted    -0.5085179E-03 ( -27.53%)
   displ. norm   :     0.6084002 α      lambda       -0.1370744E-02
   maximum displ.:     0.2953385 α      in ANC's #30, #28, #27, ...

........................................................................
.............................. CYCLE   46 ..............................
........................................................................

 iter      E             dE          RMSdq      gap      omega  full diag
   1   -100.6898331 -0.100690E+03  0.307E-01    1.18       0.0  T
   2   -100.6899131 -0.799888E-04  0.177E-01    1.13       1.0  T
   3   -100.6869638  0.294935E-02  0.166E-01    1.34       1.0  T
   4   -100.6896868 -0.272304E-02  0.575E-02    1.11       1.0  T
   5   -100.6900423 -0.355465E-03  0.223E-02    1.18       1.0  T
   6   -100.6900834 -0.411218E-04  0.797E-03    1.17       1.5  T
   7   -100.6900846 -0.121772E-05  0.382E-03    1.16       3.1  T
   8   -100.6900855 -0.827355E-06  0.881E-04    1.16      13.4  T
   9   -100.6900855 -0.413281E-07  0.433E-04    1.16      27.2  T
     SCC iter.                  ...        0 min,  0.073 sec
     gradient                   ...        0 min,  0.069 sec
 * total energy  :  -100.7311026 Eh     change       -0.3333196E-03 Eh
   gradient norm :     0.0316634 Eh/α   predicted    -0.9391159E-03 ( 181.75%)
   displ. norm   :     0.1689397 α      lambda       -0.1302745E-02
   maximum displ.:     0.0700696 α      in ANC's #30, #27, #29, ...

........................................................................
.............................. CYCLE   47 ..............................
........................................................................

 iter      E             dE          RMSdq      gap      omega  full diag
   1   -100.6972080 -0.100697E+03  0.938E-02    1.16       0.0  T
   2   -100.6972061  0.187944E-05  0.588E-02    1.19       1.0  T
   3   -100.6965650  0.641128E-03  0.788E-02    1.09       1.0  T
   4   -100.6971490 -0.583967E-03  0.310E-02    1.20       1.0  T
   5   -100.6972601 -0.111172E-03  0.931E-03    1.17       1.3  T
   6   -100.6972672 -0.707575E-05  0.303E-03    1.17       3.9  T
   7   -100.6972675 -0.271452E-06  0.151E-03    1.17       7.8  T
   8   -100.6972676 -0.779089E-07  0.441E-04    1.17      26.7  T
   9   -100.6972676 -0.113634E-07  0.180E-04    1.17      65.5  T
     SCC iter.                  ...        0 min,  0.073 sec
     gradient                   ...        0 min,  0.069 sec
 * total energy  :  -100.7317199 Eh     change       -0.6173338E-03 Eh
   gradient norm :     0.0082133 Eh/α   predicted    -0.6699635E-03 (   8.53%)
   displ. norm   :     0.2224450 α      lambda       -0.5264045E-03
   maximum displ.:     0.1058209 α      in ANC's #6, #30, #28, ...

........................................................................
.............................. CYCLE   48 ..............................
........................................................................

 iter      E             dE          RMSdq      gap      omega  full diag
   1   -100.6976736 -0.100698E+03  0.103E-01    1.16       0.0  T
   2   -100.6976701  0.351285E-05  0.597E-02    1.17       1.0  T
   3   -100.6969876  0.682489E-03  0.764E-02    1.08       1.0  T
   4   -100.6976824 -0.694756E-03  0.102E-02    1.17       1.2  T
   5   -100.6976906 -0.819530E-05  0.487E-03    1.16       2.4  T
   6   -100.6976914 -0.843558E-06  0.263E-03    1.16       4.5  T
   7   -100.6976918 -0.416061E-06  0.614E-04    1.16      19.2  T
   8   -100.6976918 -0.251954E-07  0.231E-04    1.16      51.0  T
     SCC iter.                  ...        0 min,  0.067 sec
     gradient                   ...        0 min,  0.071 sec
 * total energy  :  -100.7321623 Eh     change       -0.4424452E-03 Eh
   gradient norm :     0.0117229 Eh/α   predicted    -0.2762267E-03 ( -37.57%)
   displ. norm   :     0.5812917 α      lambda       -0.1123767E-02
   maximum displ.:     0.2855307 α      in ANC's #6, #30, #28, ...

........................................................................
.............................. CYCLE   49 ..............................
........................................................................

 iter      E             dE          RMSdq      gap      omega  full diag
   1   -100.6922830 -0.100692E+03  0.271E-01    1.14       0.0  T
   2   -100.6922947 -0.117110E-04  0.157E-01    1.17       1.0  T
   3   -100.6886686  0.362607E-02  0.180E-01    0.99       1.0  T
   4   -100.6922584 -0.358983E-02  0.395E-02    1.19       1.0  T
   5   -100.6924082 -0.149710E-03  0.165E-02    1.14       1.0  T
   6   -100.6924274 -0.192724E-04  0.594E-03    1.15       2.0  T
   7   -100.6924284 -0.102069E-05  0.192E-03    1.15       6.1  T
   8   -100.6924287 -0.247943E-06  0.556E-04    1.15      21.2  T
   9   -100.6924287 -0.133682E-07  0.273E-04    1.15      43.1  T
     SCC iter.                  ...        0 min,  0.075 sec
     gradient                   ...        0 min,  0.069 sec
 * total energy  :  -100.7326829 Eh     change       -0.5205801E-03 Eh
   gradient norm :     0.0235273 Eh/α   predicted    -0.7517500E-03 (  44.41%)
   displ. norm   :     0.1142819 α      lambda       -0.6110964E-03
   maximum displ.:     0.0678780 α      in ANC's #6, #8, #13, ...

........................................................................
.............................. CYCLE   50 ..............................
........................................................................

 iter      E             dE          RMSdq      gap      omega  full diag
   1   -100.6968906 -0.100697E+03  0.300E-02    1.15       0.0  T
   2   -100.6968969 -0.623547E-05  0.206E-02    1.14       1.0  T
   3   -100.6968450  0.518945E-04  0.227E-02    1.17       1.0  T
   4   -100.6968862 -0.412859E-04  0.142E-02    1.14       1.0  T
   5   -100.6969055 -0.192677E-04  0.299E-03    1.15       3.9  T
   6   -100.6969062 -0.729012E-06  0.119E-03    1.15       9.9  T
   7   -100.6969063 -0.766818E-07  0.567E-04    1.15      20.8  T
   8   -100.6969063 -0.649359E-08  0.205E-04    1.15      57.4  T
     SCC iter.                  ...        0 min,  0.065 sec
     gradient                   ...        0 min,  0.069 sec
 * total energy  :  -100.7330526 Eh     change       -0.3696595E-03 Eh
   gradient norm :     0.0093046 Eh/α   predicted    -0.3095575E-03 ( -16.26%)
   displ. norm   :     0.3224382 α      lambda       -0.4007325E-03
   maximum displ.:     0.1975516 α      in ANC's #6, #8, #30, ...

........................................................................
.............................. CYCLE   51 ..............................
........................................................................

 iter      E             dE          RMSdq      gap      omega  full diag
   1   -100.6973020 -0.100697E+03  0.106E-01    1.16       0.0  T
   2   -100.6972950  0.703889E-05  0.629E-02    1.14       1.0  T
   3   -100.6966548  0.640185E-03  0.729E-02    1.23       1.0  T
[...]
         :::::::::::::::::::::::::::::::::::::::::::::::::::::
         :: total energy            -100.736053627826 Eh    ::
         :: gradient norm              0.002408026818 Eh/a0 ::
         :: HOMO-LUMO gap              1.062191096042 eV    ::
         ::.................................................::
         :: SCC energy              -100.700752221195 Eh    ::
         :: -> isotropic ES            0.110192607048 Eh    ::
         :: -> anisotropic ES          0.000125029375 Eh    ::
         :: -> anisotropic XC          0.041660864733 Eh    ::
         :: -> dispersion             -0.076387769512 Eh    ::
         :: repulsion energy           1.494052643196 Eh    ::
         :: add. restraining          -1.530833366100 Eh    ::
         :: total charge               1.000000000000 e     ::
         :::::::::::::::::::::::::::::::::::::::::::::::::::::

           -------------------------------------------------
          |                Property Printout                |
           -------------------------------------------------

    * Orbital Energies and Occupations

         #    Occupation            Energy/Eh            Energy/eV
      -------------------------------------------------------------
         1        2.0000           -0.8153680             -22.1873
       ...           ...                  ...                  ...
        78        1.9992           -0.5367844             -14.6066
        79        1.9989           -0.5304186             -14.4334
        80        1.9985           -0.5264044             -14.3242
        81        1.9983           -0.5238753             -14.2554
        82        1.9980           -0.5212246             -14.1832
        83        1.9975           -0.5179166             -14.0932
        84        1.9973           -0.5166966             -14.0600
        85        1.9895           -0.4951503             -13.4737
        86        1.9802           -0.4850490             -13.1989
        87        1.9727           -0.4798928             -13.0585
        88        1.9571           -0.4725718             -12.8593
        89        1.8538           -0.4523068             -12.3079
        90        1.5840           -0.4332592             -11.7896 (HOMO)
        91        0.4889           -0.3942244             -10.7274 (LUMO)
        92        0.1675           -0.3742126             -10.1828
        93        0.0168           -0.3365720              -9.1586
        94        0.0029           -0.3084636              -8.3937
        95        0.0026           -0.3067377              -8.3468
        96        0.0016           -0.2996168              -8.1530
        97        0.0000           -0.2277456              -6.1973
        98        0.0000           -0.1836620              -4.9977
        99                         -0.1272533              -3.4627
       100                         -0.0672776              -1.8307
       101                         -0.0660081              -1.7962
       ...                                ...                  ...
       171                          1.1477207              31.2311
      -------------------------------------------------------------
                  HL-Gap            0.0390348 Eh            1.0622 eV
             Fermi-level           -0.4120899 Eh          -11.2135 eV

     #   Z          covCN         q      C6AA      α(0)
     1   7 N        1.773    -0.318    29.070     7.984
     2   6 C        2.825     0.094    25.897     8.339
     3   6 C        3.906     0.007    20.399     6.420
     4   6 C        2.963     0.016    27.663     8.627
     5   6 C        1.996    -0.146    35.180     9.579
     6   6 C        2.888     0.149    24.772     8.160
     7   8 O        1.705    -0.203    17.384     5.629
     8   6 C        3.664     0.023    20.448     6.486
     9   6 C        2.859     0.124    25.266     8.239
    10   8 O        1.705    -0.240    17.979     5.725
    11   6 C        3.648     0.026    20.455     6.498
    12   6 C        2.908    -0.089    30.232     9.016
    13   6 C        3.818    -0.115    22.678     6.777
    14   6 C        3.816    -0.068    21.785     6.643
    15   6 C        3.803    -0.071    21.852     6.655
    16   6 C        2.847     0.004    27.927     8.661
    17   7 N        2.729     0.016    20.983     6.803
    18   6 C        3.756    -0.017    20.937     6.524
    19   6 C        3.808    -0.070    21.835     6.652
    20   6 C        2.968    -0.000    28.037     8.685
    21   6 C        2.922    -0.050    29.235     8.867
    22   6 C        2.914    -0.068    29.692     8.935
    23   6 C        2.865     0.133    25.094     8.211
    24   8 O        1.706    -0.224    17.710     5.682
    25   6 C        3.645     0.026    20.478     6.504
    26   6 C        2.863     0.133    25.095     8.211
    27   8 O        1.706    -0.226    17.746     5.688
    28   6 C        3.645     0.027    20.451     6.500
    29   6 C        2.920    -0.079    29.973     8.978
    30   6 C        3.700    -0.073    22.057     6.716
    31   6 C        3.853    -0.009    20.704     6.472
    32   6 C        3.756    -0.114    22.731     6.798
    33   6 C        3.755    -0.112    22.688     6.792
    34   1 H        0.930     0.128     1.549     1.946
    35   1 H        0.924     0.062     2.171     2.304
    36   1 H        0.925     0.081     1.972     2.196
    37   1 H        0.924     0.060     2.195     2.317
    38   1 H        0.924     0.054     2.267     2.355
    39   1 H        0.925     0.080     1.982     2.201
    40   1 H        0.924     0.044     2.401     2.423
    41   1 H        0.926     0.058     2.222     2.331
    42   1 H        0.921     0.129     1.540     1.941
    43   1 H        0.925     0.067     2.121     2.277
    44   1 H        0.925     0.052     2.300     2.372
    45   1 H        0.925     0.069     2.101     2.267
    46   1 H        0.924     0.078     2.002     2.213
    47   1 H        0.924     0.016     2.788     2.611
    48   1 H        0.926     0.065     2.141     2.288
    49   1 H        0.924     0.068     2.107     2.270
    50   1 H        0.924     0.067     2.117     2.275
    51   1 H        0.924     0.055     2.264     2.353
    52   1 H        0.924     0.054     2.266     2.354
    53   1 H        0.926     0.042     2.423     2.434
    54   1 H        0.926     0.057     2.234     2.337
    55   1 H        0.924     0.053     2.277     2.360
    56   1 H        0.924     0.055     2.263     2.353
    57   1 H        0.925     0.082     1.963     2.191
    58   1 H        0.925     0.081     1.967     2.193
    59   1 H        0.924     0.049     2.331     2.388
    60   1 H        0.924     0.052     2.297     2.370
    61   1 H        0.926     0.048     2.342     2.393
    62   1 H        0.924     0.075     2.032     2.229
    63   1 H        0.925     0.088     1.903     2.157
    64   1 H        0.925     0.078     1.995     2.209
    65   1 H        0.924     0.046     2.370     2.407
    66   1 H        0.925     0.046     2.369     2.407
    67   1 H        0.925     0.042     2.423     2.434
    68   1 H        0.925     0.053     2.280     2.361
    69   1 H        0.925     0.043     2.411     2.428
    70   1 H        0.925     0.037     2.483     2.464
    71   1 H        0.925     0.053     2.280     2.361
    72   1 H        0.860     0.146     1.426     1.871

 Mol. C6AA /au·bohr⁶  :      47146.601788
 Mol. C8AA /au·bohr⁸  :    1076192.863920
 Mol. α(0) /au        :        332.099191


Wiberg/Mayer (AO) data.
largest (>0.10) Wiberg bond orders for each atom

 ---------------------------------------------------------------------------
     #   Z sym  total        # sym  WBO       # sym  WBO       # sym  WBO
 ---------------------------------------------------------------------------
     1   7 N    3.002 --     2 C    1.875    72 H    0.945
     2   6 C    3.908 --     1 N    1.875     3 C    0.998    47 H    0.936
     3   6 C    3.975 --     2 C    0.998     4 C    0.996    14 C    0.966
                            31 C    0.908
     4   6 C    3.845 --     5 C    1.684     3 C    0.996    13 C    0.987
     5   6 C    3.393 --     4 C    1.684     6 C    1.443
     6   6 C    3.786 --     5 C    1.443     7 O    1.149     9 C    1.042
     7   8 O    2.296 --     6 C    1.149     8 C    0.968
     8   6 C    3.921 --    36 H    0.978    35 H    0.972    37 H    0.970
                             7 O    0.968
     9   6 C    3.894 --    12 C    1.635    10 O    1.088     6 C    1.042
    10   8 O    2.250 --     9 C    1.088    11 C    0.975    12 C    0.114
    11   6 C    3.932 --    39 H    0.977    40 H    0.975    10 O    0.975
                            38 H    0.975
    12   6 C    3.883 --     9 C    1.635    13 C    1.032    41 H    0.956
                            10 O    0.114
    13   6 C    3.924 --    12 C    1.032     4 C    0.987    34 H    0.930
                            42 H    0.865
    14   6 C    3.961 --    15 C    0.975    44 H    0.969     3 C    0.966
                            43 H    0.965
    15   6 C    3.985 --    16 C    1.059    14 C    0.975    45 H    0.962
                            46 H    0.934
    16   6 C    3.574 --    17 N    1.405    15 C    1.059    48 H    0.959
    17   7 N    3.466 --    16 C    1.405    30 C    0.999    18 C    0.989
    18   6 C    3.955 --    17 N    0.989    50 H    0.966    49 H    0.966
                            19 C    0.966
    19   6 C    3.975 --    20 C    1.009    52 H    0.974    51 H    0.969
                            18 C    0.966
    20   6 C    3.947 --    21 C    1.407    29 C    1.383    19 C    1.009
    21   6 C    3.951 --    22 C    1.419    20 C    1.407    53 H    0.968
    22   6 C    3.961 --    21 C    1.419    23 C    1.383    54 H    0.963
    23   6 C    3.897 --    22 C    1.383    26 C    1.223    24 O    1.108
    24   8 O    2.254 --    23 C    1.108    25 C    0.976
    25   6 C    3.929 --    57 H    0.977    24 O    0.976    56 H    0.973
                            55 H    0.973
    26   6 C    3.901 --    29 C    1.393    23 C    1.223    27 O    1.102
    27   8 O    2.254 --    26 C    1.102    28 C    0.979
    28   6 C    3.932 --    27 O    0.979    58 H    0.977    60 H    0.973
                            59 H    0.973
    29   6 C    3.960 --    26 C    1.393    20 C    1.383    61 H    0.962
    30   6 C    3.956 --    17 N    0.999    64 H    0.977    62 H    0.964
                            63 H    0.962
    31   6 C    3.976 --    32 C    1.010    33 C    1.009    65 H    0.964
                             3 C    0.908
    32   6 C    3.990 --    31 C    1.010    66 H    0.984    67 H    0.983
                            68 H    0.981
    33   6 C    3.990 --    31 C    1.009    69 H    0.984    71 H    0.981
                            70 H    0.979
    34   1 H    0.971 --    13 C    0.930
    35   1 H    0.991 --     8 C    0.972
    36   1 H    0.992 --     8 C    0.978
    37   1 H    0.994 --     8 C    0.970
    38   1 H    0.995 --    11 C    0.975
    39   1 H    0.993 --    11 C    0.977
    40   1 H    0.996 --    11 C    0.975
    41   1 H    0.992 --    12 C    0.956
    42   1 H    0.972 --    13 C    0.865
    43   1 H    0.993 --    14 C    0.965
    44   1 H    0.996 --    14 C    0.969
    45   1 H    0.995 --    15 C    0.962
    46   1 H    0.973 --    15 C    0.934
    47   1 H    0.989 --     2 C    0.936
    48   1 H    0.995 --    16 C    0.959
    49   1 H    0.992 --    18 C    0.966
    50   1 H    0.993 --    18 C    0.966
    51   1 H    0.995 --    19 C    0.969
    52   1 H    0.996 --    19 C    0.974
    53   1 H    0.998 --    21 C    0.968
    54   1 H    0.995 --    22 C    0.963
    55   1 H    0.992 --    25 C    0.973
    56   1 H    0.992 --    25 C    0.973
    57   1 H    0.993 --    25 C    0.977
    58   1 H    0.993 --    28 C    0.977
    59   1 H    0.993 --    28 C    0.973
    60   1 H    0.993 --    28 C    0.973
    61   1 H    0.996 --    29 C    0.962
    62   1 H    0.983 --    30 C    0.964
    63   1 H    0.986 --    30 C    0.962
    64   1 H    0.993 --    30 C    0.977
    65   1 H    0.996 --    31 C    0.964
    66   1 H    0.997 --    32 C    0.984
    67   1 H    0.998 --    32 C    0.983
    68   1 H    0.996 --    32 C    0.981
    69   1 H    0.997 --    33 C    0.984
    70   1 H    0.998 --    33 C    0.979
    71   1 H    0.994 --    33 C    0.981
    72   1 H    0.975 --     1 N    0.945
 ---------------------------------------------------------------------------

Topologies differ in total number of bonds
Writing topology from bond orders to xtbtopo.mol

molecular dipole:
                 x           y           z       tot (Debye)
 q only:       -0.147       0.093      -0.338
   full:       -0.020       0.406      -0.293       1.273
molecular quadrupole (traceless):
                xx          xy          yy          xz          yz          zz
 q only:       50.185      -0.005     -13.499       3.450     -10.252     -36.686
  q+dip:       44.001       3.994      -8.196       1.841     -10.738     -35.805
   full:       44.124       2.431      -8.834      -0.244     -10.213     -35.290

           -------------------------------------------------
          |                Geometry Summary                 |
           -------------------------------------------------

      molecular mass/u    :      455.6105846
   center of mass at/Å    :       -0.0055351      -0.0284300      -0.0552602
  moments of inertia/u·Å² :        0.2381585E+04   0.1032392E+05   0.1164421E+05
rotational constants/cm⁻¹ :        0.7078324E-02   0.1632871E-02   0.1447727E-02

 * 63 selected distances

     #   Z          #   Z                                           value/Å
     1   7 N        2   6 C                                       1.2628282
     4   6 C        5   6 C                                       1.3406239
     5   6 C        6   6 C                                       1.3643810
     6   6 C        7   8 O                                       1.3296920
     7   8 O        8   6 C                                       1.4120395
     9   6 C       10   8 O                                       1.3483294
    10   8 O       11   6 C                                       1.4092230
     9   6 C       12   6 C                                       1.3514651
    14   6 C       15   6 C                                       1.5375567 (max)
    15   6 C       16   6 C                                       1.4778741
    16   6 C       17   7 N                                       1.3263861
    17   7 N       18   6 C                                       1.4436610
    20   6 C       21   6 C                                       1.3860442
    21   6 C       22   6 C                                       1.3858187
    22   6 C       23   6 C                                       1.3875532
    23   6 C       24   8 O                                       1.3466436
    24   8 O       25   6 C                                       1.4089567
    23   6 C       26   6 C                                       1.4216217
    26   6 C       27   8 O                                       1.3484104
    27   8 O       28   6 C                                       1.4075704
    20   6 C       29   6 C                                       1.3921518
    26   6 C       29   6 C                                       1.3863199
    17   7 N       30   6 C                                       1.4418751
    31   6 C       32   6 C                                       1.5276909
    31   6 C       33   6 C                                       1.5292456
    13   6 C       34   1 H                                       0.7852689 (min)
     8   6 C       35   1 H                                       1.0932194
     8   6 C       36   1 H                                       1.0873155
     8   6 C       37   1 H                                       1.0946632
    11   6 C       38   1 H                                       1.0935728
    11   6 C       39   1 H                                       1.0878985
    11   6 C       40   1 H                                       1.0950937
    12   6 C       41   1 H                                       1.0781836
    13   6 C       42   1 H                                       1.1109702
    14   6 C       43   1 H                                       1.0897709
    14   6 C       44   1 H                                       1.0890407
    15   6 C       45   1 H                                       1.0875657
    15   6 C       46   1 H                                       1.0963219
     2   6 C       47   1 H                                       1.0952097
    16   6 C       48   1 H                                       1.0798069
    18   6 C       49   1 H                                       1.0920777
    18   6 C       50   1 H                                       1.0919414
    19   6 C       51   1 H                                       1.0922964
    19   6 C       52   1 H                                       1.0903775
    21   6 C       53   1 H                                       1.0796058
    22   6 C       54   1 H                                       1.0776255
    25   6 C       55   1 H                                       1.0943225
    25   6 C       56   1 H                                       1.0941181
    25   6 C       57   1 H                                       1.0882472
    28   6 C       58   1 H                                       1.0882582
    28   6 C       59   1 H                                       1.0947523
    28   6 C       60   1 H                                       1.0944423
    29   6 C       61   1 H                                       1.0786884
    30   6 C       62   1 H                                       1.0927722
    30   6 C       63   1 H                                       1.0899381
    30   6 C       64   1 H                                       1.0872705
    31   6 C       65   1 H                                       1.0952930
    32   6 C       66   1 H                                       1.0874183
    32   6 C       67   1 H                                       1.0854827
    32   6 C       68   1 H                                       1.0871320
    33   6 C       69   1 H                                       1.0873964
    33   6 C       70   1 H                                       1.0863334
    33   6 C       71   1 H                                       1.0874104

 * 4 distinct bonds (by element types)

   Z      Z             #   av. dist./Å        max./Å        min./Å
   1 H    6 C          38     1.0817658     1.1109702     0.7852689
   6 C    6 C          13     1.4221805     1.5375567     1.3406239
   6 C    7 N           4     1.3686876     1.4436610     1.2628282
   6 C    8 O           8     1.3763581     1.4120395     1.3296920


optimized geometry written to: xtbopt.xyz


           -------------------------------------------------
          | TOTAL ENERGY             -100.736053627826 Eh   |
          | GRADIENT NORM               0.002408026818 Eh/α |
          | HOMO-LUMO GAP               1.062191096042 eV   |
           -------------------------------------------------

------------------------------------------------------------------------
 * finished run on 2024/04/06 at 11:16:31.978     
------------------------------------------------------------------------
 total:
 * wall-time:     0 d,  0 h,  0 min, 11.819 sec
 *  cpu-time:     0 d,  0 h,  0 min, 11.787 sec
 * ratio c/w:     0.997 speedup
 SCF:
 * wall-time:     0 d,  0 h,  0 min,  0.190 sec
 *  cpu-time:     0 d,  0 h,  0 min,  0.190 sec
 * ratio c/w:     1.000 speedup
 ANC optimizer:
 * wall-time:     0 d,  0 h,  0 min, 11.586 sec
 *  cpu-time:     0 d,  0 h,  0 min, 11.572 sec
 * ratio c/w:     0.999 speedup

