72
 energy: 0.000000000000 xtb: 6.6.1 (8d0f1dd)
N           -1.47310921155849        2.74401293103706        2.22063921685122
C           -1.55658879776851        2.16490285539332        1.13274273951491
C           -2.74549199786261        2.05621232186130        0.23826248438941
C           -3.31377553111525        0.64333411542669        0.32332512650568
C           -4.30230156009016        0.24487110156316       -0.58026161703006
C           -4.85238763031941       -1.02286490450319       -0.53363588718165
O           -5.81419972815119       -1.48606034185536       -1.36157882725342
C           -6.39655633239252       -0.60827000183299       -2.29568474302620
C           -4.39972501531283       -1.94646102182611        0.44396929121966
O           -4.98748311285188       -3.16145997157803        0.41085992006324
C           -4.66362127904578       -4.10093827755394        1.40909127743729
C           -3.42072513477031       -1.54561384810496        1.33436546260297
C           -2.88302799614223       -0.26315800396994        1.27400150770375
C           -2.19303798107274        2.30467000305896       -1.18742977106749
C           -1.26651538239283        1.17243369445008       -1.65249429687285
C            0.01082524939134        1.09745454476277       -0.89354803499847
N            0.61779393476578       -0.02034948052406       -0.57705522512502
C            2.00145210352228       -0.02376006389122       -0.15611399603240
C            2.92554934655222       -0.53865282675074       -1.27700088804721
C            4.35756843073516       -0.43050757231754       -0.83075544324989
C            5.07346135469827        0.73206409086248       -1.03980965825901
C            6.38627986649936        0.84224441421807       -0.60344822702769
C            7.00047264773336       -0.20824756335880        0.05722314418200
O            8.26703657141718       -0.21011313101264        0.52410943644933
C            9.06912227848686        0.92943601033931        0.31863058007678
C            6.27039964270142       -1.40439753960823        0.28033466008274
O            6.94829939911432       -2.38012925705718        0.92751999079483
C            6.31537317745639       -3.61583200086742        1.15217711710877
C            4.96302794628964       -1.49347471867959       -0.16064430359178
C           -0.05511211367372       -1.29906247805359       -0.62085686319744
C           -3.86758037025447        3.07992600430699        0.58498060215443
C           -4.49286159663096        2.77383493050346        1.94313289484366
C           -3.39165179876499        4.52917666589254        0.54797523472093
H           -4.66030026466202        0.94509067363451       -1.31640568823548
H           -6.85037928558380        0.25803162192116       -1.80468845313260
H           -7.17287442604349       -1.18600110843259       -2.79318157561361
H           -5.66836817451085       -0.26952966318766       -3.04040255244073
H           -4.88416720672258       -3.71589460520039        2.40913542187496
H           -5.29223570620378       -4.96637458756866        1.20969236903657
H           -3.61139813139015       -4.39919835331056        1.35529357841967
H           -3.07077796610445       -2.21868765711333        2.10002662693138
H           -2.14562754426994        0.02067850696302        2.01001344383370
H           -3.02188875377605        2.38238012313952       -1.88813545054866
H           -1.65198530896729        3.25146700677685       -1.20556284570283
H           -1.81103374245520        0.23006524641044       -1.62116301628650
H           -0.99335688527853        1.37490212198123       -2.69443256973690
H           -0.67628064361333        1.65183887049447        0.61785727145403
H            0.63525841192517        1.98466369793744       -0.92314021190751
H            2.11132552493482       -0.65949692842762        0.72532613231274
H            2.30680473056284        0.98978251704176        0.11078972794250
H            2.76694198818247        0.06750735147374       -2.17075252200790
H            2.67954581369920       -1.57455627803457       -1.51167743520200
H            4.62169998552446        1.56295612048703       -1.56123579000624
H            6.92357674630170        1.75715815945204       -0.79119596719031
H            8.65159112996149        1.81001823324363        0.81701555159939
H            9.20136171144928        1.14042857828877       -0.74698991949293
H           10.03428838009630        0.69003240176163        0.76064937965836
H            7.05567174969094       -4.23621171795340        1.65347565939075
H            5.43848001056755       -3.50813558175093        1.79970565785717
H            6.02060041905269       -4.09420497120334        0.21253282636366
H            4.40102758497114       -2.40127266373392       -0.00490198249042
H           -0.22071299714579       -1.61775583601871       -1.65116008982042
H           -1.01972258008625       -1.24102717432227       -0.10935206830928
H            0.55899954147532       -2.04486085926761       -0.12333730421426
H           -4.63991875734388        2.95501092798550       -0.18098088071825
H           -3.76095216473977        2.90314704960906        2.73380821053058
H           -4.87457614030224        1.75695641518947        1.97884603101694
H           -5.31925552549014        3.45579210326349        2.12325564252114
H           -2.60025590131176        4.69225046143352        1.27368918226171
H           -3.03987406413880        4.81897652321898       -0.43870975059559
H           -4.22191740670577        5.18069648090034        0.80616693961239
H           -0.59832433787845        2.77744694953323        2.72958984441332
72
 energy: -5.824711493505 xtb: 6.6.1 (8d0f1dd)
N           -1.50039630762641        2.79055842427441        2.24010070704940
C           -1.55297573722932        2.15631180909066        1.15701687271103
C           -2.74687659820599        2.06008972074788        0.25007995003553
C           -3.31825226315481        0.64940124026600        0.32374748515295
C           -4.28805565308855        0.23891446906988       -0.59786628043965
C           -4.84703898581464       -1.02205983496431       -0.52622190405529
O           -5.81984242432594       -1.48439258756970       -1.36016665216401
C           -6.38258274753060       -0.59425652065066       -2.28933345775526
C           -4.40153473514797       -1.94023702818870        0.45077652624178
O           -4.99637767990366       -3.16525993762824        0.41772644401924
C           -4.66578820089292       -4.10171216064145        1.41052651237783
C           -3.42518416901089       -1.54113527095646        1.34260586508881
C           -2.89453775491723       -0.25664626992872        1.28149898738394
C           -2.19690805656616        2.30200816481977       -1.17922153966712
C           -1.26796153252468        1.17825104275484       -1.66573205794434
C            0.00235771449847        1.12860997153502       -0.89820840578429
N            0.63308399080089       -0.04751051515647       -0.56406878530922
C            2.00225656460964       -0.03318243655019       -0.16329677733766
C            2.93583477460511       -0.54186391844754       -1.28299956000513
C            4.35980294839688       -0.43464062645017       -0.84089901893516
C            5.07659177540372        0.72958425061197       -1.04523163447175
C            6.38708609611720        0.84108544946288       -0.60538958723948
C            6.99694559763424       -0.20995667280536        0.05541092827620
O            8.27521179059930       -0.21221387010173        0.52728464659682
C            9.06905151942140        0.92706794343848        0.31998649196500
C            6.27014313687130       -1.40175702668453        0.27750154559397
O            6.95298300220103       -2.38402406321996        0.92951519617355
C            6.31643028908917       -3.61540916115906        1.15179308480266
C            4.96570284186528       -1.49491507356481       -0.16630256840270
C           -0.05037564764228       -1.30558884290595       -0.62385454735309
C           -3.87441920162529        3.07318962024288        0.58869618608360
C           -4.49735566918742        2.77664698844898        1.95151604917315
C           -3.40807721693489        4.52736483739433        0.54591000716622
H           -4.61392047529405        0.90454557416478       -1.38391012484715
H           -6.82213049717026        0.27992884191317       -1.79617499893079
H           -7.16608461703522       -1.15696348370284       -2.79255183155729
H           -5.65041556848992       -0.26178339784432       -3.03297363323591
H           -4.88519422702268       -3.72141726701108        2.41369658557431
H           -5.29305046982499       -4.96861946322884        1.20912983919609
H           -3.61275607461253       -4.39921366511205        1.35706365769932
H           -3.07265612152865       -2.21628046950079        2.10770297342512
H           -2.15527859543753        0.02662188438612        2.01722658150065
H           -3.03094499014490        2.38699535262922       -1.87593181703935
H           -1.65078271290564        3.24655543707936       -1.19635969078690
H           -1.80735955057122        0.23210705507950       -1.61611012404049
H           -1.02257009499784        1.37705452264972       -2.71690782232386
H           -0.68592964434804        1.64993813146780        0.66715705363641
H            0.64560386499462        1.99009620231083       -0.94873085297550
H            2.12235300084232       -0.66416989997468        0.72392571718358
H            2.29925587188209        0.98463821190376        0.10293534773956
H            2.76709594061601        0.06502805716167       -2.17458045463843
H            2.68049758714056       -1.57657259323228       -1.51621443482238
H            4.62230906251112        1.55967073346818       -1.56577037786801
H            6.92478604403572        1.75686714136883       -0.79156964433300
H            8.65093964625062        1.80942201391633        0.81670760512308
H            9.20239184619376        1.13955833190764       -0.74628716169989
H           10.03534031533101        0.68998704516979        0.76251437480579
H            7.05580276196500       -4.23727944763055        1.65433632507778
H            5.43794747478135       -3.50820489676113        1.79774213582992
H            6.02133167208512       -4.09534556543431        0.21211488453530
H            4.40158631656455       -2.40171563646114       -0.00978251071787
H           -0.22475328880974       -1.62488694108865       -1.65759475860395
H           -1.01464324284223       -1.24588359762957       -0.11043950051588
H            0.56196994972880       -2.05549656424470       -0.12832198832529
H           -4.65054932257996        2.94261631289119       -0.17461733485254
H           -3.76040965627885        2.91446959571342        2.73624374232486
H           -4.87059658481875        1.75630742151681        1.99485533098564
H           -5.32846030441789        3.45534743400845        2.12922263425697
H           -2.61519478268584        4.69307085662993        1.26893962491349
H           -3.05479235338208        4.80990040244138       -0.44264528180615
H           -4.24214665831755        5.17769272414182        0.80001692907510
H           -0.60824996877972        2.79090937799279        2.73209045448046
72
 energy: -5.794588160763 xtb: 6.6.1 (8d0f1dd)
N           -1.50870670109575        2.81007745923036        2.24690625744156
C           -1.55648769937692        2.15987683552283        1.17206861129065
C           -2.74613005954077        2.06012303765807        0.25720784342275
C           -3.31620333703745        0.64902872076946        0.31884808763307
C           -4.26955507739338        0.23090521624799       -0.61949768142140
C           -4.84294446683097       -1.02275258713199       -0.52403575632873
O           -5.82014794759919       -1.47905771468336       -1.35639374532772
C           -6.36880306132869       -0.57907241339838       -2.28404443244806
C           -4.40417776563343       -1.93886579683937        0.45741073334820
O           -5.00095542786784       -3.16352592131334        0.42421599078874
C           -4.66893695750475       -4.10339670698305        1.41311617455590
C           -3.42811975122483       -1.53924752170398        1.34947664159204
C           -2.90171062093572       -0.25282539264160        1.28643368384473
C           -2.19732848716693        2.30203643277610       -1.17219436008768
C           -1.27176929120391        1.17840511414949       -1.66635296260126
C            0.00138150743785        1.12938726304246       -0.90316677156313
N            0.63265320682959       -0.04865322812303       -0.56555997220861
C            2.00315563991833       -0.03473492731580       -0.16797069815088
C            2.93757708019237       -0.54371826521476       -1.28729740531869
C            4.36137581089786       -0.43628844489152       -0.84495871442270
C            5.07813601300930        0.72794371249856       -1.04892746154578
C            6.38824001555063        0.83967446480080       -0.60789433607625
C            6.99781599865238       -0.21122705583800        0.05350285746175
O            8.27603388099181       -0.21333458596607        0.52630611574927
C            9.06955975258066        0.92625220262881        0.31986408910034
C            6.27101485381390       -1.40301401200401        0.27520979525323
O            6.95358058035143       -2.38537852323933        0.92797280329389
C            6.31638587241267       -3.61648497582382        1.15029089802755
C            4.96692669555253       -1.49627997285902       -0.16969577638320
C           -0.04899378341769       -1.30856553926328       -0.62594083417115
C           -3.88002343432606        3.06826494238283        0.59338355596876
C           -4.50120591830872        2.77790819307871        1.95832284316124
C           -3.42267616329702        4.52499322282414        0.54265129187206
H           -4.56932997284615        0.86344650860833       -1.44722536087818
H           -6.79394407233775        0.30130428768024       -1.78816419340276
H           -7.15804842346670       -1.12768078026574       -2.79208082291771
H           -5.63111173893732       -0.25505096853598       -3.02539408294263
H           -4.88852482188144       -3.72642174457149        2.41733994999026
H           -5.29559459354476       -4.96995025198452        1.20817776658102
H           -3.61583508189918       -4.40060085239563        1.35941496923552
H           -3.07485961850568       -2.21401629164806        2.11573767244937
H           -2.16699355118857        0.03253462996003        2.02694104275816
H           -3.03466360122434        2.38989454550635       -1.86459064481576
H           -1.64871108439152        3.24435233303489       -1.18918496671364
H           -1.80973969465505        0.23195731652523       -1.60944217441707
H           -1.03843821038974        1.37587557358893       -2.72174850308739
H           -0.68724964767074        1.64847005338969        0.69770506370069
H            0.64402608170760        1.99155077448206       -0.95485594413516
H            2.12664982783236       -0.66331383849369        0.72076371657780
H            2.29694710753737        0.98446914930028        0.09509948781745
H            2.76890830707358        0.06205608554230       -2.17977818940606
H            2.68231961242135       -1.57863078132301       -1.51986407123194
H            4.62366230294197        1.55766632968869       -1.56981104293624
H            6.92613880550650        1.75538328675743       -0.79406153077591
H            8.65028428607330        1.80813074270164        0.81645355762182
H            9.20360880504459        1.13939010230035       -0.74622012832056
H           10.03568301092826        0.68960548347520        0.76319015376198
H            7.05498137193550       -4.23883467834321        1.65361289362590
H            5.43748326616206       -3.50843388750322        1.79555694391905
H            6.02144080869267       -4.09695791229135        0.21068121679847
H            4.40240625524333       -2.40284265543771       -0.01329871522888
H           -0.22592014916967       -1.62760986361248       -1.65976363184433
H           -1.01230618633017       -1.24992175364220       -0.11096363092160
H            0.56389653771443       -2.05987168608820       -0.13229073493152
H           -4.65603496487768        2.92796525079904       -0.16846799524092
H           -3.76491177490222        2.92647109971738        2.74183855788100
H           -4.86763163320261        1.75551095004576        2.00968005944466
H           -5.33693319534022        3.45272855137310        2.13170156926285
H           -2.63117292130555        4.69862124869504        1.26517462453527
H           -3.06937470260919        4.80211068334180       -0.44728094263701
H           -4.26082687324184        5.17255406537457        0.79157331404683
H           -0.61920524006022        2.81296540651645        2.74426473604381
72
 energy: -5.402331416261 xtb: 6.6.1 (8d0f1dd)
N           -1.51767603146547        2.83036367411402        2.25206945384920
C           -1.55979492736236        2.16387677681849        1.18606233258545
C           -2.74528374383217        2.06001272937836        0.26410886853672
C           -3.31155022916012        0.64732237913791        0.31237910441372
C           -4.24781818579327        0.22188395450460       -0.64242065045181
C           -4.83432502731540       -1.02447377695282       -0.52471834906839
O           -5.81934426104819       -1.47322197091481       -1.35335792127805
C           -6.35511772772180       -0.56375292744298       -2.27897838916996
C           -4.40644326610509       -1.93756935938096        0.46372875113526
O           -5.00636912686794       -3.16120389382870        0.43122524685174
C           -4.67207902559231       -4.10485193722483        1.41581405406178
C           -3.43113965108714       -1.53750115122911        1.35645868051547
C           -2.90847879115050       -0.24948379001954        1.29078258088755
C           -2.19772831004786        2.30297319083733       -1.16493048788027
C           -1.27636139878112        1.17823241461355       -1.66560314173623
C            0.00066455521864        1.12961129228687       -0.90989688010299
N            0.63215120254727       -0.05007928682908       -0.56772211486576
C            2.00371215572548       -0.03584676605430       -0.17315130302780
C            2.93908967967127       -0.54556474577454       -1.29186905900843
C            4.36282912765604       -0.43812062026022       -0.84937289961892
C            5.07971096306043        0.72608393598773       -1.05281588782506
C            6.38934675932657        0.83824189079424       -0.61031472365736
C            6.99848752974850       -0.21243281922524        0.05183188446946
O            8.27654305134702       -0.21442969579679        0.52590090049204
C            9.06997589238739        0.92520715121613        0.32016097578975
C            6.27173098698978       -1.40422059862291        0.27291269877981
O            6.95406027557139       -2.38640893396692        0.92678131826704
C            6.31659513973916       -3.61735329183775        1.14922251341824
C            4.96808461494489       -1.49778522692813       -0.17341308822568
C           -0.04788812579265       -1.31137451945064       -0.62911898068213
C           -3.88540669705019        3.06310356811135        0.59827542782714
C           -4.50454016266798        2.77893501971918        1.96544769777363
C           -3.43714994383821        4.52257552255509        0.53926341407086
H           -4.52349903848963        0.82029164846503       -1.50894064105506
H           -6.76548470687823        0.32243656561087       -1.77987258440001
H           -7.15065004773253       -1.09802324812666       -2.79108411016898
H           -5.61278821270273       -0.24828907635386       -3.01889670832026
H           -4.89140774825237       -3.73212800518566        2.42152919319961
H           -5.29752349754751       -4.97147687551064        1.20721547430096
H           -3.61877883410312       -4.40109601400195        1.36113917285887
H           -3.07727215175003       -2.21152786388064        2.12418514208013
H           -2.17907403118024        0.03883388361084        2.03587573831896
H           -3.03863432724897        2.39322532623484       -1.85271858296048
H           -1.64696156756279        3.24340312936175       -1.18183013563674
H           -1.81251875131069        0.23110537298616       -1.60276383256731
H           -1.05487575591532        1.37494839250640       -2.72461249941861
H           -0.68874401898715        1.64612130267293        0.72832905226257
H            0.64318844522104        1.99186820167076       -0.96261217075431
H            2.13056463896962       -0.66229668526156        0.71687800287558
H            2.29508959325863        0.98452698783103        0.08734077222087
H            2.77026607579664        0.05925471487607       -2.18501930174564
H            2.68353345071956       -1.58060262376863       -1.52372018467866
H            4.62494460112337        1.55552972270850       -1.57376129423680
H            6.92724779629331        1.75412050786328       -0.79576151577743
H            8.64995925918875        1.80689003878892        0.81647661131796
H            9.20488064617297        1.13868782018349       -0.74577163208665
H           10.03582428956061        0.68870417202062        0.76434239963910
H            7.05460064273147       -4.23980906844850        1.65339851911514
H            5.43723528133326       -3.50885582273523        1.79382163486580
H            6.02220985440036       -4.09848205174342        0.20964684957934
H            4.40307929377511       -2.40402418144748       -0.01699951032698
H           -0.22844127655520       -1.62962476289714       -1.66292340080722
H           -1.00966873434309       -1.25461752725827       -0.11129076976002
H            0.56656068171886       -2.06386839542120       -0.13875797638641
H           -4.66109869467459        2.91302780463946       -0.16216189871384
H           -3.76869496612603        2.93819363575438        2.74738998414112
H           -4.86440785858367        1.75465496638163        2.02493050297164
H           -5.34476945609635        3.44980401954173        2.13491171239162
H           -2.64685685473951        4.70421485122340        1.26111892056859
H           -3.08438273302120        4.79481960147019       -0.45211974379875
H           -4.27915180215176        5.16736285881521        0.78344167543991
H           -0.63083778732259        2.83628405761887        2.75425668932316
72
 energy: -4.658677376520 xtb: 6.6.1 (8d0f1dd)
N           -1.52701830229617        2.85132597166774        2.25593231726637
C           -1.56296383621860        2.16835151934956        1.19933519121694
C           -2.74442645131679        2.05957657249150        0.27082478870178
C           -3.30633752284354        0.64465935171959        0.30573366968238
C           -4.22607847566692        0.21212484649749       -0.66528041058010
C           -4.82571267595383       -1.02659861393742       -0.52728828403324
O           -5.81823470750701       -1.46733878162472       -1.35186023964556
C           -6.34171453806281       -0.54830941382554       -2.27454689368179
C           -4.40903903754941       -1.93602021576688        0.46937699562310
O           -5.01217921123724       -3.15855716153448        0.43809293433561
C           -4.67532043897119       -4.10576304330176        1.41843529664178
C           -3.43469757297077       -1.53586610538621        1.36310059988916
C           -2.91526599938893       -0.24651621751221        1.29499051962641
C           -2.19791637854161        2.30413968494415       -1.15753060903609
C           -1.28140926832801        1.17741070990172       -1.66426915758816
C            0.00038000422585        1.12758244443151       -0.91846976130471
N            0.63215003677503       -0.05263708390070       -0.57139717215649
C            2.00425748817277       -0.03697210732513       -0.17889801445887
C            2.94072968463148       -0.54750881948426       -1.29669840915436
C            4.36427442239123       -0.44005656820174       -0.85378336735532
C            5.08129357532263        0.72412066177410       -1.05665326349810
C            6.39044944610395        0.83678168247820       -0.61271472316018
C            6.99915259233675       -0.21364903475196        0.05019535901266
O            8.27701790042440       -0.21551381508217        0.52559365158929
C            9.07032001240241        0.92418173332202        0.32055000573822
C            6.27246166767124       -1.40545873893292        0.27061579578479
O            6.95458332412861       -2.38741749926285        0.92557520396862
C            6.31688083342624       -3.61814621281036        1.14841492872147
C            4.96924599350823       -1.49936903397797       -0.17712328712406
C           -0.04692729409464       -1.31449171835932       -0.63309852954607
C           -3.89057996801450        3.05773431949105        0.60319065075549
C           -4.50761830407186        2.77980626579584        1.97263420459051
C           -3.45141558613123        4.51997132925218        0.53576329162739
H           -4.47797478452664        0.77487707055358       -1.56873403910724
H           -6.73695479447590        0.34333342201774       -1.77184344264081
H           -7.14369911990192       -1.06827602634325       -2.79003356105333
H           -5.59505198606716       -0.24146581929568       -3.01326099439088
H           -4.89417723953793       -3.73772647156428        2.42582619045375
H           -5.29937756003255       -4.97266268610139        1.20626761490352
H           -3.62180095942009       -4.40072283361632        1.36246775233384
H           -3.08089624071773       -2.20886769772047        2.13258714279184
H           -2.19103783193874        0.04482341605790        2.04445785414789
H           -3.04233163405132        2.39719908020161       -1.84080636832030
H           -1.64474110677626        3.24268032667700       -1.17414657594158
H           -1.81577805236854        0.22966751752221       -1.59621241176013
H           -1.07140541276240        1.37381162013473       -2.72636822522643
H           -0.69049014947940        1.64278170778887        0.75933148200768
H            0.64249045386622        1.99051373288275       -0.97100413472017
H            2.13397188894078       -0.66111473036158        0.71259072967854
H            2.29327981766475        0.98454409534566        0.07923257974236
H            2.77187356427879        0.05643138801166       -2.19045120247020
H            2.68467995102667       -1.58262907253239       -1.52771626412745
H            4.62633017666837        1.55326231309272       -1.57781243090574
H            6.92820623471766        1.75291358785489       -0.79738696930676
H            8.64965857035263        1.80575948607769        0.81650859759206
H            9.20613669042001        1.13789898320758       -0.74523302430613
H           10.03583374889685        0.68787750018259        0.76566961323871
H            7.05422019295978       -4.24034469175477        1.65407279062270
H            5.43695983179478       -3.50918898909799        1.79219593409045
H            6.02325142136784       -4.10018048732382        0.20897077743311
H            4.40381840894563       -2.40535382045215       -0.02085469174110
H           -0.23141052371006       -1.63199736580685       -1.66661090780081
H           -1.00700225220244       -1.25932540586733       -0.11193949237057
H            0.56929801673513       -2.06771810437360       -0.14590684339935
H           -4.66592468600000        2.89800112911719       -0.15577752796559
H           -3.77232946607876        2.94976130299746        2.75292919614263
H           -4.86104166349589        1.75377043057058        2.04027121738699
H           -5.35234032453112        3.44662408848274        2.13812056053343
H           -2.66233398992633        4.70982541831642        1.25687017627779
H           -3.09944681279573        4.78777661902133       -0.45705204974655
H           -4.29724788182878        5.16179255264063        0.77543481542525
H           -0.64298784776463        2.86033117296329        2.76299638873902
72
 energy: -3.573797365310 xtb: 6.6.1 (8d0f1dd)
N           -1.53621560719534        2.87240707303127        2.25931578571170
C           -1.56599820200945        2.17335834798171        1.21226271534117
C           -2.74343598656335        2.05898736294912        0.27748830176192
C           -3.30054333025240        0.64146593455828        0.29893146269803
C           -4.20366227621583        0.20168794457965       -0.68839218457641
C           -4.81659699309994       -1.02911308003414       -0.53124332747967
O           -5.81698028978627       -1.46113718549568       -1.35121267119444
C           -6.32863885082716       -0.53300908739481       -2.27089735827054
C           -4.41172795216902       -1.93430433488124        0.47446662039222
O           -5.01824896431171       -3.15560257703211        0.44482948518787
C           -4.67879285276233       -4.10626580859772        1.42107420816944
C           -3.43853628695976       -1.53425950831189        1.36939556613532
C           -2.92197175066084       -0.24377500509335        1.29897351952641
C           -2.19791368758827        2.30554342204705       -1.15009430806864
C           -1.28650833682827        1.17663647960296       -1.66282926375504
C            0.00074075847061        1.12520223024830       -0.92853449134089
N            0.63175100096552       -0.05518974624293       -0.57565321071966
C            2.00449040915078       -0.03793207418498       -0.18477745595636
C            2.94213225939638       -0.54944725539682       -1.30150100636332
C            4.36552384498634       -0.44199130818229       -0.85804199789251