25
 energy: -43.831934426271 gnorm: 0.121891068721 xtb: 6.6.1 (8d0f1dd)
C            3.24258318743954        1.17410364263038        0.08486096278657
N            2.30546843453649        0.08470481301619        0.03972113480611
C            2.59244166809615       -1.21332177719879        0.03056862614581
N            1.44912119755118       -1.93137468936661        0.00214531097871
C            0.40156445522001       -1.05982070867985       -0.00767154814248
C            0.94007718519428        0.21946620509358        0.01690374085706
C            0.10456724813406        1.40267037042748       -0.00414143415650
O            0.50019529400142        2.54733347438741       -0.00326145869674
N           -1.24631050126220        1.05663414944870       -0.03135015051467
C           -2.21514052011543        2.15173591830563       -0.04999332591412
C           -1.80693468379929       -0.20129788116685       -0.04926419051144
O           -2.99825566320255       -0.38070354345050       -0.07788861141010
N           -0.93874236555285       -1.31684475612430       -0.03765004988973
C           -1.51857465956624       -2.64725150001246       -0.06040052396983
H            3.71992323711873        1.22207020249270        1.06504092197703
H            4.01330188111388        1.04390184500925       -0.67480865822271
H            2.70310786545530        2.10502830717107       -0.08959421877362
H            3.57871069760585       -1.63350862348105        0.04314130947184
H           -1.66550852733484        3.08916510874661       -0.02532479591470
H           -2.82011434040719        2.09157270940891       -0.95345645251261
H           -2.87216545952062        2.07436005313977        0.81490209459241
H           -1.20265163024904       -3.19107040108692        0.83332248890638
H           -1.18501046111489       -3.16837252971963       -0.96001323112544
H           -2.61927388315406       -2.63860206572462       -0.07554483497380
H            1.39473856938328       -2.93737685576734       -0.01229041046466
25
 energy: -43.837204681409 gnorm: 0.041446996366 xtb: 6.6.1 (8d0f1dd)
C            3.24549952434092        1.18098835870551        0.08702083247957
N            2.30946144554636        0.09873273656723        0.03747885533949
C            2.60337777346659       -1.23194202110764        0.03052578746606
N            1.43262731876631       -1.93858582992896        0.00173375860425
C            0.39845806520024       -1.06020003605074       -0.00813282419120
C            0.92893194052881        0.22338252368847        0.01489337031868
C            0.10663090428565        1.39317173369993       -0.00541557697215
O            0.49866747071649        2.56178368623648       -0.00440676736464
N           -1.25926646355685        1.04713795579311       -0.03175083465723
C           -2.21809358414470        2.14476379234413       -0.04995854045996
C           -1.81806110609354       -0.20184718110199       -0.05021450638756
O           -3.01710350291022       -0.38259778861498       -0.07752851306524
N           -0.94333059757497       -1.31066030139310       -0.03775538825482
C           -1.49733252666358       -2.64712603460913       -0.06044331820497
H            3.72658969067546        1.22801993422659        1.06806877710199
H            4.01399142535226        1.04977165954959       -0.67693820995127
H            2.69920196318207        2.10650322249269       -0.08681675723149
H            3.58290223150361       -1.65549884143409        0.04353180380716
H           -1.65348900911727        3.07425618317673       -0.02517409365337
H           -2.82291487618497        2.09149498415335       -0.95456853045179
H           -2.87489917080323        2.07436770652782        0.81628244057142
H           -1.19244330043746       -3.19825332947947        0.83266916568867
H           -1.17303062005869       -3.17661633776075       -0.95966227271903
H           -2.58906992583299       -2.58592472221622       -0.07319620157020
H            1.36981315538466       -2.94192058596582       -0.01228976091361
25
 energy: -43.838126659668 gnorm: 0.018455753176 xtb: 6.6.1 (8d0f1dd)
C            3.24534194301798        1.18346984503631        0.08558176743900
N            2.30845728329842        0.11106446075464        0.03513207240157
C            2.61346728779867       -1.23105002623623        0.03170272466186
N            1.43410963021306       -1.93816171963956        0.00260163294394
C            0.39918662712929       -1.06643822030022       -0.00687887128691
C            0.92135690088486        0.22294791561999        0.01554426018851
C            0.11602168993044        1.38463645157982       -0.00281144505700
O            0.50538196332726        2.56185372832389       -0.00161287859876
N           -1.26020603590700        1.04690659845326       -0.03034910611321
C           -2.21392317244146        2.14837567689505       -0.04989951571406
C           -1.81364633900288       -0.19835767778715       -0.04952592766080
O           -3.01442478318486       -0.37742119004699       -0.07835433112243
N           -0.94792196469434       -1.31201252882915       -0.03666437770899
C           -1.51109894177988       -2.64983484416550       -0.06071808545508
H            3.72299633046681        1.22535662823152        1.06876976173438
H            4.01582351810849        1.04332657132907       -0.67564065540061
H            2.70321625921299        2.10928438088523       -0.09224875256456
H            3.59233519774213       -1.63883238059615        0.04313122453988
H           -1.66104824128631        3.08617668783477       -0.02514949115009
H           -2.81905080953515        2.09349003724163       -0.95406055945597
H           -2.87235596120597        2.07663152691069        0.81474806351446
H           -1.20480489309060       -3.19946009423957        0.83096597900563
H           -1.18536500206392       -3.17638220245842       -0.95938073462579
H           -2.60373869587234       -2.62190169645421       -0.07478233097585
H            1.38700843450526       -2.94046646084398       -0.01214772821033
25
 energy: -43.838366394464 gnorm: 0.009149286451 xtb: 6.6.1 (8d0f1dd)
C            3.24543419096574        1.17743074999775        0.08755897966443
N            2.30691878099721        0.10748749193778        0.03555596711453
C            2.60849983141939       -1.23409377727366        0.03166751280505
N            1.43016893000726       -1.93698585404463        0.00162181211594
C            0.40011883398703       -1.06495313213043       -0.00811610263038
C            0.92118061442952        0.22427865073315        0.01494824142147
C            0.11619775831839        1.38509324852376       -0.00630021501704
O            0.49809482819184        2.56090011195792       -0.00660189320747
N           -1.26202662598837        1.04854192589647       -0.03259566792813
C           -2.21746180218119        2.14670225482488       -0.05011738277851
C           -1.81026065592818       -0.19783473672330       -0.05039644152418
O           -3.00908478153179       -0.38253825246588       -0.07761599584189
N           -0.94473180531249       -1.30863574009715       -0.03772372391367
C           -1.50678182896549       -2.64495326723904       -0.05981121466443
H            3.72663214008377        1.21980322281888        1.06851492368888
H            4.01382112387117        1.04508118124850       -0.67668903200804
H            2.70261160208407        2.10416872809047       -0.08374560611976
H            3.58473827784232       -1.64389125660004        0.04286811088568
H           -1.66136837568641        3.08215165280432       -0.02584276754022
H           -2.82439165539036        2.09127546861428       -0.95339910982679
H           -2.87426059399944        2.07377636512529        0.81609685324999
H           -1.19457892656374       -3.18936026685620        0.83346792530232
H           -1.17668856226653       -3.16865364677200       -0.95882096930429
H           -2.60083949776709       -2.61172881898281       -0.07334073992417
H            1.38517642495434       -2.93986083588960       -0.01323076869054
25
 energy: -43.838355718528 gnorm: 0.006721652814 xtb: 6.6.1 (8d0f1dd)
C            3.24283489056398        1.17921616526182        0.08419567571450
N            2.30672502422726        0.10544768655101        0.03590112591832
C            2.60681877780572       -1.23466215346703        0.03381912696919
N            1.42975545206863       -1.93656893869085        0.00374120057387
C            0.40037485920024       -1.06642554906916       -0.00659464652599
C            0.92180321310441        0.22327703597293        0.01719989643262
C            0.11765537603015        1.38457790035365       -0.00139835868306
O            0.49561127345062        2.55863844690667        0.00060356640495
N           -1.26215460243423        1.04818267811629       -0.02975586918183
C           -2.21460428232537        2.14734691760077       -0.04968273793043
C           -1.80989250575935       -0.19918936691594       -0.04915982401125
O           -3.00858955356553       -0.38448600065676       -0.07817482098048
N           -0.94425759501443       -1.31036836161677       -0.03702858547249
C           -1.50671788615875       -2.64752908611273       -0.06170325551361
H            3.72215015992697        1.23265123408186        1.06551296656903
H            4.01427265565844        1.04816317071016       -0.67704688332196
H            2.69946577694103        2.10543172438833       -0.09450116520587
H            3.58379344636079       -1.64486556074590        0.04375642836622
H           -1.65242317836925        3.07887362063071       -0.02390566945301
H           -2.81814472157678        2.09420621784140       -0.95543675108719
H           -2.87391210825150        2.07719102197085        0.81496779239898
H           -1.19969595006345       -3.19808750066362        0.83029679219727
H           -1.17969828219644       -3.17385820539962       -0.96091942635629
H           -2.60075828585689       -2.60367716000006       -0.07620440308876
H            1.38670627180467       -2.94028446954927       -0.01052947940397
25
 energy: -43.838435118467 gnorm: 0.003370708057 xtb: 6.6.1 (8d0f1dd)
C            3.24526335352402        1.17871199462662        0.08754738294299
N            2.30782111102511        0.10623421587007        0.03493305428306
C            2.60760425462999       -1.23412531382528        0.03126419320932
N            1.42959252284137       -1.93555328329689        0.00079084239240
C            0.39974625227045       -1.06553502984797       -0.00851900039816
C            0.92214532849089        0.22450372276163        0.01474001096630
C            0.11885536872235        1.38623085657134       -0.00519245381424
O            0.49739014818426        2.56060569117298       -0.00439354576138
N           -1.26256608155485        1.04953877057934       -0.03187496519854
C           -2.21650128840009        2.14757356852124       -0.05018550760183
C           -1.81157952771244       -0.19764239645613       -0.04985091051547
O           -3.01118184452108       -0.38121376427248       -0.07738027865170
N           -0.94580380232024       -1.30963684859476       -0.03748701112758
C           -1.50656038484570       -2.64847644374037       -0.05963375652421
H            3.72465252413772        1.22498897675512        1.06949929981140
H            4.01646791162717        1.04666285619585       -0.67400669345150
H            2.70465334664249        2.10757736276652       -0.08749508848798
H            3.58573119050607       -1.64382329075655        0.04145705198043
H           -1.65921289717334        3.08202811155494       -0.02600689642162
H           -2.82244411965430        2.09239688594551       -0.95409675039295
H           -2.87375376610071        2.07574472590356        0.81575859809191
H           -1.19889579738228       -3.19791745116898        0.83266841835963
H           -1.18051609605106       -3.17657892237594       -0.95809098749114
H           -2.60009868097245       -2.60967781439297       -0.07280078392223
H            1.38630919965762       -2.93941571299768       -0.01369152694814
25
 energy: -43.838424026557 gnorm: 0.003801616674 xtb: 6.6.1 (8d0f1dd)
C            3.24451667816671        1.17820377480600        0.08520323279212
N            2.30801130343878        0.10603262872217        0.03582971858533
C            2.60848208916948       -1.23477459756946        0.03390761692550
N            1.42992032020884       -1.93626378644006        0.00404756721291
C            0.39985789837527       -1.06599584189468       -0.00649206350556
C            0.92189043081148        0.22420693114144        0.01661167039958
C            0.11985929781078        1.38586898078389       -0.00398547226770
O            0.49861596484628        2.56097676559213       -0.00379450382376
N           -1.26252136165848        1.04908640356540       -0.03133155450570
C           -2.21648200364879        2.14698680249061       -0.04959267717315
C           -1.81169855305407       -0.19741671271901       -0.05005854269314
O           -3.01137365717096       -0.38094952910736       -0.07881820639708
N           -0.94600508265718       -1.30889547085349       -0.03714308746236
C           -1.50698136249567       -2.64648838969603       -0.06152883903151
H            3.72677572704564        1.22282835128667        1.06589365140570
H            4.01213542557186        1.04477158680685       -0.67992053539505
H            2.70080702223811        2.10535959022754       -0.08796773712877
H            3.58698973510557       -1.64330830581891        0.04482384125533
H           -1.66085923940056        3.08253570722853       -0.02438271712490
H           -2.82219976408795        2.09209850029084       -0.95365399005406
H           -2.87427928283064        2.07404501271709        0.81579308598951
H           -1.19728039645582       -3.19302295739721        0.83138360453736
H           -1.17721254046733       -3.16984573419285       -0.96096150970122
H           -2.60055968486392       -2.61272218876618       -0.07617876707074
H            1.38670926157356       -2.94011605370521       -0.00973109043990
25
 energy: -43.838450571368 gnorm: 0.001722066400 xtb: 6.6.1 (8d0f1dd)
C            3.24409194962346        1.17877334926175        0.08684462781257
N            2.30785469495203        0.10597989302770        0.03518116328943
C            2.60808490307657       -1.23455854855233        0.03202774040715
N            1.43012916113347       -1.93617879355261        0.00124618880704
C            0.40009345714375       -1.06640722257710       -0.00801066480828
C            0.92179815591032        0.22401626843752        0.01545766905719
C            0.11965419077108        1.38543455190063       -0.00428980150294
O            0.49714287734650        2.56046224774624       -0.00349257428645
N           -1.26271623454474        1.04828750508998       -0.03143601932049
C           -2.21560225261083        2.14689539187286       -0.05019567093029
C           -1.81120513504286       -0.19845467166812       -0.04975784972883
O           -3.01054795818221       -0.38278440880710       -0.07752873230764
N           -0.94550627416503       -1.30966298928145       -0.03735326856525
C           -1.50754160667541       -2.64688597371770       -0.06001028306540
H            3.72330800462889        1.22535413848182        1.06882936861840
H            4.01473098422092        1.04645906352128       -0.67532165669758
H            2.70099031496527        2.10576070641411       -0.08854455363050
H            3.58636799645961       -1.64310566807789        0.04225109769018
H           -1.65756283256753        3.08106293983298       -0.02550454983568
H           -2.82113568872104        2.09270963134316       -0.95448144339847
H           -2.87359511420616        2.07578459612852        0.81526654051909
H           -1.19788857612836       -3.19367507649636        0.83285694911754
H           -1.17984802260951       -3.17203836357490       -0.95921182620821
H           -2.60129424204770       -2.60993971196914       -0.07330687897931
H            1.38731547284046       -2.94008738728509       -0.01356287672449
25
 energy: -43.838421529863 gnorm: 0.003864075039 xtb: 6.6.1 (8d0f1dd)
C            3.24634842231489        1.17830674129963        0.08579828856780
N            2.30797314187762        0.10608634114893        0.03526095426875
C            2.60647325794405       -1.23414856631677        0.03300345697366
N            1.42890775768784       -1.93499965967801        0.00337844817300
C            0.39948664111092       -1.06524023284605       -0.00723954684266
C            0.92182946266089        0.22525816970091        0.01570923756476
C            0.11942667335886        1.38689106448912       -0.00450722513883
O            0.49606347306744        2.56133090989090       -0.00374259909116
N           -1.26331918230912        1.04951557620793       -0.03144725045454
C           -2.21712724547942        2.14746973264360       -0.04941656893971
C           -1.81129351752792       -0.19778880392277       -0.04998084285192
O           -3.01050206589825       -0.38196530519710       -0.07820995075253
N           -0.94562656663797       -1.30958844622319       -0.03734212951860
C           -1.50612384701283       -2.64869003173705       -0.06116909173307
H            3.72725741521783        1.22584339846051        1.06685103628682
H            4.01691918253737        1.04539441142780       -0.67624287215149
H            2.70696827626197        2.10751815218078       -0.08959345764171
H            3.58429758681620       -1.64406595771530        0.04306311634339
H           -1.66006301758369        3.08217262756798       -0.02495838778538
H           -2.82336103054197        2.09281388372597       -0.95327545549240
H           -2.87457422657373        2.07564031264962        0.81650072491283
H           -1.19961751058775       -3.19957284979920        0.83065155453497
H           -1.17896598407165       -3.17660965454842       -0.95928314673754
H           -2.59972713785661       -2.60940020543081       -0.07596646333514
H            1.38546826679599       -2.93897014048029       -0.00988913383054
25
 energy: -43.838452054794 gnorm: 0.001458262011 xtb: 6.6.1 (8d0f1dd)
C            3.24491580552500        1.17858479315182        0.08622611838321
N            2.30797579843303        0.10577715566073        0.03535755644099
C            2.60724567666830       -1.23451962138569        0.03264756443884
N            1.42951823071999       -1.93566647718733        0.00250610594882
C            0.39970309992251       -1.06587708526711       -0.00744256093536
C            0.92183374040885        0.22456636798502        0.01583930243374
C            0.12005411360313        1.38629192442022       -0.00425594955405
O            0.49733779612394        2.56085951217509       -0.00358858866577
N           -1.26286038527520        1.04921044319858       -0.03143581305144
C           -2.21631875752948        2.14735814767628       -0.04990246044941
C           -1.81127908338415       -0.19770312586218       -0.04988775584891
O           -3.01064858828012       -0.38152427761396       -0.07810871690531
N           -0.94569211743366       -1.30950065256872       -0.03727558199248
C           -1.50658500280747       -2.64792849431483       -0.06063609001400
H            3.72579554560215        1.22512130148254        1.06738140053802
H            4.01468688836742        1.04644694296470       -0.67679195758992
H            2.70316751194191        2.10662172269378       -0.08815186704996
H            3.58541868652499       -1.64380144153577        0.04287118223427
H           -1.65933825870033        3.08213136678713       -0.02516210811522
H           -2.82204490055555        2.09264577641302       -0.95407333350770
H           -2.87413870555480        2.07543145757375        0.81568094465393
H           -1.19854476732584       -3.19703399627479        0.83159156981226
H           -1.17913703221599       -3.17454004978121       -0.95928562207520
H           -2.60019649811621       -2.61013558136840       -0.07464996453819
H            1.38624942890854       -2.93961464152394       -0.01150067926239
25
 energy: -43.828622703861 gnorm: 0.107045471714 xtb: 6.6.1 (8d0f1dd)
C            3.24794862640616        1.18190927637393        0.08536577293273
N            2.31213301253448        0.09415159238371        0.03961775470318
C            2.60453201741714       -1.21225320164913        0.03110794695262
N            1.45983627652033       -1.92800149593024        0.00332358493335
C            0.41202575650539       -1.06178740701014       -0.00730428245095
C            0.94520632127002        0.22530352929691        0.01668036542117
C            0.11454827047786        1.40007450769325       -0.00416155021175
O            0.50338159901638        2.55320011714508       -0.00308024306591
N           -1.24153763526518        1.05094495477940       -0.03189447918360
C           -2.21115837765844        2.14833827642216       -0.04997700949078
C           -1.79641123714785       -0.20276913914667       -0.05107428602517
O           -2.98639262645743       -0.38100726797813       -0.08196530881781
N           -0.94806094115724       -1.33382545747054       -0.03796615641860
C           -1.56712501106790       -2.64915563230017       -0.06053018453477
H            3.72737106920820        1.22942700524259        1.06517781981782
H            4.01861971316089        1.05352858959677       -0.67602652924696
H            2.70712791275634        2.11234032893228       -0.08785896905818
H            3.59069227028336       -1.62993947151255        0.04396549973709
H           -1.65989356655395        3.08518186174528       -0.02512379012379
H           -2.81592316821753        2.08888713318436       -0.95369779058581
H           -2.86787316226104        2.07128894558911        0.81526678504866
H           -1.23471396519241       -3.18740158198448        0.83444773643494
H           -1.22442615263584       -3.16254257902566       -0.96361823544616
H           -2.68407519442038       -2.71971268485843       -0.07610647645313
H            1.40834516043506       -2.93215953835710       -0.01080870603120
25
 energy: -43.833552733176 gnorm: 0.039360443737 xtb: 6.6.1 (8d0f1dd)
C            3.24730289409280        1.18472568609522        0.08716831510399
N            2.31145614043642        0.10210613126218        0.03729131559215
C            2.60852636916867       -1.23054702182739        0.03107323919890
N            1.43935993779230       -1.93673267632623        0.00274582463551
C            0.40119761156174       -1.06519664768783       -0.00776848695312
C            0.92875164484280        0.22382170540015        0.01469872216407
C            0.11259789613244        1.39032839558286       -0.00538635329762
O            0.50072630111823        2.56155723183218       -0.00410382629446
N           -1.25672236524536        1.04440464732158       -0.03223371498903
C           -2.21481833897384        2.14308065247842       -0.05006233222466
C           -1.81285205070327       -0.20248306509761       -0.05193031831657
O           -3.01231201934858       -0.38077949498534       -0.08170332710142
N           -0.95071325915718       -1.32161037970009       -0.03792603393337
C           -1.52376830025557       -2.65336475760424       -0.06082192223247
H            3.73094859192024        1.23268456559275        1.06728899241288
H            4.01626737689891        1.05675323910868       -0.67757405284936
H            2.70146849368557        2.11104334781176       -0.08512809501020
H            3.58952081370302       -1.65033166100062        0.04435214602548
H           -1.64831389017478        3.07143564318645       -0.02504000452912
H           -2.81912706241747        2.08963014379560       -0.95485735444662
H           -2.87093508422019        2.07207496347171        0.81651041294332
H           -1.21719556237517       -3.20447879709231        0.83325156258898
H           -1.20342985678301       -3.18108635248980       -0.96366272008245
H           -2.62561687088034       -2.62304323741484       -0.07141131110927
H            1.38185755713803       -2.93997160055166       -0.01101140845849
25
 energy: -43.835077276482 gnorm: 0.015733856895 xtb: 6.6.1 (8d0f1dd)
C            3.24992597171210        1.18929346599022        0.08624844719282
N            2.31344219814746        0.11184400859969        0.03554583817990
C            2.61817310582313       -1.22772457985662        0.03193978649654
N            1.44228392193200       -1.93552758270726        0.00344719128841
C            0.39972449767590       -1.07129106374058       -0.00689225833971
C            0.92457428459763        0.22185237571194        0.01501891322348
C            0.12090976975748        1.38490772226021       -0.00372960246068
O            0.50700139363730        2.56162990849883       -0.00230205780748
N           -1.25500517753539        1.04402830899052       -0.03131263552752
C           -2.20987797824883        2.14387152028430       -0.04992649331420
C           -1.80999931029326       -0.20051211351254       -0.05156119332021
O           -3.01117642387256       -0.37588761235446       -0.08226055660736
N           -0.95529978738832       -1.32182071498563       -0.03690531721072
C           -1.54380222565563       -2.65479711800189       -0.06083575669712
H            3.73174977180602        1.23437934139534        1.06774548321290
H            4.02068877257123        1.05609353398056       -0.67644060975225
H            2.70721164073589        2.11610958416803       -0.08867098063060
H            3.59960349495419       -1.63629038204265        0.04405584438651
H           -1.65271844386079        3.07857363259956       -0.02490876780167
H           -2.81480148253977        2.08919783124139       -0.95416270895250
H           -2.86741400117347        2.07173022426944        0.81535969442736
H           -1.23549336271851       -3.20062529696648        0.83180138450683
H           -1.22184123036456       -3.17604603619071       -0.96306256210931
H           -2.64155039802627       -2.67065020605598       -0.07383894189695
H            1.39786796628343       -2.93831809041364       -0.01059287164943
25
 energy: -43.835207309842 gnorm: 0.008957426999 xtb: 6.6.1 (8d0f1dd)
C            3.24934307642334        1.18325706167158        0.08760877409844
N            2.31243246122182        0.11021184890871        0.03560447151719
C            2.61585000649123       -1.23043510958546        0.03216907098137
N            1.43972532075313       -1.93431080298058        0.00256331952009
C            0.40155622560827       -1.07032478249255       -0.00796332901996
C            0.92427895761047        0.22361646690276        0.01478099205119
C            0.12269785844361        1.38598300521656       -0.00580151214392
O            0.50108646876230        2.56281200219003       -0.00542653797637
N           -1.25586356026495        1.04634668194422       -0.03279034169728
C           -2.21336645508165        2.14354790765380       -0.05022130653355
C           -1.80395778081899       -0.20016234179028       -0.05214685845258
O           -3.00272601002747       -0.38128833342596       -0.08195664084840
N           -0.95113396860226       -1.31902542059259       -0.03775931836902
C           -1.54384815337854       -2.65067744525221       -0.05991047659092
H            3.73143648735198        1.22558456316801        1.06855923478469
H            4.01750984702905        1.05218160940823       -0.67768104602432
H            2.70511404841531        2.10979320257057       -0.08316450604669
H            3.59415631048884       -1.64014079333842        0.04378064384737
H           -1.65784109324657        3.07922153610768       -0.02568019608650
H           -2.82060325642589        2.08913262970839       -0.95342985149856
H           -2.87092666434010        2.07138922050841        0.81560855066968
H           -1.22200517767130       -3.18895120228002        0.83282778218818
H           -1.21130476646838       -3.16618135036938       -0.96167267990786
H           -2.64610001309713       -2.67035886162425       -0.07226937287592
H            1.39866679878028       -2.93720063106565       -0.01186959674932
25
 energy: -43.835267400007 gnorm: 0.005498727140 xtb: 6.6.1 (8d0f1dd)
C            3.24708309642053        1.18596914385374        0.08526419553644
N            2.31206813366727        0.11049487786715        0.03575886576825
C            2.61557516041084       -1.23015762985598        0.03380214164922
N            1.43981911019227       -1.93393362071245        0.00441066660859
C            0.40195920631175       -1.07206086973594       -0.00658645581190
C            0.92411622111850        0.22267203920576        0.01640947716928
C            0.12414805384383        1.38436896556754       -0.00289972443659
O            0.49942331345866        2.56061408784561       -0.00145225535663
N           -1.25590960521572        1.04505417199681       -0.03097047104543
C           -2.20994691430758        2.14374913435812       -0.04972168293078
C           -1.80321929215993       -0.20204302904008       -0.05120075568922
O           -3.00197570739038       -0.38299662313020       -0.08213974040584
N           -0.95074250111717       -1.32127635190060       -0.03716898062196
C           -1.54557500620103       -2.65380903133095       -0.06145958398638
H            3.72874021230432        1.23600566148976        1.06595795681983
H            4.01751079103857        1.05652103928189       -0.67788787540501
H            2.70298790740270        2.11228399700675       -0.09000563275552
H            3.59399584746773       -1.63897374814802        0.04426323198711
H           -1.64913618398937        3.07635238933120       -0.02423141705361
H           -2.81488607504877        2.09110375235314       -0.95469692719728