25
 energy: -43.835688551245 gnorm: 0.070714194932 xtb: 6.6.1 (8d0f1dd)
C            3.35591934337585        1.15745392918505        0.09558603301902
N            2.33756135370314        0.13170672161936        0.04072703710939
C            2.60696110996523       -1.23574010978670        0.03016768077610
N            1.41438744274827       -1.92828440737233       -0.00039101256248
C            0.39345831381190       -1.02929399697878       -0.00914106260424
C            0.92889367859261        0.25285052833806        0.01544633894806
C            0.06550971783111        1.39983029434885       -0.00793362955264
O            0.46597901240272        2.57780820183678       -0.00476824519097
N           -1.27517003842133        1.04920567455299       -0.03215605591180
C           -2.24694682828177        2.13747674155618       -0.05190473859634
C           -1.83708070134136       -0.20238530765909       -0.04867518151917
O           -3.02208625773412       -0.38548296721104       -0.07112520719891
N           -0.94297958498380       -1.29425452871824       -0.03768923526828
C           -1.47722566046525       -2.63571075620373       -0.05899916552031
H            3.83966416928942        1.21351054803895        1.06250184344567
H            4.11950889014961        1.03796618374100       -0.66996568918376
H            2.83098236300747        2.06710262070668       -0.05231197461827
H            3.57035485649546       -1.66894633614987        0.04003351864773
H           -1.70170454253934        3.06537610845548       -0.02984902518880
H           -2.85755593542079        2.07942369262470       -0.95579610789350
H           -2.90797866615016        2.06479710343778        0.81359183229618
H           -1.17564649979507       -3.18199222591767        0.83474300368582
H           -1.15149193138213       -3.16652816928846       -0.95009062730745
H           -2.56607178149255       -2.54688107544888       -0.07270337629211
H            1.35711608919582       -2.93688661332813       -0.01473279154830
25
 energy: -43.837904785499 gnorm: 0.032434411336 xtb: 6.6.1 (8d0f1dd)
C            3.32388897558447        1.16256968906290        0.09600273918084
N            2.33271627835459        0.12356697902260        0.03838448769577
C            2.60910445625852       -1.23908245367874        0.03173429722192
N            1.41448115570276       -1.92544105517933        0.00024771020333
C            0.40219605035387       -1.03000816292929       -0.00918530512796
C            0.93452972895696        0.25068594840640        0.01442461158882
C            0.08576966351970        1.39751911359404       -0.00704839988368
O            0.46972949116291        2.57498876215746       -0.00506206441303
N           -1.27358866785494        1.04870015543650       -0.03233342288584
C           -2.24211284042382        2.13708977564830       -0.05187731166127
C           -1.83052387623172       -0.20022960931116       -0.04866346083511
O           -3.02613094008604       -0.38834245264184       -0.07159878977168
N           -0.93667965577377       -1.28825293791592       -0.03758952470069
C           -1.46953000438577       -2.63039600305149       -0.05807420497339
H            3.81954876733257        1.18969050790937        1.06915278442279
H            4.08494125512502        1.01922702599405       -0.67343937340617
H            2.80814962266113        2.10068149881128       -0.05892155951105
H            3.57708020192157       -1.67488688008408        0.04139217965102
H           -1.68621575361963        3.06778421743322       -0.02937993512662
H           -2.85135503016956        2.07789065729686       -0.95517783307986
H           -2.90187073687605        2.06337850166665        0.81362562746507
H           -1.16902324826050       -3.18069833888836        0.83564071419783
H           -1.14383354098348       -3.16499036771045       -0.95133775943500
H           -2.55652463344991       -2.53976613011972       -0.07234013017674
H            1.34961119374207       -2.92955658655031       -0.01401191466868
25
 energy: -43.838514356261 gnorm: 0.018572873192 xtb: 6.6.1 (8d0f1dd)
C            3.33983046321115        1.15445560377630        0.09702446932983
N            2.33847685374674        0.12327740216805        0.03832596457548
C            2.60931453578192       -1.23711394740102        0.03234593557686
N            1.41363953597085       -1.92056791020607        0.00000050821268
C            0.40462805446233       -1.02923231054577       -0.00883802631535
C            0.93863958012505        0.25442174771037        0.01486291677558
C            0.09285207260433        1.39858217778835       -0.00637971277209
O            0.45713536162447        2.57899135835901       -0.00494046579663
N           -1.28186498292342        1.04759278035564       -0.03246911089623
C           -2.25437401002450        2.13238794299523       -0.05238566235768
C           -1.83055382289791       -0.20024918019013       -0.04824894586748
O           -3.03092934031421       -0.39280241785742       -0.07121497756297
N           -0.93803954873835       -1.28627272831867       -0.03751547735684
C           -1.47632863336793       -2.62888614066930       -0.05771466785311
H            3.84494499242807        1.19565577103818        1.06991782391476
H            4.11433406929002        1.02012643163751       -0.66681864182429
H            2.83296421626522        2.10159039250873       -0.06328570267386
H            3.57750406110379       -1.67524895583359        0.03857448078386
H           -1.70255259796750        3.06895202134218       -0.02989478624693
H           -2.86330081749343        2.07341358188126       -0.95500630644526
H           -2.91394745583676        2.05905811898330        0.81264508989899
H           -1.17842022856827       -3.18321781788430        0.83525956944319
H           -1.15363006534121       -3.16781848892956       -0.95160064622055
H           -2.56352231035289       -2.54115126363856       -0.07238750390903
H            1.34755792977340       -2.92382231469079       -0.01569196244232
25
 energy: -43.838683882875 gnorm: 0.012301255165 xtb: 6.6.1 (8d0f1dd)
C            3.33363769222290        1.15283993837875        0.09603807099585
N            2.33523965058475        0.12006235116878        0.03807676574886
C            2.60603211840955       -1.23883390127852        0.03291159180453
N            1.41247248397095       -1.92523502730333        0.00063282865671
C            0.40136122153012       -1.03608395498526       -0.00889898379850
C            0.93436563665031        0.25044320973744        0.01525098325651
C            0.09732585510985        1.39591969568681       -0.00685811229424
O            0.45689491514648        2.57690115823997       -0.00522476405791
N           -1.28361186614889        1.04602011126263       -0.03298419738014
C           -2.24564334128031        2.13764176934711       -0.05209208375856
C           -1.83013888833426       -0.20037860044250       -0.04873691316931
O           -3.03014054887877       -0.39055293781749       -0.07159825786124
N           -0.94205330563612       -1.29011090153292       -0.03803428985623
C           -1.47670719143200       -2.63388427707079       -0.05797542611460
H            3.83692152665524        1.21190912040933        1.06777315352676
H            4.10913909239405        1.04271175337809       -0.67193815813416
H            2.81222069029621        2.08711404881625       -0.05708836715174
H            3.57420396882353       -1.67389588758464        0.03937027238523
H           -1.68598131957073        3.06889583057998       -0.02925273384074
H           -2.85269400782821        2.08602257701222       -0.95588029729304
H           -2.90304886371981        2.07120014866610        0.81455641352729
H           -1.17329675755296       -3.18492861927857        0.83507357700134
H           -1.14870023673694       -3.17002481137438       -0.95149958375654
H           -2.56433762057173       -2.55119534501405       -0.07304537064548
H            1.35089700845777       -2.93043559462209       -0.01401195582003
25
 energy: -43.838890111007 gnorm: 0.005981069535 xtb: 6.6.1 (8d0f1dd)
C            3.33345214388453        1.15062417665620        0.09590104360096
N            2.33408024721441        0.12257611907281        0.03780348332710
C            2.60583823983945       -1.23661664977124        0.03262796687191
N            1.41367732080027       -1.92348454107245       -0.00029108937263
C            0.40142329622871       -1.03376515679330       -0.00938411929036
C            0.93232433529486        0.25394093003454        0.01480382764396
C            0.09752612232678        1.39971300446120       -0.00708242364119
O            0.45952045968363        2.58043477460067       -0.00507213354850
N           -1.28333987719786        1.04815165540595       -0.03275158799812
C           -2.24911112013854        2.13459285588260       -0.05222094898155
C           -1.82809896161226       -0.19829608040189       -0.04836174436736
O           -3.02581688715439       -0.38942777098852       -0.07105209508143
N           -0.94020176604490       -1.28763180915467       -0.03789267634237
C           -1.47339107543063       -2.63010032025515       -0.05771463234865
H            3.83142388718984        1.19788892598752        1.06867126834320
H            4.10319648157038        1.02519639338756       -0.67298129882912
H            2.81973711633724        2.08695335505806       -0.05627814227573
H            3.57381160589744       -1.67101292162837        0.04027397069789
H           -1.69654064436143        3.06825046151853       -0.02975528641707
H           -2.85597910789133        2.07608343819313       -0.95594413177200
H           -2.90655436187753        2.06170843410302        0.81400480974874
H           -1.17004146386208       -3.17940856686872        0.83597285546193
H           -1.14562890722350       -3.16411033436128       -0.95168997128842
H           -2.56024974083161       -2.54050358966960       -0.07233693293170
H            1.35330056991945       -2.92963492901768       -0.01468584923885
25
 energy: -43.838927863851 gnorm: 0.003704195429 xtb: 6.6.1 (8d0f1dd)
C            3.33384910498297        1.15602709179021        0.09598459807749
N            2.33621418101140        0.12410769814658        0.03829485327657
C            2.60753482254046       -1.23615893075065        0.03265946222838
N            1.41474986414884       -1.92241903219702        0.00026166015433
C            0.40186110903478       -1.03416102683749       -0.00873038234930
C            0.93303470013813        0.25354206999107        0.01525738137196
C            0.09797027416358        1.39778763739473       -0.00646019600388
O            0.45919149977053        2.57846399319871       -0.00459631907915
N           -1.28419405846204        1.04625022936710       -0.03248734231565
C           -2.24797774591979        2.13471801906641       -0.05202418388803
C           -1.82918572683838       -0.20009371423560       -0.04845517469602
O           -3.02718839902691       -0.39216864223045       -0.07171698370453
N           -0.94029007706817       -1.28920973110020       -0.03760402426180
C           -1.47599851626420       -2.63192042826409       -0.05802691972785
H            3.83394338883455        1.20079783445217        1.06825665367984
H            4.10500219034357        1.02552695472842       -0.66995390811676
H            2.82417110267699        2.09617818159056       -0.06027759967766
H            3.57555149480039       -1.67250869913071        0.03905613890154
H           -1.69198423510974        3.06662141191201       -0.02932545854750
H           -2.85639313700529        2.07928115317615       -0.95516264095462
H           -2.90711108763335        2.06467144157087        0.81340491591184
H           -1.17686469660093       -3.18421508321090        0.83512004884623
H           -1.15149783448469       -3.16850560951576       -0.95151331321708
H           -2.56287698531664       -2.54241672449061       -0.07298480323932
H            1.35284667984489       -2.92807424004257       -0.01441230069840
25
 energy: -43.838946278401 gnorm: 0.002275318715 xtb: 6.6.1 (8d0f1dd)
C            3.33454397319633        1.15420289500121        0.09664117105225
N            2.33684841760954        0.12211986745688        0.03811082209243
C            2.60671240372369       -1.23818774563587        0.03230350206002
N            1.41330875842991       -1.92280746849735       -0.00034887959281
C            0.40147650438893       -1.03381472824881       -0.00929801164605
C            0.93326895055973        0.25358758534415        0.01480356052714
C            0.09903658267155        1.39820921427491       -0.00715569903485
O            0.45913437197565        2.57899549849824       -0.00563762935906
N           -1.28470927593464        1.04722996501220       -0.03287256243005
C           -2.24885634455565        2.13542245824193       -0.05232158991018
C           -1.82971835650995       -0.19873119654473       -0.04845461920521
O           -3.02809337202667       -0.39073817238428       -0.07109047193897
N           -0.94064436483108       -1.28796045185386       -0.03785593825136
C           -1.47412897397790       -2.63135138171406       -0.05768289557007
H            3.83620214604566        1.20006998454655        1.06847391527698
H            4.10590449794046        1.02952675838664       -0.67054503148038
H            2.82075469556306        2.09234433969180       -0.05738235266107
H            3.57431321263799       -1.67568073409134        0.03941343325709
H           -1.69459589230931        3.06856927544215       -0.02994966134188
H           -2.85756467544595        2.07913597030551       -0.95533907616850
H           -2.90777013902297        2.06477792638667        0.81337053380573
H           -1.17172634825357       -3.18193490023532        0.83547218523488
H           -1.14762420940600       -3.16690338939526       -0.95115505201095
H           -2.56139378137153       -2.54563095427006       -0.07199539815920
H            1.34967913146365       -2.92832876133897       -0.01494009257529
25
 energy: -43.838950925783 gnorm: 0.001624203383 xtb: 6.6.1 (8d0f1dd)
C            3.33422546691812        1.15346996508569        0.09558243094314
N            2.33631055116854        0.12224473330030        0.03814360491770
C            2.60697567734125       -1.23725932401510        0.03309661874592
N            1.41452070108400       -1.92300670665238        0.00046487677961
C            0.40180088387082       -1.03454899834834       -0.00887423449450
C            0.93275049748626        0.25345050674503        0.01520556448255
C            0.09923921904089        1.39825992851080       -0.00639600539577
O            0.45846905102116        2.57931760507813       -0.00433838020451
N           -1.28450774488461        1.04679457501783       -0.03247900554766
C           -2.24822543768054        2.13476742562261       -0.05192124268898
C           -1.82913882571779       -0.19902105741513       -0.04856513863142
O           -3.02726547464192       -0.39118140868339       -0.07161438122154
N           -0.94023785700330       -1.28838699152523       -0.03783944490719
C           -1.47514123820122       -2.63082870451265       -0.05824662924400
H            3.83407083032822        1.20176395920833        1.06795864714320
H            4.10564857485997        1.02810923973840       -0.67167683318344
H            2.81925515869929        2.08994197098944       -0.05960754014848
H            3.57515101055229       -1.67271972515956        0.04037749613627
H           -1.69393661112618        3.06774167423077       -0.02909414475564
H           -2.85588694307859        2.07820622426141       -0.95564642505192
H           -2.90682537288049        2.06339492964039        0.81396884593267
H           -1.17406164162592       -3.18163504676789        0.83526236585302
H           -1.14879576359240       -3.16611001192928       -0.95193762260202
H           -2.56223182980873       -2.54187613499794       -0.07331662525712
H            1.35219503043185       -2.92876677304328       -0.01394263562927
25
 energy: -43.838945491964 gnorm: 0.001898970746 xtb: 6.6.1 (8d0f1dd)
C            3.33422100818757        1.15418872728671        0.09726814363212
N            2.33576833667762        0.12330198383073        0.03802343209283
C            2.60642126545632       -1.23633617805695        0.03132586948652
N            1.41435514154277       -1.92248461014995       -0.00104852881455
C            0.40125982938524       -1.03432085778980       -0.00941551426669
C            0.93200116937044        0.25388365107390        0.01455403666036
C            0.09865495308140        1.39845199587763       -0.00746756671375
O            0.45830591169426        2.57942089257416       -0.00613083611104
N           -1.28490450826456        1.04672578088703       -0.03298955654273
C           -2.24803432663668        2.13530079342413       -0.05258900190065
C           -1.82959090493794       -0.19925021040851       -0.04820421641043
O           -3.02745751599446       -0.39152234123137       -0.07079203036050
N           -0.94054821759603       -1.28890296092561       -0.03755740374883
C           -1.47472060283164       -2.63199837281685       -0.05711325412319
H            3.83385635774576        1.19867134936951        1.06970430946883
H            4.10509958874552        1.02683046797608       -0.66979912944583
H            2.82271305100666        2.09295502897644       -0.05634125160098
H            3.57459951486245       -1.67172641806041        0.03778124463180
H           -1.69259142688681        3.06745869576437       -0.03056721877878
H           -2.85657846441177        2.07934576523386       -0.95575970210488
H           -2.90652740067544        2.06553807312193        0.81350208667351
H           -1.17309214473769       -3.18299429378037        0.83608720898917
H           -1.14919859853026       -3.16796178270182       -0.95063173730637
H           -2.56185254820351       -2.54415094417493       -0.07124762102838
H            1.35219844451172       -2.92830238092093       -0.01602760040694
25
 energy: -43.838948640094 gnorm: 0.001766585705 xtb: 6.6.1 (8d0f1dd)
C            3.33439678294918        1.15487246948641        0.09555613489789
N            2.33670378068768        0.12253367407501        0.03833482187282
C            2.60649499467258       -1.23774120567924        0.03329621657897
N            1.41373740727584       -1.92278677138524        0.00082025478318
C            0.40136853192650       -1.03408294018888       -0.00875639811205
C            0.93276715034181        0.25367437830815        0.01530896928659
C            0.09942949798907        1.39832763709456       -0.00656828937999
O            0.45969411988758        2.57903698071444       -0.00473469808622
N           -1.28455970891472        1.04713480212324       -0.03261590841766
C           -2.24863643083688        2.13522037104136       -0.05187034494227
C           -1.82955879710523       -0.19867247100057       -0.04870587995834
O           -3.02753443590219       -0.39086901084258       -0.07187832819117
N           -0.94046189160690       -1.28837231133981       -0.03789669614184
C           -1.47435602145840       -2.63161753085529       -0.05844010530163
H            3.83566873692967        1.20069758914306        1.06720092687235
H            4.10488705189857        1.02763693864994       -0.67174618008007
H            2.82225239640653        2.09361224087763       -0.05910269274882
H            3.57419647642956       -1.67486369087126        0.04073595528105
H           -1.69444206093070        3.06815744957818       -0.02902162869286
H           -2.85738319311341        2.07937628255193       -0.95493995248674
H           -2.90795857330463        2.06435056239837        0.81353466170265
H           -1.17301922266273       -3.18287736976361        0.83464846017168
H           -1.14797291543701       -3.16714762883882       -0.95189363361421
H           -2.56154424047979       -2.54502923788724       -0.07326490184926
H            1.35018847691898       -2.92844935301081       -0.01343660147342
25
 energy: -43.825472858181 gnorm: 0.093640337856 xtb: 6.6.1 (8d0f1dd)
C            3.47340617190253        1.13526189868557        0.10535227829574
N            2.38264975349026        0.18299063143183        0.04670723166581
C            2.59060528548254       -1.20376963322106        0.03065885919639
N            1.39511551256857       -1.91068727518731       -0.00142864493184
C            0.39299525873461       -0.99935956287467       -0.00978610442946
C            0.92825751800508        0.29285467639412        0.01586181566520
C            0.03428045728459        1.40826024039447       -0.00943214100951
O            0.41887876235482        2.59816385858633       -0.00586497801628
N           -1.30141039362663        1.03952784638740       -0.03401235674800
C           -2.27653399888333        2.12262912492045       -0.05433242362574
C           -1.85652633107795       -0.20551167863683       -0.05125737110750
O           -3.04155155561575       -0.39696963592757       -0.07288080711426
N           -0.95586438897031       -1.28006381158817       -0.03874317929401
C           -1.48095411511678       -2.62254211068327       -0.05651516029472
H            3.96522404442268        1.19129511688408        1.05332348634844
H            4.23123725925119        1.02702072898537       -0.67072068924343
H            2.96374071074081        2.05271803324996       -0.00471226031144
H            3.55543999253901       -1.69771390279038        0.03352787868296
H           -1.74057387810979        3.04750183302406       -0.03511598823697
H           -2.89015422631411        2.06292512282205       -0.95740734095294
H           -2.93876871401839        2.05051605388161        0.81080871797470
H           -1.18510444270550       -3.17184349004359        0.83986425946779
H           -1.16207527700914       -3.16400504771484       -0.94431322247700
H           -2.57330781127535       -2.53423416142143       -0.06974889192294
H            1.33460085200629       -2.92666254181504       -0.01576431673972
25
 energy: -43.831193778211 gnorm: 0.038657713274 xtb: 6.6.1 (8d0f1dd)
C            3.41111279784711        1.14191777654467        0.10457067689935
N            2.36272487510991        0.15263989199015        0.04378996078944
C            2.60147745666850       -1.21918726346652        0.03335122222183
N            1.40611873258769       -1.90585509255336       -0.00079381156175
C            0.40499070077699       -1.00217618873215       -0.00962543284742
C            0.93686945557009        0.28371028020659        0.01532300777095
C            0.06409732548145        1.41075713666842       -0.00756771244266
O            0.42974462398584        2.59487071167734       -0.00500179479661
N           -1.29263030940589        1.04760681873439       -0.03393622634004
C           -2.27072352165879        2.12706205631755       -0.05450310116958
C           -1.84247501868310       -0.20042724858012       -0.05042449665946
O           -3.03711104825559       -0.39655356885530       -0.07349493939654
N           -0.94058672606277       -1.27343426142144       -0.03839988318289
C           -1.46877508281287       -2.61699999269112       -0.05506637887594
H            3.92589897815048        1.14802630997390        1.06566903437234
H            4.16549475371140        0.99262628772265       -0.67380720333810
H            2.93083108432663        2.10188506341461       -0.02105757291714
H            3.55996095554174       -1.69345281411143        0.03523022642877
H           -1.72577379929376        3.06116079786759       -0.03446333367994
H           -2.88241128206111        2.06087947541606       -0.95666101281143
H           -2.93125181881866        2.04880050569298        0.81073208971910
H           -1.17415542356081       -3.16828409692512        0.84083566367413
H           -1.14952394174533       -3.15932680106168       -0.94607965660008
H           -2.55778473333876       -2.52642275823580       -0.06923072962468
H            1.33748741199955       -2.91152071184973       -0.01531994479038
25
 energy: -43.832481056512 gnorm: 0.022244090315 xtb: 6.6.1 (8d0f1dd)
C            3.43399567860386        1.13398418199406        0.10531414605593
N            2.36877075923639        0.14962858537093        0.04330971064148
C            2.60344559432737       -1.21917903757612        0.03341211581554
N            1.40502739048223       -1.89613362093324       -0.00080075877775
C            0.40403018146876       -0.99838946042501       -0.00948726512381
C            0.94464335294391        0.28764086460080        0.01556975267269
C            0.06933358243742        1.41304658632453       -0.00796454470435
O            0.41006114204885        2.59940446397946       -0.00655125774467
N           -1.30207891364452        1.04509317425605       -0.03485356350427
C           -2.28542700988058        2.11909898881064       -0.05525232088780
C           -1.84647705174327       -0.20354781914505       -0.05045690598228
O           -3.04474420155758       -0.40408837862690       -0.07309851905279
N           -0.94228436400480       -1.27297564064358       -0.03871098448111
C           -1.47959288584621       -2.61738467143143       -0.05446321932457
H            3.96514405381988        1.15689511713531        1.06580254040253
H            4.20726306666599        1.00335298293051       -0.66570336646854
H            2.96741725507755        2.10241471288513       -0.02161097696355
H            3.55527821379102       -1.69112780735833        0.03150438778655
H           -1.73884319173659        3.05618884325813       -0.03499555704595
H           -2.89593259864925        2.05490553617486       -0.95708914646091
H           -2.94437404001439        2.04272724550109        0.81058980454591
H           -1.18836741701107       -3.17162687931985        0.84057687677646
H           -1.16426147378099       -3.16385940091484       -0.94580894377371
H           -2.56841344292671       -2.52772900547732       -0.06924566806000
H            1.32999276595268       -2.90003724762672       -0.01591768549979
25
 energy: -43.832638797751 gnorm: 0.015047952607 xtb: 6.6.1 (8d0f1dd)
C            3.42742883236377        1.13382634466552        0.10305836063896
N            2.36509875644305        0.14716934659974        0.04353985772946
C            2.59937584019634       -1.22244295272729        0.03488907762262
N            1.40158462500096       -1.90234351976483       -0.00028722272268
C            0.39892475851318       -1.00514041499337       -0.00944278093379
C            0.94199134711792        0.28288681557037        0.01651677880982
C            0.07406165102569        1.40992760793288       -0.00738192119640
O            0.41147476941786        2.59646890367556       -0.00495773939117
N           -1.30316443315630        1.04287412857097       -0.03461306839406
C           -2.27458279123131        2.12503397119723       -0.05460059373831
C           -1.84808870422801       -0.20383133682169       -0.05077816935429
O           -3.04609752812870       -0.40047708597407       -0.07338845354498
N           -0.94683925254263       -1.27692334816480       -0.03935653628513
C           -1.47819056762653       -2.62318126246517       -0.05529644317879
H            3.95306081907828        1.18152716527186        1.06298001621143
H            4.20226574023185        1.02668486938012       -0.67202533671284
H            2.93909166966278        2.08367927293389       -0.01766170102326
H            3.55302338791983       -1.69332317313729        0.03438884887122
H           -1.71966441902776        3.05605567316743       -0.03390060835129
H           -2.88237367558492        2.06985047839626       -0.95787702520716
H           -2.93156013102778        2.05740150130862        0.81241756689612
H           -1.17878984332710       -3.17337162353590        0.83950027596571
H           -1.15506529551114       -3.16543922291525       -0.94633648601878
H           -2.56731029651945       -2.53874831230430       -0.07036049293556
H            1.32795118700006       -2.90986151212334       -0.01495755291559
25
 energy: -43.832995260690 gnorm: 0.008148974754 xtb: 6.6.1 (8d0f1dd)
C            3.42815715394193        1.13024081465910        0.10417888957879
N            2.36403897995735        0.15241858764755        0.04324286663639
C            2.59990885098930       -1.21783811519287        0.03314260918037
N            1.40412270333857       -1.90046092932438       -0.00175274598353
C            0.40035581904587       -1.00285030617864       -0.01002050614290
C            0.94063657986292        0.28748278048450        0.01559062379792
C            0.07514943477066        1.41425976855295       -0.00824192345875
O            0.41425369987769        2.60082494171189       -0.00603684137297
N           -1.30345250130873        1.04530177820404       -0.03481593990496
C           -2.28008525351166        2.12169172917404       -0.05510917818989
C           -1.84508768477964       -0.20128195883766       -0.05041471270704
O           -3.04149748824280       -0.39951156801156       -0.07271800426696
N           -0.94400828542152       -1.27394075757932       -0.03894418715826
C           -1.47533870635306       -2.61856636026130       -0.05426576153080
H            3.94842708820928        1.16257697697694        1.06521655712782
H            4.19679846368815        1.00381530779664       -0.67233529656536
H            2.94842244149289        2.08405272496980       -0.01445913696913
H            3.55624360827296       -1.68887183220432        0.03291195172159
H           -1.73634381837404        3.05778532160670       -0.03518180621884
H           -2.88849087904374        2.05852865291910       -0.95754440998530