25
 energy: -47.192588865235 gnorm: 4.448573931776 xtb: 6.6.1 (8d0f1dd)
C            3.21786164340000        1.13591514650000        0.01837059260000
N            2.27034809790000        0.05199982890000        0.00038279530000
C            2.54167221030000       -1.23971668410000       -0.00834188300000
N            1.39367826450000       -1.95088267900000       -0.00850347120000
C            0.35269634020000       -1.06748964300000        0.00059917290000
C            0.90759959010000        0.20069750900000        0.00663590170000
C            0.07590235260000        1.39864294500000       -0.00284827040000
O            0.48715076820000        2.53168346660000       -0.01725767220000
N           -1.27221500230000        1.06666939660000        0.00165480230000
C           -2.23229981500000        2.16656245330000       -0.00245172030000
C           -1.84872931540000       -0.19179276200000        0.00496135950000
O           -3.03273030250000       -0.36103538130000        0.00858583760000
N           -0.96599111670000       -1.30060631840000        0.00174701630000
C           -1.52030655580000       -2.64076660390000       -0.00239033190000
H            3.71480285180000        1.18589984860000        0.98803183970000
H            3.97079415090000        0.99383197990000       -0.75543416370000
H            2.68321036910000        2.07051068580000       -0.15067179540000
H            3.52469367910000       -1.66989040330000       -0.01523639120000
H           -1.67672429040000        3.10039111610000        0.00486339690000
H           -2.85755792270000        2.10547813320000       -0.89185337000000
H           -2.87119733260000        2.09858159720000        0.87661144540000
H           -1.20589108080000       -3.18768007210000        0.88663215920000
H           -1.21982032550000       -3.17678505510000       -0.90288069810000
H           -2.60531402170000       -2.54255916880000        0.00649952960000
H            1.32879827740000       -2.95942079410000       -0.01653446370000
25
 energy: -52.450218163191 gnorm: 6.257768142133 xtb: 6.6.1 (8d0f1dd)
C            3.21788472196322        1.13559938462228        0.01839400941125
N            2.26914236983640        0.04967331137302        0.00030617271221
C            2.51651061964967       -1.25383723104999       -0.00952051768257
N            1.10325222753506       -2.08495188590179       -0.12300444287727
C            0.33645888861156       -1.06854788850944       -0.00081104381573
C            0.90831359425029        0.19951018387144        0.00654486386951
C            0.07606871368364        1.39863202086303       -0.00279251731991
O            0.48715087507903        2.53168870278382       -0.01730091101728
N           -1.27221104703824        1.06669038476528        0.00166024747860
C           -2.23230816165292        2.16655230177507       -0.00244372651297
C           -1.84894013088025       -0.19155426631289        0.00498899598886
O           -3.03277090305537       -0.36103133209135        0.00863824735575
N           -0.96858477391195       -1.29802658352860        0.00335995797999
C           -1.51763092540098       -2.63694426076339        0.00247390672431
H            3.71481431351361        1.18592405987045        0.98795274460048
H            3.97077395069491        0.99383224765981       -0.75551467915023
H            2.68320515569005        2.07049725988311       -0.15074723279696
H            3.52316206112544       -1.67030262827849       -0.01508875834622
H           -1.67673960616500        3.10038349155178        0.00484778819132
H           -2.85758537606254        2.10544884293065       -0.89183271135295
H           -2.87119339442057        2.09857882979118        0.87663219039927
H           -1.20599222940644       -3.18732427116551        0.88712607054382
H           -0.87455768590505       -3.01725143342819       -0.78965806734105
H           -2.60529984001693       -2.54357409212152        0.00480925260351
H            1.31750809638336       -2.97142660698976       -0.01784822174574
25
 energy: -59.606648096401 gnorm: 8.247522258634 xtb: 6.6.1 (8d0f1dd)
C            3.21772628743425        1.13501071153968        0.01836439797599
N            2.26727080416392        0.04590430542045        0.00021920589424
C            2.49393624250189       -1.26681658166142       -0.01128257544423
N            0.81015792122260       -2.21855148220470       -0.23769780584544
C            0.31945154683723       -1.06826574365504       -0.00190463154761
C            0.90902731955587        0.19896795023553        0.00649455098571
C            0.07618519149031        1.39839155632030       -0.00273981759410
O            0.48721286420395        2.53170548073114       -0.01736906920534
N           -1.27231074269091        1.06674138626400        0.00164249435977
C           -2.23233067924258        2.16655764636990       -0.00243582897571
C           -1.84929048246287       -0.19119147751270        0.00518989598404
O           -3.03301273540370       -0.36098831749415        0.00874691786064
N           -0.97251705844084       -1.29365441446931        0.00563634355206
C           -1.51399872734668       -2.63344445774909        0.00654073316758
H            3.71483650999127        1.18593256684034        0.98782639971190
H            3.97075431138130        0.99379073746286       -0.75564438211970
H            2.68310919358849        2.07045235890495       -0.15086215739114
H            3.52115813216558       -1.67077924034344       -0.01510705821635
H           -1.67676384656974        3.10037475206887        0.00482677749955
H           -2.85762805129845        2.10541081256084       -0.89179433780913
H           -2.87118149370842        2.09857993002847        0.87667114503893
H           -1.20623636854993       -3.18691929293917        0.88812892403268
H           -0.52935381850894       -2.85718712619817       -0.67692054046995
H           -2.60482267928801       -2.54482483502356        0.00263886812020
H            1.30905187307444       -2.98695868389658       -0.01799683166456
25
 energy: -68.725435417545 gnorm: 9.763675229899 xtb: 6.6.1 (8d0f1dd)
C            3.21755667768077        1.13456423805997        0.01814523814201
N            2.26585629736805        0.04213053775056       -0.00002079140914
C            2.47753303084545       -1.27630713463066       -0.01268037498052
N            0.51136060817323       -2.36038553854523       -0.35011773430365
C            0.30559747087154       -1.06798332204106       -0.00240834741809
C            0.90936975266302        0.19845355896667        0.00645068458359
C            0.07633546860678        1.39800360297228       -0.00275064271153
O            0.48722094936470        2.53173705011688       -0.01754374188157
N           -1.27256544613123        1.06675026178401        0.00161326434032
C           -2.23239773377476        2.16651750849549       -0.00244083280050
C           -1.84969922266616       -0.19068482618828        0.00551124867492
O           -3.03347321662293       -0.36101595225781        0.00896088642831
N           -0.97803648435001       -1.28848191150753        0.00835010278678
C           -1.50960621047621       -2.63018892803362        0.00947344763513
H            3.71485251546626        1.18603620945845        0.98754347358238
H            3.97069152161983        0.99379626837557       -0.75593936753446
H            2.68293496788094        2.07044058454840       -0.15113934916360
H            3.51950169222585       -1.67098905969698       -0.01533553876716
H           -1.67685302509140        3.10033058141544        0.00474523730680
H           -2.85774734413830        2.10527907881792       -0.89174484717407
H           -2.87118970017653        2.09855077071098        0.87672487993974
H           -1.20639325511392       -3.18662539339397        0.88918581706021
H           -0.18955565183579       -2.69805408835508       -0.56666485306960
H           -2.60423368083185       -2.54599241187968        0.00070299917302
H            1.30337153254266       -2.99764314334272       -0.01744924053929
25
 energy: -38.586617012316 gnorm: 505.414976633916 xtb: 6.6.1 (8d0f1dd)
C            3.21733802673875        1.13443720409645        0.01741294540400
N            2.26612724391299        0.03882515744155       -0.00053762124309
C            2.46492712774234       -1.28310867347403       -0.01323459632637
N            0.21075319801208       -2.50820685187920       -0.45571138616740
C            0.29539041929542       -1.06949940467544       -0.00357221594133
C            0.90895812891836        0.19696670921987        0.00626137046520
C            0.07652829705545        1.39759315087795       -0.00280799713010
O            0.48707944500481        2.53170172332585       -0.01801273733631
N           -1.27299416676218        1.06663126805508        0.00163563821105
C           -2.23251993226839        2.16639254027877       -0.00239544995447
C           -1.85033552297935       -0.19004361373546        0.00587967393792
O           -3.03412913965473       -0.36107012748982        0.00955142065148
N           -0.98470930084948       -1.28467948932592        0.01096687831256
C           -1.50920283650951       -2.62570782131859        0.01423123875563
H            3.71492886917400        1.18632406693623        0.98674442069221
H            3.97051190519171        0.99386085057829       -0.75674051729015
H            2.68275738978185        2.07049280465804       -0.15189993170583
H            3.51845706366369       -1.67064256815270       -0.01577655271055
H           -1.67702902138052        3.10023637838277        0.00457075321237
H           -2.85803367211077        2.10498104353059       -0.89157301477735
H           -2.87117411716352        2.09851411678101        0.87690417386486
H           -1.20602751548692       -3.18662404326702        0.88992752074151
H            0.15035394073906       -2.53834636599846       -0.46200101349660
H           -2.60398834055579       -2.54689973029298       -0.00019378289569
H            1.29646402459065       -3.00388978295283       -0.01845759937353
