72
 energy: 0.000000000000 xtb: 6.6.1 (8d0f1dd)
N           -1.47310934822924        2.74401318561852        2.22063942287560
C           -1.55658894218425        2.16490305624665        1.13274284460745
C           -2.74549225258129        2.05621251263064        0.23826250649470
C           -3.31377583855761        0.64333417511334        0.32332515650284
C           -4.30230195924506        0.24487112428158       -0.58026167086503
C           -4.85238808050968       -1.02286499940159       -0.53363593669082
O           -5.81420026757557       -1.48606047972767       -1.36157895357670
C           -6.39655692584623       -0.60827005826649       -2.29568495601309
C           -4.39972542350640       -1.94646120241305        0.44396933240983
O           -4.98748357557592       -3.16146026488900        0.41085995818162
C           -4.66362171172287       -4.10093865802695        1.40909140816864
C           -3.42072545213514       -1.54561399150247        1.33436558640148
C           -2.88302826362110       -0.26315802838497        1.27400162590187
C           -2.19303818453636        2.30467021687947       -1.18742988123374
C           -1.26651549989641        1.17243380322503       -1.65249445018642
C            0.01082525039567        1.09745464658138       -0.89354811789923
N            0.61779399208289       -0.02034948241203       -0.57705527866251
C            2.00145228921113       -0.02376006609561       -0.15611401051620
C            2.92554961797610       -0.53865287672537       -1.27700100652360
C            4.35756883501756       -0.43050761225877       -0.83075552032494
C            5.07346182539911        0.73206415878124       -1.03980975472950
C            6.38628045899965        0.84224449235903       -0.60344828301384
C            7.00047329721665       -0.20824758267940        0.05722314949100
O            8.26703733840855       -0.21011315050632        0.52410948507466
C            9.06912311989339        0.92943609656965        0.31863060963839
C            6.27040022445068       -1.40439766990411        0.28033468609137
O            6.94830004375713       -2.38012947787858        0.92752007684741
C            6.31537376337817       -3.61583233633369        1.15217722400438
C            4.96302840674480       -1.49347485723979       -0.16064431849589
C           -0.05511211878686       -1.29906259857679       -0.62085692079872
C           -3.86758072907722        3.07992629005348        0.58498065642721
C           -4.49286201346546        2.77383518785172        1.94313307512182
C           -3.39165211343248        4.52917708609625        0.54797528556046
H           -4.66030069703099        0.94509076131725       -1.31640581036773
H           -6.85037992114187        0.25803164586058       -1.80468862056629
H           -7.17287509152171       -1.18600121846629       -2.79318183475679
H           -5.66836870040540       -0.26952968819383       -3.04040283452035
H           -4.88416765986127       -3.71589494995018        2.40913564538747
H           -5.29223619720187       -4.96637504833431        1.20969248126828
H           -3.61139846644506       -4.39919876145526        1.35529370415983
H           -3.07077825100221       -2.21868786295666        2.10002682176568
H           -2.14562774333496        0.02067850888151        2.01001363031684
H           -3.02188903413801        2.38238034416975       -1.88813562572432
H           -1.65198546223364        3.25146730843841       -1.20556295755141
H           -1.81103391047759        0.23006526775522       -1.62116316669324
H           -0.99335697743926        1.37490224954061       -2.69443281971844
H           -0.67628070635666        1.65183902374723        0.61785732877701
H            0.63525847086258        1.98466388206871       -0.92314029755375
H            2.11132572081740       -0.65949698961381        0.72532619960637
H            2.30680494458141        0.98978260887088        0.11078973822125
H            2.76694224489122        0.06750735773687       -2.17075272340394
H            2.67954606229959       -1.57455642411728       -1.51167757545099
H            4.62170041431221        1.56295626549351       -1.56123593485311
H            6.92357738865082        1.75715832247601       -0.79119604059515
H            8.65159193263071        1.81001840117181        0.81701562739969
H            9.20136256512460        1.14042868409438       -0.74698998879646
H           10.03428931104811        0.69003246578081        0.76064945022918
H            7.05567240429544       -4.23621211097668        1.65347581279537
H            5.43848051513375       -3.50813590722545        1.79970582482858
H            6.02060097762632       -4.09420535105165        0.21253284608183
H            4.40102799328555       -2.40127288651695       -0.00490198294521
H           -0.22071301762289       -1.61775598610935       -1.65116024301020
H           -1.01972267469312       -1.24102728946113       -0.10935207845464
H            0.55899959333766       -2.04486104898380       -0.12333731565713
H           -4.63991918782192        2.95501120214274       -0.18098089750912
H           -3.76095251366987        2.90314731895452        2.73380846416528
H           -4.87457659255110        1.75695657819473        1.97884621460846
H           -5.31925601899505        3.45579242388173        2.12325583951056
H           -2.60025614255587        4.69225089676674        1.27368930043085
H           -3.03987434616939        4.81897697030947       -0.43870979129779
H           -4.22191779840287        5.18069696155015        0.80616701440619
H           -0.59832439338922        2.77744720721660        2.72959009765665
72
 energy: -5.472826039163 xtb: 6.6.1 (8d0f1dd)
N           -1.49038203772647        2.77828818924675        2.23996390670631
C           -1.56290120917222        2.15313543731169        1.15815028628358
C           -2.74654143661151        2.05987342712347        0.24622122821976
C           -3.31865095250517        0.64980189573448        0.32810948317555
C           -4.30458208748823        0.24683759332199       -0.57562546711755
C           -4.85096886961470       -1.02212810057839       -0.53173197234132
O           -5.81727780686958       -1.48927356472753       -1.36332140457514
C           -6.39531190428420       -0.60959543420173       -2.29613181744607
C           -4.39980693035390       -1.94379966711541        0.44379973263583
O           -4.99078278255426       -3.16530514716219        0.41019212775408
C           -4.66345808359048       -4.10045692665434        1.40891057703592
C           -3.42453878891625       -1.54132114059979        1.33607734113313
C           -2.89012348961289       -0.25761661665512        1.27806445592331
C           -2.19523623283410        2.29943798748316       -1.18422755518858
C           -1.26162774515261        1.18351037344877       -1.67797538218532
C            0.00994782047310        1.12136490551444       -0.90022435489103
N            0.63140536344282       -0.04043140720904       -0.56592587098021
C            2.00701978772521       -0.03755654987241       -0.15840731105206
C            2.93535946864750       -0.54254617912587       -1.28072519177766
C            4.36347720633107       -0.43500111901632       -0.84280944669512
C            5.07771310592842        0.73068383797425       -1.04435435789035
C            6.38748567919904        0.84240452196673       -0.60192773442776
C            7.00063331749762       -0.20852010318513        0.05883452903291
O            8.27498671573781       -0.21153770633591        0.52803348287250
C            9.07027726161059        0.92949644371304        0.31978862045085
C            6.27181553989121       -1.40255409099883        0.28090547449515
O            6.95249907892407       -2.38232707335145        0.93136595352388
C            6.31523812106004       -3.61513905191234        1.15278324413703
C            4.96794617155779       -1.49464825972625       -0.16540259635848
C           -0.05017422492531       -1.30738400479358       -0.61838609875483
C           -3.87312419503928        3.07838870273295        0.58192102823060
C           -4.49640375245641        2.77645001522423        1.94239262855187
C           -3.39366405728931        4.52711816739236        0.54892435247177
H           -4.65746809865770        0.94454021814886       -1.31690497655485
H           -6.84770452978769        0.25801753825846       -1.80507375297198
H           -7.17231229889051       -1.18588598427736       -2.79547080284760
H           -5.66563012027683       -0.26963064313327       -3.03894276537280
H           -4.88284085213570       -3.71403288953083        2.40932281069576
H           -5.29090928216897       -4.96784720045845        1.21161772656239
H           -3.61033257601528       -4.39647078362650        1.35598011439975
H           -3.07000067956837       -2.21733033057908        2.09814667577339
H           -2.14563736918377        0.02480276794313        2.00629265381657
H           -3.02700327109084        2.38544735051694       -1.88406041094684
H           -1.65089876562636        3.24468004953014       -1.20083703410597
H           -1.79931908155917        0.23739272965780       -1.62998724650539
H           -1.02178482120283        1.38361721082542       -2.73189482169949
H           -0.68593398151968        1.64700122868923        0.65552325718847
H            0.64834960231879        1.99314502181063       -0.96306742062042
H            2.12332757023977       -0.66795962663591        0.72757575736184
H            2.30029582910103        0.98088777234871        0.10645403303926
H            2.76534927075208        0.06709154750963       -2.16972721661866
H            2.68262256566039       -1.57698236119499       -1.51439687340303
H            4.62280194066981        1.56247199120564       -1.56146041865329
H            6.92497616449580        1.75830608794363       -0.78790737649037
H            8.65008608928373        1.81020113852519        0.81677321580933
H            9.20005723010573        1.14101525747609       -0.74665674077605
H           10.03684393400784        0.69331778595797        0.76113835606487
H            7.05359760828796       -4.23821734944842        1.65459168681543
H            5.43664087995850       -3.50650206379216        1.79802676319818
H            6.01907142425940       -4.09201232882315        0.21236475877876
H            4.40288358515191       -2.40022154622129       -0.00621955412437
H           -0.22100135352914       -1.62509711731866       -1.65168571107539
H           -1.01591449169217       -1.24175211140997       -0.10898296731341
H            0.55828760231344       -2.05677572040538       -0.11939378527126
H           -4.64800819341006        2.95950545086042       -0.18404153960847
H           -3.75580514493120        2.90212024102559        2.72598922669680
H           -4.87521251523630        1.75804961262339        1.97777330188445
H           -5.32296772535134        3.45901008421918        2.12722741853273
H           -2.59875253446735        4.68057696210112        1.27292015985901
H           -3.03748594163295        4.81316487492320       -0.43754629352190
H           -4.22154216097296        5.18371026226119        0.80766611811679
H           -0.60907476184661        2.77828728960010        2.74409831539508
72
 energy: -6.630447822514 xtb: 6.6.1 (8d0f1dd)
N           -1.53766978136516        2.84938068344000        2.26649969739121
C           -1.58038672288656        2.15016486978279        1.20770173634390
C           -2.75007395160909        2.06415715103803        0.26129033645422
C           -3.32964384673015        0.65870148197569        0.33731546197551
C           -4.31134973645207        0.25029114393203       -0.56765683310717
C           -4.85237464447364       -1.02047123093126       -0.52692215171236
O           -5.82132360855789       -1.49388733873382       -1.36575480513290
C           -6.39041791187544       -0.61185219548223       -2.29818609843070
C           -4.40397426407305       -1.93906054383999        0.44639253938986
O           -4.99610404633932       -3.17013512664834        0.41065526990905
C           -4.66149322124439       -4.09802319856470        1.40999722691906
C           -3.43438928652257       -1.53428324412220        1.34249335102164
C           -2.90630525778213       -0.24896972404734        1.28839118057619
C           -2.19533207404462        2.29625092648449       -1.17369262321549
C           -1.25490551303450        1.19786254734732       -1.71029025821680
C            0.01876013164120        1.14739286780318       -0.92479932584475
N            0.64563932125764       -0.06054371416645       -0.56056053540643
C            2.01500712064067       -0.05779732618232       -0.16897379420600
C            2.95269787687554       -0.55214929635491       -1.29230488763647
C            4.37792374960612       -0.44409656474220       -0.86400938979614
C            5.09048913662487        0.72483799010584       -1.05479561530386
C            6.39566667529193        0.84083701895549       -0.59932654843475
C            7.00633751996046       -0.20987523340094        0.06217065338430
O            8.28877875806574       -0.21243940832040        0.53622508253679
C            9.07303063059229        0.93170870312057        0.32334304895675
C            6.28009486284072       -1.40130229223421        0.28027097881535
O            6.96010477990132       -2.38552052286173        0.93940453427574
C            6.31329166504452       -3.61286908450566        1.15443303118265
C            4.98138126945894       -1.49834537514649       -0.17841374731136
C           -0.04583549327159       -1.31605149344198       -0.61799128603330
C           -3.88380021080497        3.07725872504284        0.57647181261117
C           -4.50550961964493        2.78070693192515        1.93952294453918
C           -3.39551910201616        4.52296943620054        0.54915475956386
H           -4.65331835354938        0.94367225441099       -1.31851836915815
H           -6.84096903961378        0.25780595971535       -1.80774403275748
H           -7.16797703151910       -1.18422890457228       -2.80271841454192
H           -5.65631166017574       -0.27083888617124       -3.03636985895106
H           -4.87948598192760       -3.70931856644487        2.41066172944350
H           -5.28475134401809       -4.97054735053252        1.21816060267348
H           -3.60641078304285       -4.38854402856077        1.35799282330202
H           -3.07019822936474       -2.21435108457324        2.09703781306824
H           -2.15131079977394        0.03346995974618        2.00493663352959
H           -3.03707590883416        2.39730246554027       -1.86447909028072
H           -1.64721733496786        3.23937199748296       -1.18498281779638
H           -1.77544700565387        0.24320644885693       -1.65056047176404
H           -1.08145179790293        1.40719770947524       -2.78493592867037
H           -0.71077358696240        1.61252521344882        0.75809275922195
H            0.69108269362668        1.98821797669891       -1.06221393554081
H            2.15197609669937       -0.68651374899743        0.72080001923686
H            2.29544527120760        0.96374054906462        0.09744252896221
H            2.76577492622343        0.06410609536673       -2.17317186111471
H            2.69415283042005       -1.58513047257772       -1.52882084572737
H            4.63035296118417        1.55826113846246       -1.56478492144861
H            6.93038954575719        1.76095151002836       -0.77612633766538
H            8.64718921422843        1.81199698071867        0.81744222781615
H            9.19813282856268        1.14310583497089       -0.74449456727685
H           10.04325879472807        0.70482973980372        0.76276935972622
H            7.04494769687625       -4.24327842229313        1.65814778516276
H            5.43099321854449       -3.50088533055991        1.79434112214206
H            6.01620252345776       -4.08580269952609        0.21174303004198
H            4.41068479299658       -2.39949061411285       -0.01387473005511
H           -0.22178373462070       -1.64445938776990       -1.65117020579045
H           -1.01244002277393       -1.24405069299190       -0.11146739270712
H            0.55198494649139       -2.07356648459583       -0.11295645699191
H           -4.66074867728172        2.96625541012032       -0.19086340631123
H           -3.74807373609050        2.90087253399545        2.70809610347816
H           -4.88336408144717        1.76164129363641        1.97691196040838
H           -5.32859041113825        3.46615196031806        2.13568667589001
H           -2.59564402968108        4.65230140964261        1.27230890300722
H           -3.03091059589848        4.80183186369778       -0.43632772759814
H           -4.21519266434433        5.19063978534713        0.81058061796820
H           -0.65401793861363        2.78599479237704        2.77785946347071
72
 energy: 2.910045976944 xtb: 6.6.1 (8d0f1dd)
N           -1.63410320607594        2.96119841958957        2.31524092097713
C           -1.61750930238499        2.15549823716622        1.29528814485328
C           -2.75889522676925        2.07029810642368        0.28830631846970
C           -3.34857946740416        0.67136427437262        0.35318378133858
C           -4.32356926731750        0.25600871869496       -0.55479599540420
C           -4.85787469000271       -1.01715077793077       -0.51712168875905
O           -5.82704165050454       -1.50041898071750       -1.36902114737941
C           -6.37889213363919       -0.61535224249343       -2.30350362208542
C           -4.41476218789248       -1.93088720702820        0.45423786707060
O           -5.00514030083731       -3.17658609066626        0.41423136551643
C           -4.65628137783010       -4.09223214544109        1.41455440213976
C           -3.45383978547644       -1.52316217478447        1.35702881145910
C           -2.93554156627565       -0.23584477600249        1.30847068343505
C           -2.19337682819379        2.29585486111032       -1.14960139605541
C           -1.24871674489881        1.22036175481488       -1.75642170131083
C            0.04022527089965        1.18221010018803       -0.98365811454823
N            0.66703982186268       -0.09092846983097       -0.56510168918305
C            2.03080344892710       -0.09201854401385       -0.19499245578119
C            2.98407333472926       -0.57073527017091       -1.32052247196413
C            4.40596520685362       -0.46035977644240       -0.90109657937361
C            5.11715961325223        0.71318969595546       -1.07454743346012
C            6.41423466635957        0.83690592749650       -0.59556730720965
C            7.02108466577200       -0.21335648576025        0.06783976344735
O            8.31314586607635       -0.21202862727981        0.55235831459953
C            9.07881881152802        0.93830202732717        0.33139080908519
C            6.29874979116912       -1.40173539485961        0.27745630518666
O            6.97296584858877       -2.39129129387212        0.95426239986931
C            6.30777640692299       -3.60850781739925        1.15820224134496
C            5.00853415632241       -1.50685498436428       -0.20393911286327
C           -0.04124152421569       -1.33038997815570       -0.62048346241747
C           -3.90393888336992        3.07696533145171        0.56781250329849
C           -4.52528209382625        2.78891084234938        1.93381294526475
C           -3.39671088244538        4.51578370656979        0.54827077419786
H           -4.64706652280361        0.94243866562947       -1.32117423306308
H           -6.82736145304361        0.25782585631852       -1.81561832606820
H           -7.15628717037380       -1.18031588605422       -2.81878593859386
H           -5.63501909195808       -0.27430989855944       -3.03243551865555
H           -4.87255878111100       -3.69974402442178        2.41528128337369
H           -5.27010025000380       -4.97503807208582        1.23318752869256
H           -3.59736833426993       -4.37134236088291        1.36299305029361
H           -3.07434933983050       -2.20848998845565        2.09986973106883
H           -2.16899031959721        0.04934576619691        2.01077993296860
H           -3.05239959342538        2.42409298326389       -1.82202786491880
H           -1.63728376347116        3.23415840976069       -1.14880326061767
H           -1.73722957339189        0.24958288679043       -1.68833429684810
H           -1.18639147108528        1.45562556616626       -2.86038461972981
H           -0.75947122280977        1.54074271682644        0.96316627353479
H            0.77437064172888        1.96392107005287       -1.25472557483656
H            2.20215804020257       -0.72250314396566        0.69705807121019
H            2.29535407420284        0.93174491921357        0.07774162247712
H            2.77373047729455        0.05602789450990       -2.18887522523339
H            2.72104873222816       -1.60220246562025       -1.56397654519521
H            4.65045127672008        1.54859755153568       -1.57544223478441
H            6.94216016105040        1.76586643175790       -0.75188784877428
H            8.64235261606202        1.81734048810253        0.82024890650045
H            9.19577291344060        1.14815962683850       -0.73889053298198
H           10.05597432565019        0.73029319375156        0.76719280386279
H            7.02475364027891       -4.25334924081075        1.66682593163495
H            5.41841358545247       -3.48810647135228        1.78753458672312
H            6.01084220712562       -4.07361054856823        0.21076792896062
H            4.42968538839956       -2.40158672826594       -0.03349920818862
H           -0.22253565982889       -1.68348756649943       -1.65022693092333
H           -1.00958997749765       -1.24657267059072       -0.11941280490820
H            0.53809782596487       -2.09901678786130       -0.10079642928521
H           -4.68075036482089        2.97586476202680       -0.20414835663047
H           -3.74104699058531        2.89965607607811        2.67757914467772
H           -4.90630423149702        1.77078262374849        1.97550362147597
H           -5.33896889075556        3.48169329533006        2.14938429096316
H           -2.59000484322554        4.60134209319319        1.27139952802343
H           -3.01781964105265        4.78254758298191       -0.43517978194730
H           -4.19909365857202        5.20428892289977        0.81480285127685
H           -0.75455575381355        2.81401727679712        2.84422080316693
72
 energy: 16.715188986624 xtb: 6.6.1 (8d0f1dd)
N           -1.72371458372163        3.01924018938512        2.37487800905642
C           -1.65650169452482        2.16778959437433        1.37129800894829
C           -2.76874984072780        2.07483521118929        0.31402351389701
C           -3.36483300088146        0.68020885581076        0.36861906457684
C           -4.33284037559363        0.26020218892065       -0.54432026182292
C           -4.86391725885276       -1.01428700926547       -0.50808294119839
O           -5.83079402130831       -1.50436106203169       -1.37046578167333
C           -6.36651993282733       -0.61784039698716       -2.30984379111884
C           -4.42603912902589       -1.92451860339694        0.46368570072259
O           -5.01300241036069       -3.18032691239694        0.42078369900223
C           -4.65058675508425       -4.08617722564386        1.42215095573598
C           -3.47236136072780       -1.51464118961822        1.37238889307397
C           -2.96158638593790       -0.22585162023152        1.32861310504425
C           -2.19028858888868        2.29747017072833       -1.12408763218833
C           -1.24748348204247        1.24058138932818       -1.79364395110220
C            0.06331544538899        1.20668939809892       -1.04808953696665
N            0.68839812549122       -0.11681438398225       -0.58545779622379
C            2.04857320594397       -0.12234415810825       -0.22642403311604
C            3.01421733677797       -0.58851349692186       -1.35266074472896
C            4.43317828822722       -0.47511379673546       -0.93459410456623
C            5.14321237810374        0.70258012321546       -1.09283393491633
C            6.43248601531435        0.83280544729066       -0.59300913467656
C            7.03688375991132       -0.21683443733049        0.07300338822781
O            8.33413991201481       -0.20984286423073        0.56769603534356
C            9.08486125221295        0.94643953462966        0.33988061177467
C            6.31695620810603       -1.40424104180548        0.27421718872117
O            6.98337123518646       -2.39680837846385        0.96691917507060
C            6.30123595926476       -3.60489588680713        1.16267921603362
C            5.03446089960745       -1.51591934112069       -0.22739489047660
C           -0.03774626994061       -1.34340837061230       -0.62558001682496
C           -3.92270646424697        3.07836479285774        0.56201410685313
C           -4.54729138501715        2.79829941560170        1.92860416405076
C           -3.39676382886285        4.51042564244293        0.54588330343055
H           -4.64204322190318        0.94127461808603       -1.32228530328582
H           -6.81426329841588        0.25860471866610       -1.82610502972308
H           -7.14239550986626       -1.17704498295451       -2.83507313246571
H           -5.61239227256463       -0.27889373297189       -3.02978792585212
H           -4.86583686427894       -3.69051060942416        2.42255463205983
H           -5.25484456223400       -4.97828068876782        1.24966757878590
H           -3.58808921817784       -4.35361384402611        1.36958038579999
H           -3.08305700339544       -2.20261577302299        2.10796278770336
H           -2.19184771334058        0.06218620696931        2.02500765429995
H           -3.06057677047189        2.45064217202236       -1.78231750226703
H           -1.62541684594437        3.23043620754809       -1.11095505019349
H           -1.71075296840289        0.25723411863387       -1.72191152610970
H           -1.26864987916300        1.49899356521849       -2.91354972863320
H           -0.80949838617134        1.48621885045091        1.14621272907652
H            0.84149527708677        1.93361972145358       -1.42464824523356
H            2.23989072771946       -0.75588465594582        0.66523294386054
H            2.30297516219330        0.90197038470287        0.05361445730060
H            2.78968459639083        0.04582249908046       -2.21207249505733
H            2.75045707927848       -1.61905332115293       -1.60229145289658
H            4.67374293078362        1.53892303432153       -1.58942597480151
H            6.95411996461452        1.76933026988666       -0.73059633984047
H            8.63878616240429        1.82399272037381        0.82410714480519
H            9.19521006579707        1.15377893867597       -0.73240201914341
H           10.06752429766548        0.75531190001278        0.77299800385708
H            7.00367370688265       -4.26220065379602        1.67734349573774
H            5.40546669273189       -3.47456750130188        1.78187165477639
H            6.00583283640632       -4.06354241308315        0.21115534085983
H            4.45093499066814       -2.40718232799009       -0.05570049228028
H           -0.22321858701595       -1.72082990251128       -1.65001341853390
H           -1.00766783013723       -1.24399584257769       -0.12932192388940
H            0.52562156128394       -2.11719423931368       -0.08936985231365
H           -4.69608009414335        2.98264451918138       -0.21605130924662
H           -3.74601397666485        2.90019366062199        2.65589135961354
H           -4.93420256292893        1.78226953769883        1.97313428207508
H           -5.35119955105787        3.49930863162425        2.15739861318158
H           -2.58616604156311        4.56289086544057        1.26892361957945
H           -3.00630907921037        4.76695725005930       -0.43589420587213
H           -4.18320925229822        5.21725811337921        0.81584565438735
H           -0.85134901865391        2.85164797862150        2.91290753437598
72
 energy: 29.192480624837 xtb: 6.6.1 (8d0f1dd)
N           -1.80644440523124        3.04410580962013        2.44221326871391
C           -1.69857874986381        2.17742899722557        1.44409866332287
C           -2.77920897783410        2.07723539983317        0.34070339299398
C           -3.37979675663534        0.68586560179693        0.38519030948800
C           -4.33975123757885        0.26303125188680       -0.53501460973399
C           -4.87003971077008       -1.01198904099098       -0.49941485323469
O           -5.83314608945208       -1.50630816345233       -1.37035955761983
C           -6.35295451986634       -0.61970728151546       -2.31714113999141
C           -4.43787592396014       -1.91972480330055        0.47457717716057
O           -5.02057142401999       -3.18229110639815        0.43029206311439
C           -4.64462022363622       -4.07978944298771        1.43278537551405
C           -3.49104103441805       -1.50842652922883        1.38921649620010
C           -2.98642895582667       -0.21865862895344        1.35025125268551
C           -2.18537104665141        2.30048624469140       -1.09648570519650
C           -1.25016030981727        1.25922226522832       -1.82483789277363
C            0.08796077577261        1.22354977924691       -1.12020730023672
N            0.71160223002893       -0.14093641642402       -0.62172970226501
C            2.06856247140270       -0.15026358171419       -0.26419038094887
C            3.04518743513259       -0.60652355116665       -1.38923072898975
C            4.46086708742934       -0.48907227073530       -0.96598093705809