25
 energy: 0.000000000000 xtb: 6.6.1 (8d0f1dd)
C            3.23720163006194        1.16630919979326        0.08434469647475
N            2.29877817382611        0.07527477071623        0.03981603040599
C            2.58028210190900       -1.21425402444508        0.03006176031096
N            1.43813958087363       -1.93419271955128        0.00098261760884
C            0.39035688448383       -1.05887472636071       -0.00790371836672
C            0.93510056364412        0.21347819449412        0.01709077491437
C            0.09450143893243        1.40504303904423       -0.00410947031874
O            0.49712751527797        2.54126714362870       -0.00342325688240
N           -1.25076640035757        1.06271879480407       -0.03085478223738
C           -2.21907211982101        2.15522099834493       -0.05001256985998
C           -1.81739487048744       -0.20012725993278       -0.04692818574614
O           -2.99983886758376       -0.37846417018721       -0.07008878229737
N           -0.92618586207120       -1.30210215599479       -0.03682761578324
C           -1.46982264913417       -2.64643102187190       -0.06029820460571
H            3.71247264356769        1.21471455160235        1.06488849150277
H            4.00791497605742        1.03430808813993       -0.67357694370751
H            2.69910007168542        2.09770118228144       -0.09130154882931
H            3.56654120610678       -1.63682992603973        0.04233140067262
H           -1.67107961066214        3.09322851271934       -0.02552706933167
H           -2.82428953597071        2.09428624779827       -0.95318082946668
H           -2.87644029173232        2.07745725625962        0.81450067533302
H           -1.17061996399332       -3.19584890659852        0.83242232437030
H           -1.14560257411436       -3.17511610292205       -0.95688275822323
H           -2.55549792440841       -2.55659984320617       -0.07459039797972
H            1.38130855184625       -2.94313852034425       -0.01389874181052
25
 energy: 0.457934816094 xtb: 6.6.1 (8d0f1dd)
C            3.27325699624072        1.15711328294480        0.09495201719148
N            2.32470804255707        0.08693305341014        0.04376083335630
C            2.60911745686786       -1.24106372149877        0.02982031313057
N            1.43529533186807       -1.94271203493162       -0.00166261537633
C            0.40852622022714       -1.05262488714404       -0.00606581940306
C            0.94641127826059        0.22395466570641        0.02146362086289
C            0.11810939646678        1.40283256948164        0.00000205276010
O            0.52722150159215        2.56376252076092        0.01419375114098
N           -1.25312502910567        1.06773915695949       -0.05087178128794
C           -2.24727749934556        2.15027431015404       -0.08546652607741
C           -1.80876128365415       -0.18682414770825       -0.04880679937031
O           -3.00444233469145       -0.36871061343458       -0.07277332625487
N           -0.92227345155541       -1.28999382316775       -0.03437140417954
C           -1.46409639280669       -2.63046146128073       -0.05908443193065
H            3.74383939642921        1.20100587652709        1.08045039280010
H            4.04714741820346        1.00915867451658       -0.65989989621480
H            2.74065940161854        2.08743398960903       -0.08944668488451
H            3.58503418963741       -1.67107684271644        0.03674916633897
H           -1.68433153959900        3.09030538327743       -0.05448608265702
H           -3.07725989093288        2.08939698299572       -0.86307093305196
H           -2.90300460285922        2.07059541847795        0.75023207479550
H           -1.16302052127115       -3.18303320107876        0.83285282368967
H           -1.13668425020217       -3.16075076860081       -0.95547258963639
H           -2.54908536657494       -2.53792565784286       -0.07432609243770
H            1.36625020056553       -2.94630012324460       -0.02163816715677
25
 energy: 20.329150408739 xtb: 6.6.1 (8d0f1dd)
C            3.32494840582130        1.13313904133743        0.10977244087136
N            2.35281145805494        0.09200236476463        0.04906887752861
C            2.63372769710686       -1.26722863731375        0.02876308796691
N            1.43154184821329       -1.94405144226130       -0.00622595723224
C            0.42910918096437       -1.04175836200728       -0.00451031856101
C            0.95938006445001        0.23915156160979        0.02849579752625
C            0.14363522379852        1.40421823996036        0.00433354083913
O            0.55542424809817        2.57573956912396        0.04752246398640
N           -1.26429139264584        1.08604055406972       -0.09313927328758
C           -2.29759034459290        2.14831845380801       -0.13089615307106
C           -1.79213209903032       -0.16553760467406       -0.06077993286165
O           -2.99324842410701       -0.35648895265501       -0.07450498339221
N           -0.91414878478586       -1.26853200845385       -0.03125581188023
C           -1.45316322232652       -2.60605430792759       -0.05609686901025
H            3.78950579952386        1.17613048656204        1.10063763831029
H            4.10772946328299        0.96561273827427       -0.63535715637367
H            2.81237017293283        2.07109260424784       -0.08769105665614
H            3.59989155811784       -1.70688871220488        0.02624403287483
H           -1.72038152476556        3.08649876457691       -0.11589091721813
H           -3.39547181780325        2.06552842919354       -0.74524967101519
H           -2.93699046538678        2.05951926895995        0.69828528670956
H           -1.15200428419020       -3.16261021618524        0.83483271232365
H           -1.12400300166750       -3.13835104693059       -0.95241076801686
H           -2.53760113361847       -2.51127742045175       -0.07278101188748
H            1.35316604249146       -2.94518476325108       -0.03413210232598
25
 energy: 39.015690615100 xtb: 6.6.1 (8d0f1dd)
C            3.37513517983924        1.10340348044499        0.12314173096935
N            2.37340763751970        0.08863776585142        0.05251938328369
C            2.64397958752955       -1.28072470689993        0.02649286787926
N            1.43282191648767       -1.94052075262800       -0.01292827569208
C            0.44309938992627       -1.03062179868420       -0.00509896295503
C            0.97180590464000        0.25271492472240        0.03375957124692
C            0.15575908900677        1.41756000845131        0.00875214014960
O            0.56893201297402        2.58617618655547        0.07706268804040
N           -1.27934388091172        1.10865096340569       -0.12935361036992
C           -2.36249877918242        2.14587546010080       -0.16691872637189
C           -1.78094677564078       -0.14949089362474       -0.06921399956895
O           -2.98221291473403       -0.35285926094569       -0.07099228449955
N           -0.90272636642363       -1.24813484275626       -0.02840040329860
C           -1.44097523027538       -2.58396532426925       -0.05246037452732
H            3.83214608937507        1.14253664794131        1.11899543243391
H            4.16775176050643        0.91191935748429       -0.60837723059480
H            2.89512631124069        2.05654143680632       -0.08782556415970
H            3.60645883889102       -1.73102897686362        0.01251433334468
H           -1.79196796102677        3.08890069561709       -0.17580179281814
H           -3.62715815039390        2.04040046460899       -0.67819423150429
H           -2.95891451391112        2.04680327363369        0.68768929929442
H           -1.13925027954813       -3.14013155804757        0.83842731413916
H           -1.11195921677558       -3.11531972835639       -0.94952804552294
H           -2.52523223749769       -2.48619056660963       -0.06856705243926
H            1.34897725632099       -2.94210365376636       -0.04866031031156
25
 energy: 53.266351705824 xtb: 6.6.1 (8d0f1dd)
C            3.39961790387406        1.08522561017150        0.13117808682382
N            2.38287097410381        0.08420884007191        0.05291970326519
C            2.64586927322475       -1.28268895984198        0.02704779130273
N            1.43737689910169       -1.93739383495225       -0.01680061778107
C            0.44958955271764       -1.02636110061166       -0.00737018351047
C            0.97938341638311        0.25753044482652        0.03516051102203
C            0.16573603600630        1.42604480671269        0.01056736940931
O            0.57880480695990        2.58653064337703        0.09417034968963
N           -1.28498374324391        1.11948304260707       -0.15152420369605
C           -2.38964320404341        2.14977802123125       -0.18843095142880
C           -1.77481676410911       -0.14372587568093       -0.07285091411943
O           -2.97436803926682       -0.35444571334005       -0.06356978945703
N           -0.89467339176521       -1.23888703525352       -0.02747679453216
C           -1.43357647975572       -2.57494977537432       -0.05117079045112
H            3.84779347863809        1.12298067246749        1.13129717292845
H            4.19708517128561        0.87801401034198       -0.59045522764545
H            2.94124482496215        2.04673639847829       -0.08938861848650
H            3.60795999427844       -1.73668383203367        0.00506412014491
H           -1.82837076658291        3.09631201654456       -0.20668451950118
H           -3.77675291976176        2.03694717928480       -0.63626948467851
H           -2.96210775219674        2.04572504225419        0.67256523578579
H           -1.13164142577165       -3.12994154135690        0.83978973724550
H           -1.10524409599659       -3.10511604359532       -0.94876750503142
H           -2.51793871239995       -2.47657109190177       -0.06655636086565
H            1.35299963129453       -2.93972332225477       -0.05541022028520
25
 energy: 62.654710244380 xtb: 6.6.1 (8d0f1dd)
C            3.40381694546436        1.08023996851428        0.13327981042728
N            2.38640917913242        0.08032043119479        0.05160339567795
C            2.64534290051985       -1.28134375818224        0.02979185583994
N            1.44127695274860       -1.93699288245706       -0.01716923986498
C            0.45117477365357       -1.02728639495678       -0.00938559334873
C            0.98370513252435        0.25613966705865        0.03427655923917
C            0.17605342732367        1.42852775127915        0.01116107982331
O            0.58762278058389        2.58377461885760        0.10430749363762
N           -1.28141646605119        1.12067221450441       -0.15950931982855
C           -2.38428480089031        2.15367044096342       -0.19719737987597
C           -1.77202815903168       -0.14228627622289       -0.07377394568393
O           -2.97024889695894       -0.35288537369780       -0.05888329060913
N           -0.89159402161096       -1.23721702845498       -0.02786750260422
C           -1.43211106762191       -2.57386270344886       -0.05148926723637
H            3.84705790016125        1.12052553470829        1.13513319492811
H            4.20203754014509        0.87024621576389       -0.58461452440987
H            2.95002616343782        2.04190086660854       -0.09063195195676
H            3.60819777763778       -1.73561284853982        0.00389140652960
H           -1.82596620388739        3.09964721823864       -0.21394708406127
H           -3.85646875455482        2.04371840509653       -0.61403005553019
H           -2.96240811761489        2.04443995743337        0.65308491254980
H           -1.13076931451663       -3.12827841887839        0.83967302074339
H           -1.10385121405606       -3.10369969708668       -0.94896197441613
H           -2.51653439621976       -2.47552779270345       -0.06695797894718
H            1.35717460761819       -2.93980151342050       -0.05474972487553
25
 energy: 92.610070428138 xtb: 6.6.1 (8d0f1dd)
C            3.41126013312748        1.06866091416755        0.13840454200216
N            2.39941723206193        0.06434845207538        0.04537416206528
C            2.64255274179348       -1.27632035058688        0.04276249131586
N            1.45557952083967       -1.93755755816952       -0.01684111351070
C            0.45507580186237       -1.03338413357255       -0.01578104970583
C            1.00064536102156        0.24787171324428        0.02990779100069
C            0.22063234970506        1.43574717215633        0.01364025704587
O            0.62207705525928        2.57445251012312        0.13703695538694
N           -1.25849938159016        1.11995789725022       -0.17790823851700
C           -2.33146613493860        2.16926264390320       -0.22496583613196
C           -1.76191980366720       -0.13815448786384       -0.07254442215067
O           -2.95544417543280       -0.34351309161163       -0.04320525669292
N           -0.88182291655481       -1.23459939691562       -0.02852622261592
C           -1.42971557461134       -2.57306839473017       -0.05345758312748
H            3.83986620637315        1.11851959408682        1.14483016367942
H            4.21106309041116        0.85646828811669       -0.56919310836306
H            2.96432567741242        2.02786376528795       -0.09278457453432
H            3.60829573576227       -1.73216300332232        0.00281232294218
H           -1.78857336403539        3.11472962547071       -0.22341798939144
H           -4.16267590061185        2.07351344733656       -0.53761752667824
H           -2.97153757471079        2.02994830332041        0.55976945181498
H           -1.13176020034465       -3.12629414191813        0.83843317610807
H           -1.10131789649047       -3.10155840121335       -0.95043120304455
H           -2.51417239844086       -2.47375759991610       -0.07010946311344
H            1.37032908373537       -2.94194516454691       -0.04915382963659
25
 energy: 105.809201827760 xtb: 6.6.1 (8d0f1dd)
C            3.41813912409555        1.05722017562159        0.14368488978758
N            2.41288166598347        0.04491168127658        0.03937064810500
C            2.63824559285703       -1.27077239566702        0.05551479914002
N            1.47035459032925       -1.93864297373101       -0.01637631465287
C            0.45815106063599       -1.03965807777669       -0.02028193461002
C            1.01993159004776        0.23743416871046        0.02567577920466
C            0.26786890610877        1.44277229003426        0.01971793892561
O            0.65472821822519        2.56260378335573        0.16059530126989
N           -1.22491718655258        1.11907044070521       -0.18098116234103
C           -2.24290042235024        2.18734398572969       -0.25559478714073
C           -1.74889565159728       -0.13291946456074       -0.06743264192130
O           -2.93573214273440       -0.33449014949307       -0.03104805094311
N           -0.86872768916449       -1.23259795287128       -0.02805380757599
C           -1.42632729764090       -2.57235440653552       -0.05605060668450
H            3.83455253189899        1.11485861182121        1.15316002620406
H            4.21881160893538        0.84583884073173       -0.55532073625115
H            2.97658694612811        2.01522963167544       -0.09166881488416
H            3.60719121340225       -1.72948073943561        0.00536898963694
H           -1.73160083838748        3.13739150242654       -0.21988559256163
H           -4.53045198434962        2.10248883831643       -0.44331039601536
H           -2.99420095542517        2.01106150462528        0.42528806604058
H           -1.13348826522420       -3.12486571257934        0.83665527214128
H           -1.09893716271321       -3.09917498769443       -0.95282949313009
H           -2.51094679804742       -2.46954993701542       -0.07424487239323
H            1.38189801347553       -2.94469005549782       -0.04491860320309
25
 energy: 103.415243392256 xtb: 6.6.1 (8d0f1dd)
C            3.42204548792916        1.04948694911867        0.14373163476970
N            2.42229898139513        0.02879835212545        0.03701481783203
C            2.63583651933625       -1.26775107785662        0.05886337901026
N            1.48257815136566       -1.94115687715173       -0.01643688446212
C            0.46037960142712       -1.04434359519859       -0.02138092831128
C            1.03585079867874        0.22919166031943        0.02516342282221
C            0.30297973443529        1.44717216696935        0.02779071337147
O            0.67934285905803        2.55789607328478        0.18241098454865
N           -1.19088534171123        1.12175634711362       -0.16186315577383
C           -2.14422628149395        2.19904842991426       -0.27446377013153
C           -1.73739476234228       -0.12738698972995       -0.05959355779134
O           -2.92028024870472       -0.32598665259285       -0.02138641056697
N           -0.85794347746901       -1.23163256030747       -0.02636038144230
C           -1.42386687299997       -2.57166882923963       -0.05638222383315
H            3.83163454030882        1.11195544155671        1.15405111509822
H            4.22315031162248        0.84014219049842       -0.55140919120051
H            2.98124711153771        2.00677224434407       -0.09321168815377
H            3.60717159999001       -1.72863512801636        0.00521255943101
H           -1.66517146193770        3.15550526453047       -0.18570554494513
H           -4.81754626027358        2.12056200097867       -0.35292422737754
H           -3.06378846210556        1.99463101267399        0.24891729832219
H           -1.13450369522222       -3.12402655964779        0.83668333052127
H           -1.09869459241964       -3.09768791926472       -0.95329872482733
H           -2.50866609590309       -2.46555991788945       -0.07464322361450
H            1.39066652343482       -2.94805342436057       -0.04374544714834
25
 energy: 97.371507861621 xtb: 6.6.1 (8d0f1dd)
C            3.40578474440557        1.06599964367039        0.13403950648125
N            2.41256607644878        0.02707642438614        0.05004170801030
C            2.63520561899300       -1.27023249721986        0.03801619151820
N            1.48083737021790       -1.94743136992052       -0.01440045500287
C            0.45181265935898       -1.04263504278248       -0.01494128413064
C            1.03523719655113        0.22901456647466        0.02417692961802
C            0.28346544776076        1.43641604337841        0.02434077095444
O            0.65913919586648        2.57877735419716        0.16205639430366
N           -1.14307030972372        1.13089457749429       -0.05674871448808
C           -1.94885011665386        2.17758281643368       -0.23382019315780
C           -1.73867499107923       -0.12532822046075       -0.04776108969094
O           -2.92560137828271       -0.32447221421726       -0.03657796033478
N           -0.85973003246482       -1.24065923330838       -0.02834849628793
C           -1.42792908054153       -2.57688164860868       -0.05533300744249
H            3.82765316095389        1.11772396964769        1.13785175793728
H            4.20894583589187        0.86654422272577       -0.57466144543009
H            2.94111423876329        2.02366061958708       -0.09333936253581
H            3.60593663777891       -1.73254653740073        0.01501040851313
H           -1.56097554942119        3.16725302494772       -0.07711289032107
H           -4.88463787217418        2.08344714239749       -0.28058737990082
H           -3.16976834353650        1.99868794523556       -0.01194193361282
H           -1.13800546164304       -3.13000725680220        0.83802470850009
H           -1.10550589029473       -3.10487494552120       -0.95239409304099
H           -2.51289711614486       -2.46765499274695       -0.07244187973631
H            1.38016262690610       -2.95132578941484       -0.04611429457559
25
 energy: 90.601285417109 xtb: 6.6.1 (8d0f1dd)
C            3.39422516920035        1.08019856576371        0.13425126551754
N            2.41341693033521        0.03335794484826        0.06186864419021
C            2.64830083622792       -1.28327624050055        0.03358254280011
N            1.47846078378015       -1.95478608099300       -0.01016679053261
C            0.45719779566879       -1.04748162036457       -0.00210886581430
C            1.03258644436146        0.22798981722624        0.04397615724474
C            0.27458319792146        1.41804924574479        0.04573051791364
O            0.67103172043517        2.57395287801222        0.13708255940257
N           -1.14285338442196        1.13642746012272       -0.04589969587272
C           -1.95289255258437        2.17734992985287       -0.24136875652347
C           -1.73682139015108       -0.12810316483304       -0.04473080031985
O           -2.92953360211932       -0.31825673088213       -0.06184842762422
N           -0.86686732549768       -1.24702718912921       -0.02308375468428
C           -1.43317015754103       -2.57999735649751       -0.05984231473773
H            3.82579234017430        1.13296834366391        1.13518390500648
H            4.19237271070183        0.89712639527995       -0.58707037693588
H            2.90106149897416        2.02712645124575       -0.08391671174351
H            3.61565393171075       -1.74202594620699        0.01935704579961
H           -1.53915214976274        3.15279546357427       -0.07265930134076
H           -4.92728802520448        2.07513960928267       -0.28277858316890
H           -3.07024297778771        2.03444543187325       -0.01422483364460
H           -1.14493991182181       -3.13981560341546        0.83114368256088
H           -1.10786253721420       -3.10781193186144       -0.95770746335683
H           -2.51743167940430       -2.47279155688553       -0.08073413434381
H            1.37658700195543       -2.95652551274899       -0.04700161364498
25
 energy: 88.879851089567 xtb: 6.6.1 (8d0f1dd)
C            3.39215049477225        1.08559829577573        0.12873950406255
N            2.41520497471956        0.03900987108457        0.06754146224920
C            2.65826828166023       -1.29373454487312        0.02195425649286
N            1.47466560149558       -1.95675122782047       -0.01151427599772
C            0.46520455492986       -1.05065143570698        0.01065076688460
C            1.03154686531171        0.22787465988736        0.06694962909209
C            0.26526694809081        1.40100818500967        0.08596933704405
O            0.68750531685152        2.56737195433608        0.10510320828146
N           -1.14176153275919        1.14334697766422       -0.01577951372629
C           -1.97830281308675        2.18620678653848       -0.23464354295826
C           -1.72844156860721       -0.13269263211570       -0.03613006116713
O           -2.92609829825406       -0.30516890788505       -0.07996821917054
N           -0.87203064860650       -1.25033437373088       -0.01569516812342
C           -1.43589300398953       -2.57967329104740       -0.05682431416241
H            3.83434652703907        1.13727971937093        1.12675687969721
H            4.18435539636260        0.90886634670784       -0.60165600296581
H            2.88531619249451        2.02863111999830       -0.08301656393365
H            3.62164933509836       -1.74715411275934        0.01591552918417
H           -1.53722421126519        3.15279934539490        0.00734894418484
H           -4.93836223971201        2.08634805700099       -0.32890577066163
H           -3.04337189999547        2.02522360180248       -0.09296479271353
H           -1.14489657153398       -3.14232200938368        0.83260060716788
H           -1.11098662906538       -3.10949524524445       -0.95530781330421
H           -2.51950012919352       -2.47538338767589       -0.07682733874261
H            1.37360372517901       -2.95717515015643       -0.05326285056636
25
 energy: 88.328534581329 xtb: 6.6.1 (8d0f1dd)
C            3.38821609237388        1.08730156844510        0.12745441830848
N            2.41219972005882        0.03979228759468        0.06882789243983
C            2.65658301876947       -1.29316383483320        0.01949827932872
N            1.47354678255749       -1.95596540499454       -0.01290175063471
C            0.46568612155380       -1.05202101790074        0.01021015206893
C            1.03043908101705        0.22631314322732        0.06514420086552
C            0.25916064217382        1.39873520572765        0.08188408442185
O            0.68852048920646        2.56683146254050        0.09775158758145
N           -1.13714799122735        1.14334630562464        0.00319317709556
C           -1.96363782850489        2.18973730032331       -0.19969825372064
C           -1.72596420002345       -0.13736052343596       -0.03421265245516
O           -2.92442682923314       -0.30161407355174       -0.07613018610820
N           -0.87356198910988       -1.25172273486246       -0.01862399434880
C           -1.43697741959528       -2.58080527880981       -0.05754679984128
H            3.83101926956253        1.14112875191579        1.12534163584550
H            4.17989411394866        0.91070447149635       -0.60289587480933
H            2.88033845953434        2.02960720779834       -0.08505559823594
H            3.62092191852079       -1.74409194553109        0.01763618554492
H           -1.52744419902750        3.15085490773945        0.02486575576206
H           -4.92721175160794        2.07363416700456       -0.33218025881085
H           -3.05439701678546        2.03656063423236       -0.14040888267689
H           -1.14485571919629       -3.14334827851953        0.83179799277723
H           -1.11287132653930       -3.11098777633345       -0.95614932122478
H           -2.52069374502855       -2.47751501509346       -0.07696892088709
H            1.37487897453822       -2.95692292763190       -0.05379897213902
25
 energy: 87.610815397180 xtb: 6.6.1 (8d0f1dd)
C            3.38809580609590        1.08376608197316        0.12759869599923
N            2.40829719990179        0.03989811650624        0.06683254978043
C            2.64847177086558       -1.28827763913982        0.02341261008581
N            1.47176545636195       -1.95119464979200       -0.01332295536768
C            0.46496153746678       -1.05209422355556        0.00344736998813
C            1.02901953485627        0.22620851780604        0.05313079055395
C            0.25526137619512        1.40447247764752        0.05741576961433
O            0.68982961522236        2.56912428879537        0.10549241690301
N           -1.13681477222405        1.14141553597719       -0.00194183885530
C           -1.96168988897064        2.19553527483333       -0.12892488935386
C           -1.72415235939219       -0.14528206834573       -0.04415366435013
O           -2.92272883292464       -0.29664519100767       -0.07009625599400
N           -0.87521719164126       -1.24901249134564       -0.02868426079787
C           -1.43688156095556       -2.58037151157069       -0.05695005670346
H            3.82591152588068        1.14075054143859        1.12751726418368
H            4.18214899106397        0.90051658838582       -0.59581581415833
H            2.89053345806982        2.02892887619769       -0.08978736564277
H            3.61588714674609       -1.73676202460762        0.02178570022800
H           -1.53175149244435        3.15383730290472        0.03573055963696
H           -4.93515053204771        2.05569989515645       -0.33817072517697
H           -3.03532123383432        2.03327775896912       -0.18513386132786
H           -1.14374107100792       -3.13822251420547        0.83492273172047
H           -1.11270458689368       -3.11319265730808       -0.95348447182181
H           -2.52098471993059       -2.47882286367996       -0.07583289116557
H            1.37916949147688       -2.95452481986084       -0.04795351183105
25
 energy: 87.521993779727 xtb: 6.6.1 (8d0f1dd)
C            3.39243573128995        1.07977293307025        0.12465251860645
N            2.41053633441798        0.03739490716234        0.06501423427475
C            2.64669533156725       -1.28748468302376        0.02145109529984
N            1.47307616910502       -1.95084845532417       -0.01379994851106
C            0.46445664536619       -1.05095760950812        0.01027315197305
C            1.03063694652109        0.22708049389283        0.06336674552886
C            0.25881348170925        1.41026545081760        0.06961068257973
O            0.69102207008904        2.56762693035235        0.11956700294924
N           -1.14002389454218        1.14156816121897       -0.00159204941590
C           -1.97792144915211        2.19583272018052       -0.08666716577460
C           -1.72575141327482       -0.14609669096650       -0.03511159050496
O           -2.92441838551214       -0.29506170798639       -0.06836913344926
N           -0.87432241646848       -1.24439729758434       -0.02286386818711
C           -1.43572263168256       -2.57821477669886       -0.05576598859566
H            3.83385240317108        1.13524238298278        1.12238858648092
H            4.18244882283839        0.89874244809295       -0.60195226406573
H            2.89661859047368        2.02564733433956       -0.08680397528388
H            3.61594567839054       -1.73780577894914        0.00677961557091
H           -1.54456346880795        3.16261870236156        0.02943738184774
H           -4.91387284316467        2.04474173796025       -0.37325179333531
H           -3.05507507449125        2.03111770717321       -0.21473370769163
H           -1.14274416891202       -3.13841305678664        0.83428013309382
H           -1.11188893255948       -3.10764549293256       -0.95398087917003
H           -2.52007732569546       -2.47632135187169       -0.07319756557481
H            1.38205846725994       -2.95537640580083       -0.05169732249799
25