25
 energy: -43.832489644612 gnorm: 0.116162501361 xtb: 6.6.1 (8d0f1dd)
C            3.25040500721150        1.16336439982742        0.08825060052858
N            2.30756257829724        0.07999023772875        0.04108832259597
C            2.58765512400868       -1.22089736468299        0.03001961943117
N            1.43676877829803       -1.93985117486248       -0.00023511646194
C            0.39725577935939       -1.05671506766657       -0.00716327917400
C            0.94190524883209        0.21954440872621        0.01957966657176
C            0.11192512352943        1.40303965200611       -0.00106601571404
O            0.51188514517430        2.55340939105189        0.00409883270794
N           -1.25318824822929        1.06786153462047       -0.05125189576572
C           -2.24595325201020        2.15037194565924       -0.08403922372893
C           -1.81261955904864       -0.19253284644559       -0.04777599050320
O           -3.00441609220005       -0.36926577368769       -0.07266722108993
N           -0.92383898836756       -1.29465602945327       -0.03523936412745
C           -1.46802065868999       -2.64114605351407       -0.05993826872554
H            3.72348348321140        1.21013297028326        1.07048886356345
H            4.02480629535824        1.02373089817585       -0.66786725573279
H            2.71856335622382        2.09281674223951       -0.09033387964008
H            3.57105051567631       -1.64469018650318        0.04122374318918
H           -1.68603473977151        3.09004841639149       -0.05780299145032
H           -2.93049644473968        2.09273295545653       -0.91565015904143
H           -2.89814420132589        2.07194463527901        0.76016830475399
H           -1.16760139009816       -3.19085871865215        0.83255543357155
H           -1.14235225403677       -3.16998397463249       -0.95641499890760
H           -2.55354071666409       -2.55059751369701       -0.07452867030324
H            1.37517993762350       -2.94489868426247       -0.01665594521438
25
 energy: -43.837445403779 gnorm: 0.040963693328 xtb: 6.6.1 (8d0f1dd)
C            3.25457457192929        1.17303594942371        0.09057855718785
N            2.31200531217527        0.09775031866197        0.03879098089631
C            2.60095506602360       -1.23467042416725        0.03042334787637
N            1.42535922225427       -1.93936712784966       -0.00030957284375
C            0.39876014281855       -1.05246700413062       -0.00914988815955
C            0.93201474050951        0.22868677352892        0.01504387785764
C            0.10800116197842        1.39718796529235       -0.00845588022225
O            0.49829770157596        2.56760071332029        0.00185744337505
N           -1.26633254735724        1.05578813614003       -0.05358506334403
C           -2.23977414137730        2.14442530230255       -0.07093671722240
C           -1.82117847068218       -0.19558879939577       -0.05479107624030
O           -3.01936569470023       -0.37964400031053       -0.07224973788809
N           -0.93348371793926       -1.29438991020540       -0.03750193604515
C           -1.47022296243714       -2.63775210104330       -0.05952037266633
H            3.73121120298446        1.21801092175159        1.07391515347537
H            4.02606164232678        1.03214557433320       -0.66923038346075
H            2.71524613369908        2.09992598341811       -0.08826249211947
H            3.57789970661502       -1.66299646688953        0.04258122689295
H           -1.67599118868556        3.07626394806323       -0.06230710299907
H           -2.88804157505192        2.07944018039360       -0.94317598146628
H           -2.88801804726679        2.07415392630520        0.79770323447503
H           -1.16581257296996       -3.18804868625088        0.83282740678211
H           -1.14023643570341       -3.16803168835627       -0.95506926235952
H           -2.55535090356543       -2.54639967195286       -0.07449238080909
H            1.35566148046831       -2.94216501299692       -0.01584026963965
25
 energy: -43.838238480750 gnorm: 0.016974476856 xtb: 6.6.1 (8d0f1dd)
C            3.25702732110458        1.16701727858325        0.08928710762760
N            2.31264045198887        0.10309869221307        0.03841861494150
C            2.61001801751870       -1.24152923741086        0.03147920134174
N            1.42622383994857       -1.94161748358403        0.00121228755095
C            0.40525984086508       -1.05581421268502       -0.00441662872940
C            0.92724652553088        0.22910159505083        0.02020651252189
C            0.11657308131839        1.39207796717022       -0.00235234338253
O            0.51102755688996        2.56614725467709        0.00645965490434
N           -1.26909024084243        1.06104097518753       -0.05637869079351
C           -2.24778361358362        2.14913327563398       -0.07809040459813
C           -1.81270251923807       -0.18822478247949       -0.05089490532044
O           -3.01222066709150       -0.37465179048187       -0.07322457321441
N           -0.93328361819208       -1.29330700678841       -0.03282261597141
C           -1.46788643635557       -2.63566680731811       -0.05957706338959
H            3.73004966127616        1.20818149154074        1.07452417178537
H            4.02822039019820        1.01828673569171       -0.66941445863298
H            2.71952904780642        2.09425068170394       -0.09280360814741
H            3.58492769239334       -1.65802087764207        0.03903337274446
H           -1.70486801912599        3.09193888609940       -0.06489511927699
H           -2.91642915898502        2.09071743093147       -0.93829640269415
H           -2.90043235145415        2.07264486802436        0.78864440778464
H           -1.16512198682806       -3.19235786347828        0.83043413439410
H           -1.13970964048714       -3.16745791725304       -0.95619036803139
H           -2.55279015339782       -2.54769682459202       -0.07428264043501
H            1.36581480636441       -2.94439752940859       -0.01721653164626
25
 energy: -43.838401096358 gnorm: 0.011732030010 xtb: 6.6.1 (8d0f1dd)
C            3.24907826915211        1.17015493374968        0.09023379899334
N            2.30723361196141        0.10424828587206        0.03612920274686
C            2.60554540706040       -1.24008671166695        0.03136834961058
N            1.42367686153500       -1.94111230821394       -0.00107493589402
C            0.40353381689635       -1.05964249704170       -0.00870994205365
C            0.92264133223006        0.22659279409896        0.01696723281049
C            0.11826019125891        1.38735694935119       -0.00563842611361
O            0.50737133259951        2.56095211543605        0.00086064362525
N           -1.26841722897203        1.05682787509728       -0.05711789035033
C           -2.23546109321446        2.14966801996065       -0.07774052263198
C           -1.81146513525965       -0.19070232984330       -0.05131909734324
O           -3.01087129955214       -0.37694834291006       -0.07137606519835
N           -0.93548336690730       -1.29686931838368       -0.03623301546707
C           -1.47049209283996       -2.63839188528354       -0.05942168306393
H            3.72304807507315        1.21537026609192        1.07433179975176
H            4.02206663208629        1.03222638319342       -0.66822410159909
H            2.71086862918196        2.09779686491555       -0.08754773785225
H            3.58018072056975       -1.65008713214599        0.04287438510922
H           -1.67290130844223        3.08150056786060       -0.05947643751000
H           -2.90967621473127        2.09665946867311       -0.93199479876792
H           -2.89015750530537        2.07730209254467        0.78440596985412
H           -1.16827645902121       -3.19091647279616        0.83348538330518
H           -1.14324419776232       -3.17351274911019       -0.95463925825370
H           -2.55564944597130       -2.55089995951021       -0.07415801911878
H            1.37083029599646       -2.94459211055364       -0.01714172325590
25
 energy: -43.838509100215 gnorm: 0.007081944444 xtb: 6.6.1 (8d0f1dd)
C            3.25658463046254        1.16589684352473        0.08918857160223
N            2.30877054252247        0.10284060418826        0.03700583879816
C            2.60104258048125       -1.23989268767097        0.03203467234903
N            1.41969324975521       -1.93746414141671        0.00037815100641
C            0.40205277280583       -1.05505760020023       -0.00778663752947
C            0.92443182208296        0.23073761933613        0.01841628566350
C            0.11711683883372        1.39252878767400       -0.00303255184142
O            0.49990447995653        2.56589300693226        0.00477114445276
N           -1.26985177044425        1.05871614582187       -0.05282217573742
C           -2.24085454654871        2.14467787081992       -0.07605359081768
C           -1.81311428180798       -0.18934232953756       -0.05074573682203
O           -3.01218422436818       -0.37727916359955       -0.07170202007326
N           -0.93547599812282       -1.29270213626206       -0.03598189048329
C           -1.46886036397390       -2.63446657201290       -0.06050183735682
H            3.73418581750415        1.21292885484594        1.07162049616562
H            4.02884608409649        1.02510906507864       -0.66969254138441
H            2.72455356220812        2.09712531440427       -0.08950621316352
H            3.57528374791378       -1.65429553597479        0.04172888343707
H           -1.68260811989343        3.07925481988851       -0.06125011281295
H           -2.90606375464990        2.07827746575130       -0.93538190327528
H           -2.89713485514748        2.07040528089786        0.78394542199940
H           -1.16535184728887       -3.18709239133902        0.83178555694519
H           -1.13958593240448       -3.16573723265186       -0.95692029816779
H           -2.55425428508256       -2.54689531607922       -0.07546929685663
H            1.36511367873160       -2.94127177303304       -0.01518510476444
25
 energy: -43.838595403537 gnorm: 0.004313914091 xtb: 6.6.1 (8d0f1dd)
C            3.25363018533860        1.16678367680044        0.09075613129636
N            2.31080572987245        0.10033714151118        0.03739869154911
C            2.60444857560535       -1.24220678626044        0.03161085183668
N            1.42261845438811       -1.93969598096848       -0.00025890103278
C            0.40376811743094       -1.05724403119033       -0.00764979669359
C            0.92624875935868        0.22873528238940        0.01722792042488
C            0.11942209526088        1.39212901872108       -0.00623353659541
O            0.50419136193967        2.56494136869310        0.00278093503038
N           -1.26964247852935        1.06034089223763       -0.05587299131051
C           -2.24195521511653        2.14827766047671       -0.07517092649303
C           -1.81262898553369       -0.18899612808222       -0.05339705205456
O           -3.01207668953508       -0.37684852675618       -0.07374590231869
N           -0.93447155144378       -1.29356206168896       -0.03570126649153
C           -1.46838422018281       -2.63600919461145       -0.05878888453784
H            3.72732242839604        1.21429776174044        1.07534499545618
H            4.02673292700176        1.02664161174161       -0.66753528109182
H            2.71540525107979        2.09475474937025       -0.09023446256533
H            3.58046051739762       -1.65697455805834        0.03960973491086
H           -1.69015061337381        3.08637409583721       -0.06256155151930
H           -2.90760550760931        2.08719477184795       -0.93527711419882
H           -2.89459971517225        2.07460536134594        0.78913615995154
H           -1.16531950559718       -3.19036751932433        0.83261636190811
H           -1.14026987594788       -3.16872911064842       -0.95468166804419
H           -2.55374011800361       -2.54813360080950       -0.07326832187137
H            1.36802990059746       -2.94375109492851       -0.01726101421233
25
 energy: -43.838605632776 gnorm: 0.003010696388 xtb: 6.6.1 (8d0f1dd)
C            3.25352674442052        1.16786169435540        0.08873436505721
N            2.31018086202785        0.10206418525448        0.03745423283810
C            2.60461792930162       -1.24085425473088        0.03270815813298
N            1.42285667496826       -1.93905090737411        0.00100237801187
C            0.40351828150927       -1.05782459384563       -0.00602055249325
C            0.92498469669081        0.22883212176085        0.01964307658573
C            0.11942244654599        1.39100001137074       -0.00266185475840
O            0.50362264145363        2.56423371316290        0.00513996902234
N           -1.27046090800004        1.05877433333573       -0.05440580311105
C           -2.24088684458316        2.14784791001251       -0.07733524254767
C           -1.81304725197751       -0.19002093593570       -0.05022359594071
O           -3.01253133490215       -0.37781841682541       -0.07123710749317
N           -0.93519776102270       -1.29462770999431       -0.03434526818332
C           -1.46956089977053       -2.63683675426195       -0.06047395044927
H            3.73011330944201        1.21267789821291        1.07193683109387
H            4.02461643711471        1.02644151822971       -0.67141611549507
H            2.71737035066707        2.09746331402586       -0.08986145408524
H            3.58093854268145       -1.65332378876392        0.04158674345636
H           -1.68446410707960        3.08322881493992       -0.06204246555189
H           -2.90771845681900        2.09081317599118       -0.93727169089675
H           -2.89538053848326        2.07521287745473        0.78543308100895
H           -1.16765283665431       -3.19193032459790        0.83081300504049
H           -1.14139328036539       -3.16912147042891       -0.95679161584416
H           -2.55491485429692       -2.54895126276136       -0.07590391420265
H            1.36967998475346       -2.94319634920107       -0.01561809786232
25
 energy: -43.838614070316 gnorm: 0.002435643723 xtb: 6.6.1 (8d0f1dd)
C            3.25408656325213        1.16726818434803        0.09050538442424
N            2.30990594561022        0.10213742104009        0.03633379258624
C            2.60330848248777       -1.24094558254496        0.03155492447032
N            1.42153874037967       -1.93854456923782       -0.00115909689557
C            0.40302730379307       -1.05716122028857       -0.00868728837296
C            0.92468536411927        0.22947901722877        0.01693570971953
C            0.12011269046722        1.39145704762162       -0.00558277019488
O            0.50351973200192        2.56474958642264        0.00219728160424
N           -1.27018660005743        1.05877614564654       -0.05599789454715
C           -2.24085093174046        2.14661732259565       -0.07653411114019
C           -1.81280917160003       -0.18947191109734       -0.05187781031022
O           -3.01222037342744       -0.37703607743970       -0.07190572851074
N           -0.93543043034145       -1.29385754949575       -0.03620820630201
C           -1.46923544058065       -2.63596651292753       -0.05931126268392
H            3.72837250803457        1.21231256465146        1.07474078698781
H            4.02753285691171        1.02641378713525       -0.66728541644528
H            2.71932083078161        2.09725505540293       -0.08893614338352
H            3.57905018624087       -1.65350889084312        0.04158764031445
H           -1.68387304893992        3.08192056190019       -0.06130438518956
H           -2.90995844461875        2.08743144980660       -0.93419829492506
H           -2.89421704488193        2.07241100806847        0.78656530084298
H           -1.16575055229037       -3.18812496186331        0.83325570781295
H           -1.14116256050037       -3.16953877863558       -0.95491271502144
H           -2.55461572937578       -2.54846314323647       -0.07371896080919
H            1.36808895189663       -2.94271515487229       -0.01721333269806
25
 energy: -43.838621158890 gnorm: 0.001549576432 xtb: 6.6.1 (8d0f1dd)
C            3.25340547133507        1.16706701490751        0.08975516539028
N            2.31024653594928        0.10083470381593        0.03725664581299
C            2.60324164838388       -1.24191219147877        0.03205336942701
N            1.42162766005502       -1.93920560364971        0.00040183415212
C            0.40316344988996       -1.05743096753935       -0.00713708778892
C            0.92521077958058        0.22903749321711        0.01837432204429
C            0.12054313225897        1.39176475838478       -0.00411823415627
O            0.50384186785025        2.56480523470616        0.00412506490610
N           -1.26983637059412        1.05942734917907       -0.05473962961231
C           -2.24065617227373        2.14738679504929       -0.07591338043125
C           -1.81253223446008       -0.18915489599295       -0.05205364053007
O           -3.01185676123527       -0.37674849414333       -0.07336952037271
N           -0.93503181725162       -1.29367057439470       -0.03537143011438
C           -1.46865160698242       -2.63593763640363       -0.05969982167080
H            3.72850388426797        1.21495622913946        1.07352563117135
H            4.02604392916226        1.02714505795098       -0.66903033661942
H            2.71598992288483        2.09534962279237       -0.09050616208425
H            3.57903831311859       -1.65543365740904        0.04018029617791
H           -1.68595187617906        3.08412825379080       -0.06194842785393
H           -2.90725861324315        2.08577597971599       -0.93517258630404
H           -2.89498540887630        2.07415316200143        0.78663452178574
H           -1.16559559699558       -3.18989412704690        0.83193305070220
H           -1.13995843930672       -3.16792481867504       -0.95589374728484
H           -2.55398571664126       -2.54821567921508       -0.07452085464847
H            1.36768384692473       -2.94340820931658       -0.01592193076535
25
 energy: -43.838617409392 gnorm: 0.001899839284 xtb: 6.6.1 (8d0f1dd)
C            3.25447156544983        1.16727707652097        0.09018561750468
N            2.31065141098205        0.10166190779563        0.03715345287679
C            2.60426381307362       -1.24085548607636        0.03206725374784
N            1.42295534922553       -1.93868889332596       -0.00040976643934
C            0.40353783198703       -1.05755759520174       -0.00742304461417
C            0.92516294008706        0.22934491873705        0.01794264311033
C            0.11960208217734        1.39164273118560       -0.00518065326868
O            0.50221924369298        2.56498635882363        0.00278876462703
N           -1.27106666126152        1.05895230731205       -0.05547446797430
C           -2.24163268979313        2.14778188526687       -0.07653069031736
C           -1.81318853528408       -0.19003028012162       -0.05147311145098
O           -3.01255250485350       -0.37830059951710       -0.07114870180698
N           -0.93494696905303       -1.29431411879075       -0.03519010046058
C           -1.46938668317238       -2.63665155808203       -0.05942905365056
H            3.73029425487203        1.21167225387204        1.07380969962518
H            4.02636011431562        1.02616253945330       -0.66922564643132
H            2.71898613838936        2.09711831091903       -0.08840542113552
H            3.58068298075462       -1.65376872847138        0.04126939813392
H           -1.68631804200505        3.08392424053235       -0.06197627992540
H           -2.90820148732500        2.08976785572469       -0.93636895086038
H           -2.89550769953440        2.07500177357443        0.78670444488298
H           -1.16721994006737       -3.19123694303844        0.83208358012200
H           -1.14184163347347       -3.16966788333184       -0.95543280766238
H           -2.55472034723654       -2.54842371439689       -0.07428157350491
H            1.36963529567448       -2.94290355997774       -0.01721147379492
25
 energy: -43.828640986914 gnorm: 0.102292220107 xtb: 6.6.1 (8d0f1dd)
C            3.26345649824060        1.16007701330624        0.09209238800497
N            2.31645574773890        0.08413784830018        0.04242877917060
C            2.59498211376239       -1.22758380483645        0.02996991106292
N            1.43481274427731       -1.94302007541871       -0.00210440063461
C            0.40406214324716       -1.05437836869072       -0.00647388486242
C            0.94822395702807        0.22590860111872        0.02234118378590
C            0.12996032721671        1.40312462134362        0.00184228878198
O            0.52590236615429        2.56304099625563        0.01315538299634
N           -1.25746990055667        1.07524381594362       -0.07060874455166
C           -2.27714750237646        2.14898831377789       -0.11472214231285
C           -1.80775339222792       -0.18543163080771       -0.04918737051510
O           -2.99926981758812       -0.36072886952902       -0.07410061589123
N           -0.92131299326748       -1.28723250455652       -0.03391959616384
C           -1.46616180384446       -2.63589068392211       -0.05955029948080
H            3.73445692517278        1.20537507911256        1.07595571501965
H            4.04148709228211        1.01295396780244       -0.66199220400944
H            2.73805875703902        2.08805271895687       -0.08953204778503
H            3.57547860630368       -1.65256530547251        0.04005509253797
H           -1.70287541219588        3.08756750127386       -0.08986512790207
H           -3.03651314421499        2.09054426126764       -0.87780203776188
H           -2.92730562629223        2.06313093788706        0.70847498918330
H           -1.16463396330945       -3.18584613191064        0.83272666585089
H           -1.13914638819519       -3.16483179694238       -0.95591332383677
H           -2.55152250931856       -2.54462345119964       -0.07445153305253
H            1.36930966001597       -2.94609144579400       -0.01970598403867
25
 energy: -43.833896352481 gnorm: 0.037166233909 xtb: 6.6.1 (8d0f1dd)
C            3.26533915696933        1.16790195213232        0.09421332462902
N            2.31627936390472        0.09953994424817        0.03999603711838
C            2.60300242669405       -1.23681535419398        0.03066447976268
N            1.42411783811777       -1.93789382467022       -0.00197183135195
C            0.40184143525051       -1.04932675348361       -0.00978077417531
C            0.93375744111107        0.23468701810099        0.01556705449086
C            0.11608428423928        1.40012846993052       -0.01048570354561
O            0.50108451569617        2.57328977712214        0.00972917765836
N           -1.27261922001464        1.06241663513266       -0.07426783713636
C           -2.26275033926674        2.14403391272824       -0.08932463188138
C           -1.81857946822057       -0.19061462242039       -0.06142631644626
O           -3.01654836121447       -0.37625856482877       -0.07295397798925
N           -0.93187119280043       -1.28805924675600       -0.03776959489972
C           -1.46821713154889       -2.63269977142930       -0.05888743438187
H            3.74007123712455        1.21194322855353        1.07891326348948
H            4.04026395797152        1.02044535224378       -0.66216472356711
H            2.73385568166433        2.09711976610808       -0.08826266273469
H            3.57883434621334       -1.66613552768500        0.04190911654852
H           -1.69812842083268        3.07642893904195       -0.09775906442566
H           -2.95449318736252        2.06714456347923       -0.93292740971720
H           -2.90530755885294        2.06926305856563        0.77961956125678
H           -1.16324346676389       -3.18244782400995        0.83357925808351
H           -1.13728713753190       -3.16263971917188       -0.95433598541604
H           -2.55317559750860       -2.54112129365461       -0.07433253975439
H            1.35322388205322       -2.94040850781760       -0.01842770201915
25
 energy: -43.835125296272 gnorm: 0.015458400640 xtb: 6.6.1 (8d0f1dd)
C            3.27081542872657        1.16117826539684        0.09351851618868
N            2.31993662856232        0.09971215226662        0.04111410447688
C            2.61069777633967       -1.24371637588887        0.03163403080199
N            1.42665680308688       -1.94019284928515       -0.00025915713396
C            0.40807401876536       -1.05147097200087       -0.00416285131478
C            0.93351944270981        0.23383523547342        0.02215467614577
C            0.12263294826043        1.39874675602645       -0.00390235607512
O            0.51595337067263        2.57069407392708        0.01355015123889
N           -1.27324215217592        1.06970300657712       -0.07982353815945
C           -2.27406321566792        2.14590836251690       -0.10231324064332
C           -1.81053143378077       -0.18262885127654       -0.05630051796377
O           -3.00922498358012       -0.37041445433148       -0.07478929503301
N           -0.92960996011804       -1.28558456751710       -0.03194674411580
C           -1.46555725794475       -2.62898089103097       -0.05894195977269
H            3.74337131012788        1.20433961855622        1.07920295144432
H            4.04460255756646        1.01042027648926       -0.66294250569449
H            2.73931030087779        2.09096822911977       -0.09042995795983
H            3.58543904793758       -1.66673725279980        0.03788656605897
H           -1.72988484360572        3.08806058197929       -0.10134049435157
H           -2.99497250257382        2.08094503073358       -0.91976738828915
H           -2.91886569808311        2.06363378632115        0.76578802070385
H           -1.16253267248627       -3.18529052053397        0.83080223874089
H           -1.13675577586412       -3.15990790912421       -0.95557750239479
H           -2.55048707959649       -2.53986758660863       -0.07404120360012
H            1.36025242693525       -2.94343153772016       -0.01999945970275
25
 energy: -43.835078652219 gnorm: 0.012263460274 xtb: 6.6.1 (8d0f1dd)
C            3.26064647550962        1.16586264970903        0.09324934429836
N            2.31469768772792        0.10185489328073        0.03756387208991
C            2.60842352581575       -1.24282168784601        0.03099373561967
N            1.42531125316468       -1.94109000117521       -0.00334381223541
C            0.40718809548376       -1.05667889282977       -0.00871143043898
C            0.92854077658632        0.23012416929086        0.01954787072264
C            0.12510113351707        1.39372969841878       -0.00366511810184
O            0.51765551260227        2.56506397182374        0.01136837490348
N           -1.27156023726158        1.06545621068986       -0.07918388377561
C           -2.25935179048459        2.14830606663394       -0.10556741695149
C           -1.80835932347742       -0.18479727752079       -0.05447158773787
O           -3.00750651363245       -0.37143336734459       -0.07156823507093
N           -0.93203095152521       -1.29089720774029       -0.03474144907334
C           -1.46794231189646       -2.63375772591053       -0.05879520537450
H            3.73036402304942        1.21275378188495        1.07957524407527
H            4.03678062135281        1.02306486716427       -0.66172628112629
H            2.72677242752625        2.09484060070515       -0.08909522553830
H            3.58325736502522       -1.65722174445501        0.04200111415082
H           -1.69378755534630        3.07859394936520       -0.09170203436322
H           -2.99270101226356        2.09550352382525       -0.91006601350536
H           -2.91318043096454        2.07205327156466        0.75164964493391
H           -1.16535947966577       -3.18678749917510        0.83357594208360
H           -1.14024138048384       -3.16960599500796       -0.95356737859690
H           -2.55332814296217       -2.54712063421554       -0.07382192794062
H            1.36614471769436       -2.94507401386970       -0.02038505945139
25
 energy: -43.835395756662 gnorm: 0.005736571272 xtb: 6.6.1 (8d0f1dd)
C            3.26855463622025        1.16163481166000        0.09317409719440
N            2.31596351715586        0.10276954306341        0.03827369869693
C            2.60553640013323       -1.24231431687051        0.03166643010810
N            1.42171148550549       -1.93759418678992       -0.00167117595492
C            0.40629501562271       -1.05189993645614       -0.00806708332308
C            0.92935449816844        0.23487540295631        0.01982465573908
C            0.12387778516054        1.39836128332373       -0.00397768305289
O            0.51129839585207        2.57090318459091        0.01203261253479
N           -1.27319794659856        1.06709521958936       -0.07562547829319
C           -2.26495410955579        2.14320885286264       -0.10159097617049
C           -1.80960080255459       -0.18316614774886       -0.05503433043012
O           -3.00872644241780       -0.37146346299053       -0.07214457507179
N           -0.93225761173562       -1.28691149604653       -0.03500559918346
C           -1.46688195533428       -2.62937852236035       -0.05990401373864
H            3.74210467140486        1.20634560766850        1.07793732202445
H            4.04314120069150        1.01367149341574       -0.66260027441868
H            2.74172348458616        2.09445743015699       -0.08878232402762
H            3.57948069931046       -1.65956850286285        0.04116139174423
H           -1.70715819203815        3.07894486808913       -0.09574682480256
H           -2.98961110598779        2.07257595751402       -0.91352453413496