72
 energy: -103.313102886526 gnorm: 0.070648683152 xtb: 6.6.1 (8d0f1dd)
N           -1.48263473943911        2.84652313060591        2.17334670127273
C           -1.61042018306955        2.18893140915261        1.10267246809975
C           -2.78366918442355        2.08633019931234        0.23573919931245
C           -3.33665581184750        0.66495613620151        0.31570329148837
C           -4.32822715508427        0.26137171593235       -0.58051657929755
C           -4.86722924551497       -1.00947536765183       -0.53707430080499
O           -5.83475795395160       -1.48147049133047       -1.36253519273889
C           -6.42646880455120       -0.60188309380571       -2.28657223568497
C           -4.39892386069486       -1.93222984500849        0.42808650858948
O           -4.97927413566033       -3.15828482430071        0.39002891089008
C           -4.63448513809443       -4.09568015710705        1.38232768938749
C           -3.41778198834298       -1.52743122118106        1.31216440846161
C           -2.89502879073468       -0.24157695757685        1.25749568642133
C           -2.25175654311569        2.34895579812746       -1.19432126711109
C           -1.29786342125669        1.24063922611345       -1.70082973270093
C           -0.03602995861486        1.10210438363667       -0.92932149950247
N            0.63212432282150       -0.06513267922422       -0.54674777654200
C            2.01210033152747       -0.06066995665617       -0.14371760046738
C            2.94683873258916       -0.56311874064754       -1.26287439546090
C            4.37880287466791       -0.45329554432039       -0.82333087599269
C            5.09015480496900        0.71390931166723       -1.03348828246170
C            6.40214652825387        0.83011608603343       -0.59896739089163
C            7.02152544731085       -0.21884693753388        0.05961556065884
O            8.29259208839312       -0.21593692413308        0.52373739245781
C            9.08808656662162        0.92648234387582        0.31333189209524
C            6.29732674322776       -1.41472526031532        0.28423144925244
O            6.98086086721951       -2.39085934347758        0.93205278093433
C            6.35381081593222       -3.62708595389661        1.15757688319320
C            4.98976694879482       -1.50989740855497       -0.15467187573848
C           -0.04006065460113       -1.33091918649386       -0.58676136253709
C           -3.90310471780362        3.08927920341862        0.59114968461589
C           -4.50809771059581        2.77777573522786        1.95811848068820
C           -3.43769084146643        4.54258456368829        0.55476664748464
H           -4.69558943964795        0.96270656582345       -1.31328492762529
H           -6.88260141356927        0.25966756825222       -1.78786035963267
H           -7.20232774780555       -1.18119557620618       -2.78385293555085
H           -5.70533738667355       -0.25250190771445       -3.03249929961707
H           -4.84618431524771       -3.71618439119894        2.38691616916440
H           -5.25556604835765       -4.96755681087862        1.18690190174000
H           -3.58084615145757       -4.38322721572078        1.31796498268604
H           -3.05110608102159       -2.20610496517381        2.06960355384097
H           -2.14764225170120        0.04424846080444        1.98278932887506
H           -3.08034977612252        2.42458759771142       -1.88200165045256
H           -1.70259723282310        3.28820136709758       -1.20620193761478
H           -1.84873055930360        0.28567224886755       -1.69055375128500
H           -1.03734450895560        1.43016134001277       -2.72470499583095
H           -0.77378980189292        1.56671952802365        0.63837776398034
H            0.66331031478463        1.95816274003635       -0.96670594355932
H            2.13795573914798       -0.69079849910568        0.74022668769969
H            2.31377890169760        0.95468723653386        0.12652561143270
H            2.78131366916488        0.03840414175366       -2.15351124677079
H            2.70132240036351       -1.60129618136818       -1.49454822532857
H            4.63228883033763        1.54301527241605       -1.55122126410898
H            6.93613481654527        1.74745371271000       -0.78564022000296
H            8.66893213449123        1.80558349634127        0.81182767396764
H            9.21499271208143        1.13843353740362       -0.75396592145801
H           10.05548570854127        0.69431538092168        0.75159166050931
H            7.09780989733767       -4.24806507726193        1.65713920785080
H            5.47984547088742       -3.52207591062198        1.80693679865042
H            6.05813437490088       -4.10646869451795        0.21887960203943
H            4.43127610398131       -2.41927613768303        0.00537508458218
H           -0.17120724644832       -1.69320545617326       -1.60893447569740
H           -1.02080716498235       -1.28212957716947       -0.10955422014182
H            0.55617226170715       -2.06225538416332       -0.05127382842140
H           -4.68140177286709        2.96136626170265       -0.16624231229355
H           -3.76171798840929        2.91993749282670        2.73432372502294
H           -4.87727382976589        1.75605481590833        1.99813730998487
H           -5.33676812030720        3.45168628635247        2.15037406306070
H           -2.64305846457160        4.70404281073980        1.26874125301749
H           -3.10395189917904        4.83707316424650       -0.43525371583938
H           -4.26865515303282        5.18908593736853        0.82713414042271
H           -0.58468891969999        2.81377035880151        2.65391173279584
72
 energy: -103.315691453882 gnorm: 0.028737147223 xtb: 6.6.1 (8d0f1dd)
N           -1.48725858478563        2.86508253052991        2.17889538822441
C           -1.60280712582616        2.16818979621318        1.13858217283286
C           -2.77986035778603        2.08482728009192        0.24078425216023
C           -3.34159592850915        0.66878052048646        0.31770638965303
C           -4.33149235479686        0.26306926075990       -0.57921437221992
C           -4.86710482547126       -1.00984598367238       -0.53695866739486
O           -5.83773170103607       -1.48265600036475       -1.36419946601978
C           -6.42627722775694       -0.60144054183111       -2.28733325918100
C           -4.40002508591246       -1.93193625394893        0.42819866507115
O           -4.98124193287766       -3.16136586248059        0.39084138070514
C           -4.63383875469952       -4.09621344256077        1.38219416798919
C           -3.42185202988686       -1.52642606396601        1.31525556845485
C           -2.90127905896512       -0.23831236318678        1.26172285406926
C           -2.22926899171458        2.32987290562636       -1.18952525580405
C           -1.28500259538870        1.21653749732442       -1.70063685530522
C           -0.01766394410280        1.11418826688685       -0.91996355078484
N            0.62730919127031       -0.06353788021110       -0.54746932475068
C            2.00553839335221       -0.05657846392616       -0.15299647699411
C            2.94835555120107       -0.56381166342750       -1.26620404148368
C            4.37854434922531       -0.45386120662481       -0.82867076922151
C            5.09128644149535        0.71252904911938       -1.03579346149063
C            6.40263132319141        0.82911170999603       -0.59817560434600
C            7.02170181277629       -0.21917484272559        0.06046862929488
O            8.29857180994373       -0.21687001328684        0.52570914092714
C            9.08866181444638        0.92686044222431        0.31370662509940
C            6.29822739924821       -1.41380132317786        0.28432141976243
O            6.98476650955070       -2.39221064094070        0.93390981290185
C            6.35345561385406       -3.62656504067526        1.15765788899212
C            4.99154420624433       -1.51019040857989       -0.15721873430778
C           -0.04416342556411       -1.33185509250131       -0.59179042739503
C           -3.91037747041133        3.08907661110834        0.58569227489089
C           -4.51257672919491        2.78075293484493        1.95555923862151
C           -3.44377855800821        4.54286701047150        0.55374904472461
H           -4.69435494472140        0.96222673148667       -1.31500449212429
H           -6.88128236816253        0.26058827982986       -1.78818092514258
H           -7.20273185669980       -1.17920941739077       -2.78611370441286
H           -5.70337105561495       -0.25152695925228       -3.03200183694859
H           -4.84567334169058       -3.71553821826679        2.38664009005740
H           -5.25452244811110       -4.96936213721395        1.18859414063791
H           -3.57865747563806       -4.38153256533252        1.31730589236992
H           -3.05207047098608       -2.20551049147210        2.06851882969885
H           -2.15097558248710        0.04720950141694        1.98294363303168
H           -3.06505500128312        2.41550937906643       -1.88131624792678
H           -1.69041538483326        3.27795413323257       -1.19941711295979
H           -1.83373543991609        0.26856927240976       -1.68491101857038
H           -1.04999940184064        1.43986726561497       -2.74357662370980
H           -0.75550507481039        1.58692565182072        0.67296766991909
H            0.66614222092801        1.95918278477268       -0.98590172670446
H            2.13203481576441       -0.68891992149874        0.73265495758383
H            2.30229802421787        0.95938159389549        0.11925045495812
H            2.77969256404930        0.04012283607837       -2.15731366941641
H            2.70081087296173       -1.60121837616621       -1.49765045448377
H            4.63201561943346        1.54243011339131       -1.55138310335113
H            6.93646111306381        1.74740075853069       -0.78367538030860
H            8.66721213845093        1.80639816157442        0.81136620156072
H            9.21370984893837        1.13851889085554       -0.75368929956739
H           10.05798895005825        0.69607036310200        0.75124728466215
H            7.09574964686295       -4.24819661402843        1.65713294190909
H            5.47734455324332       -3.52149775567086        1.80603737070851
H            6.05638147426396       -4.10535264259325        0.21849868735970
H            4.43160768664714       -2.41847198201021        0.00463588330651
H           -0.17892086368324       -1.69202836496630       -1.61797668024960
H           -1.02614385304048       -1.27133808888235       -0.11555488233205
H            0.55054314304841       -2.06675124120391       -0.05137450332758
H           -4.69439022567133        2.96640352727677       -0.16990453305383
H           -3.76026988850293        2.91788392599840        2.72644077911540
H           -4.87848505557753        1.75779713320531        1.99779713633642
H           -5.34302931922115        3.45406818790572        2.15339528573286
H           -2.64186025910990        4.69500285078733        1.26762896010803
H           -3.10437562454415        4.83486935201781       -0.43632755635655
H           -4.27310691746105        5.19249555895318        0.82702097861742
H           -0.59127225583799        2.81862068260693        2.65867421306032
72
 energy: -103.316113363871 gnorm: 0.019078018444 xtb: 6.6.1 (8d0f1dd)
N           -1.47702963875281        2.86066526848061        2.16040522550672
C           -1.59031392954676        2.16771031892726        1.12006492182267
C           -2.78481751171889        2.08710540668481        0.22971954473932
C           -3.33810730137706        0.66874966147754        0.30990121977806
C           -4.33112901876813        0.26204681380755       -0.58183589162079
C           -4.86453149591962       -1.01123649083389       -0.53775778707578
O           -5.83901870743015       -1.48450620581437       -1.36394150542793
C           -6.42739717056064       -0.60330717567724       -2.28596789798139
C           -4.39636272467068       -1.93229214269278        0.42605804563880
O           -4.98135716523332       -3.16242062750529        0.39121115511940
C           -4.63503338513646       -4.09601587806001        1.38203775118921
C           -3.41616569708784       -1.52810411925624        1.31125075951866
C           -2.89376661783156       -0.24020297117880        1.25342455176491
C           -2.23912438593340        2.34086876311192       -1.20089466500395
C           -1.28892809333648        1.22173864138290       -1.69338165316362
C           -0.01521546603092        1.11811080383801       -0.91145587909852
N            0.62249915837943       -0.06320846327843       -0.54148633559802
C            2.00160401193543       -0.05590911491424       -0.14722359897891
C            2.94706212440786       -0.56421296920109       -1.26018497540272
C            4.37503762494199       -0.45214293813318       -0.82425923718290
C            5.08887614307287        0.71334272065959       -1.03282318263718
C            6.40111328443854        0.82936827140856       -0.59824325052302
C            7.01903507012059       -0.21898905182473        0.05976476126913
O            8.29964904428954       -0.21758692510990        0.52522719752022
C            9.08775985606286        0.92573112115789        0.31319349162785
C            6.29655604127244       -1.41270428354628        0.28486427021321
O            6.98643663741991       -2.39276423220310        0.93380145313222
C            6.35546241533880       -3.62697130282616        1.15781935759592
C            4.98979914425872       -1.50963710600848       -0.15406642736023
C           -0.03940116698178       -1.33649488078078       -0.58619120978634
C           -3.90830469671558        3.09218566855922        0.58988304695369
C           -4.50755933064500        2.77936604820208        1.96022341241295
C           -3.44175656212278        4.54666879420030        0.55577968418888
H           -4.69682624029234        0.96171848433545       -1.31478935198785
H           -6.88263622877729        0.25888262256387       -1.78705376175364
H           -7.20396224028745       -1.18192038267242       -2.78368433161018
H           -5.70568280913476       -0.25310741375672       -3.03206952701465
H           -4.84672480863114       -3.71556281201065        2.38687587069131
H           -5.25713034650923       -4.96821387508886        1.18792582808741
H           -3.58005619813337       -4.38371304374768        1.31788996613125
H           -3.04852463036153       -2.20516444396914        2.06634812742049
H           -2.14561060065620        0.04542793434439        1.97646994186627
H           -3.08466798908898        2.42919244709775       -1.88977575274716
H           -1.70989642347228        3.29608876854232       -1.21050736934978
H           -1.84673226809107        0.28620208782052       -1.68468234893647
H           -1.04889517524710        1.44973467604683       -2.74255900867664
H           -0.77305024199779        1.56576077073744        0.65710389407890
H            0.65521076753058        1.95946348220452       -0.96787552981731
H            2.13390819314814       -0.69067765679856        0.73927460443423
H            2.30519723131963        0.95692827917580        0.12755102187909
H            2.77795521655629        0.04026794344090       -2.15232666742191
H            2.69956415671777       -1.60129229367727       -1.49162134596967
H            4.62972091292084        1.54249444552093       -1.55004583645025
H            6.93556350166528        1.74722503109026       -0.78614897926400
H            8.66763622453978        1.80601381672942        0.81149539325002
H            9.21437021637515        1.13813283229642       -0.75386908584148
H           10.05692038251469        0.69368745468979        0.75154868176154
H            7.09863408242556       -4.24734344729344        1.65663644417373
H            5.47936328280998       -3.52294538076129        1.80732132046094
H            6.05767054261101       -4.10665305936488        0.21900170595709
H            4.42992837897517       -2.41823413856981        0.00700901315775
H           -0.17029163705372       -1.69790912427340       -1.61310977408190
H           -1.02107679924994       -1.28210012728770       -0.10820856145832
H            0.56352176787962       -2.06534082782318       -0.04445137794958
H           -4.69203047144833        2.96686644595433       -0.16522059578962
H           -3.75824650190485        2.91710483037136        2.73363568364950
H           -4.87294627683125        1.75568703530969        2.00082649163221
H           -5.33977224677560        3.45169287707482        2.15498863224892
H           -2.63806422762592        4.70274924793544        1.26950868204653
H           -3.10197307714883        4.83796765949864       -0.43505690763027
H           -4.27190151114404        5.19422942641550        0.82841827621403
H           -0.57885010267366        2.79584289232166        2.63459246892223
72
 energy: -103.316628069067 gnorm: 0.009183325462 xtb: 6.6.1 (8d0f1dd)
N           -1.49483101189939        2.85992931782448        2.17617805669060
C           -1.59284752307269        2.17830000943065        1.12353427502051
C           -2.78520424270632        2.08518991812819        0.23444167822366
C           -3.33721248647004        0.66704251113264        0.31584999961985
C           -4.32879850695073        0.26206664778142       -0.57835336469245
C           -4.86476138239982       -1.00970214106544       -0.53491730360092
O           -5.83751810949264       -1.48194111590722       -1.36365718105147
C           -6.42487834648990       -0.60100598375285       -2.28645287959505
C           -4.39868983749949       -1.93101396219084        0.42902236195903
O           -4.98194356943375       -3.16157986061616        0.39140747698477
C           -4.63450070138824       -4.09543797006635        1.38139799972000
C           -3.41990289090052       -1.52873211518961        1.31658203221535
C           -2.89680129779849       -0.24166917393293        1.26117991210564
C           -2.23865315765883        2.33995658228934       -1.19437496577464
C           -1.29080958548268        1.22203654991347       -1.69313586570926
C           -0.01423886365626        1.11332700728474       -0.91991159140501
N            0.62622814676174       -0.06530153705619       -0.54702158336928
C            2.00626730892626       -0.05930212128732       -0.15017324748852
C            2.95022189796467       -0.56554885202161       -1.26545662465480
C            4.37723084657684       -0.45262695024614       -0.82720114862208
C            5.09103406870031        0.71334952280645       -1.03480558211550
C            6.40261783407119        0.82985775079390       -0.59915635145160
C            7.01903685625912       -0.21890746390819        0.05898066282133
O            8.29880045816877       -0.21672290918894        0.52570659321502
C            9.08723523809599        0.92617644275671        0.31351042723015
C            6.29668720771861       -1.41289791280460        0.28318192761600
O            6.98481288489542       -2.39284140806423        0.93348986810844
C            6.35365776790789       -3.62672321851231        1.15745740724492
C            4.99084858753810       -1.51035493797843       -0.15670454793127
C           -0.04177384812494       -1.33403043177608       -0.58993761101807
C           -3.90606357612158        3.08956779545506        0.59048665988942
C           -4.51050209713974        2.77865750142116        1.95797539635098
C           -3.44081014148778        4.54354172726432        0.55363008705063
H           -4.69271904044808        0.96288369903120       -1.31147626646376
H           -6.88149336556530        0.26107448942569       -1.78857284346488
H           -7.20071860369398       -1.17981012338708       -2.78504421170511
H           -5.70299861043603       -0.25083065138413       -3.03228551172514
H           -4.84634078372250       -3.71685921165377        2.38695299807317
H           -5.25479274378148       -4.96856512464798        1.18649008256157
H           -3.57942134779427       -4.38220658424784        1.31752901846194
H           -3.05438744403990       -2.20659688144183        2.07229014145335
H           -2.15140145290359        0.04315777783784        1.98766143665566
H           -3.08111485686815        2.42698107955807       -1.88405055768600
H           -1.70096743803524        3.28919938442273       -1.20416757709919
H           -1.84552857454599        0.28465803670711       -1.68598146028413
H           -1.04118236372845        1.43580024435280       -2.73874148432523
H           -0.77471057832782        1.57989889331477        0.65424088122410
H            0.65931015950793        1.95508787366439       -0.97576383640813
H            2.13950441588351       -0.69245895312093        0.73739495480974
H            2.31337389347597        0.95301419292159        0.12300763414583
H            2.78225315160095        0.03875302895073       -2.15759638541314
H            2.70282489134037       -1.60234963154780       -1.49768870048993
H            4.63278517244354        1.54259674848583       -1.55268840886220
H            6.93678484162929        1.74807262502403       -0.78538774435062
H            8.66809974490086        1.80669517086939        0.81182798390164
H            9.21486609326643        1.13872438251245       -0.75351954107084
H           10.05617702875672        0.69481249384147        0.75219518304536
H            7.09595622509820       -4.24764557112462        1.65729540507067
H            5.47747605596001       -3.52165797475672        1.80629155737117
H            6.05685323829034       -4.10643567421712        0.21845807218306
H            4.43125119857069       -2.41932613156255        0.00303442695662
H           -0.17406138681794       -1.69400817974705       -1.61562401962873
H           -1.02316156828842       -1.27753110522451       -0.11239483632717
H            0.55697989094950       -2.06511743199563       -0.05036388247761
H           -4.68404645171327        2.96000111948565       -0.16864836493209
H           -3.76417981762688        2.91881715311288        2.73373857631160
H           -4.87933162555389        1.75613484062351        1.99795483445244
H           -5.34103289726628        3.45330305855688        2.14781295476089
H           -2.64076918210308        4.70290557717896        1.26900732909321
H           -3.10174252981229        4.83515805382273       -0.43696561439464
H           -4.27169347943807        5.18935762166337        0.82490923852463
H           -0.59545149098242        2.81578735345471        2.65239785192893
72
 energy: -103.316642410643 gnorm: 0.008953988872 xtb: 6.6.1 (8d0f1dd)
N           -1.48528125793981        2.85553759309869        2.17707225573630
C           -1.59066130458999        2.17152553399870        1.12593069218354
C           -2.78431676602080        2.08489484775671        0.23689302010473
C           -3.34117347843144        0.66906214643499        0.31441733958226
C           -4.33202755317235        0.26293993879217       -0.58096735646225
C           -4.86644359453515       -1.00980812598525       -0.53722426285095
O           -5.83896747034146       -1.48340010378323       -1.36497126002586
C           -6.42818354183289       -0.60297839545264       -2.28682181330878
C           -4.39829834837661       -1.93057360773485        0.42618513584292
O           -4.98061472396990       -3.16152655015756        0.39024703113331
C           -4.63396842477232       -4.09438690233259        1.38166772349197
C           -3.41804046478762       -1.52711695959520        1.31176451756154
C           -2.89777473103270       -0.23923325039452        1.25710793042267
C           -2.23636463511536        2.33507438493957       -1.19179023137401
C           -1.29169423583104        1.22045666973176       -1.69889855700841
C           -0.01659507477143        1.11314539787570       -0.92622034684453
N            0.62471743284771       -0.06327067542238       -0.54782350889876
C            2.00321406657035       -0.05466571264332       -0.14775830651455
C            2.94775875949578       -0.56293009602155       -1.26151188679239
C            4.37591938998287       -0.45230640562237       -0.82428042740629
C            5.09011806788291        0.71322428162719       -1.03284682575760
C            6.40201613921175        0.82978566784294       -0.59781197579472
C            7.01893137721897       -0.21905301967404        0.05984591013491
O            8.29867035141042       -0.21674682082767        0.52546064826034
C            9.08744188712171        0.92581530217311        0.31277437292597
C            6.29641917772725       -1.41286504760464        0.28461201192323
O            6.98469683510430       -2.39264239250498        0.93412262565026
C            6.35458748048242       -3.62690979588645        1.15783478514368
C            4.98993141090891       -1.50993771764336       -0.15384163948057
C           -0.04377452597111       -1.33152197059860       -0.58899922363917
C           -3.90668525050344        3.09003294703416        0.58935286906184
C           -4.50792630822979        2.77939662776423        1.95812196801477
C           -3.44185634912699        4.54368881700695        0.55523000185515
H           -4.69666342586463        0.96267422742820       -1.31527094943897
H           -6.88371102927246        0.25905600459925       -1.78789856251454
H           -7.20495655649446       -1.18140722057780       -2.78454947644448
H           -5.70703830462021       -0.25283657844833       -3.03324609720653
H           -4.84517072810009       -3.71420225505239        2.38675471603910
H           -5.25504695500572       -4.96756636624679        1.18901818772965
H           -3.57928077247175       -4.38240769191168        1.31814849481814
H           -3.04752229361414       -2.20555934190314        2.06459641601531
H           -2.14694702206766        0.04606532220052        1.97787684616112
H           -3.07377445181961        2.41935304796595       -1.88427473153246
H           -1.69476575427828        3.28121441925287       -1.20296185225411
H           -1.83855672495303        0.27664262518091       -1.69040166062876
H           -1.04399889649859        1.43623460136222       -2.74213476356094
H           -0.76866280555030        1.57532037884096        0.65639127363583
H            0.65911868486044        1.95782625037003       -0.97989986198875
H            2.13234707046034       -0.68640041314728        0.74030560653142
H            2.30453016431285        0.95994366708039        0.12396546310305
H            2.77880985407870        0.04060338514863       -2.15357668010305
H            2.69875729354074       -1.59961330833130       -1.49283411631556
H            4.63105352454216        1.54295618757210       -1.54925577736301
H            6.93586241431959        1.74786600943413       -0.78418742709985
H            8.66832441327461        1.80614999971133        0.81125150454243
H            9.21382074311550        1.13848085323201       -0.75441886638448
H           10.05709475172478        0.69522158449834        0.75034187300577
H            7.09759008952099       -4.24815147543953        1.65663632724135
H            5.47907192074131       -3.52248229332478        1.80731703149501
H            6.05731691302406       -4.10585656943458        0.21872260188124
H            4.43002279230512       -2.41827679829648        0.00763579992942
H           -0.17589583204479       -1.69284023014362       -1.61369202641535
H           -1.02547882633084       -1.27496828565566       -0.11261118356915
H            0.55300277014253       -2.06296582827476       -0.04889422422424
H           -4.68896856750236        2.96542979129747       -0.16687680151094
H           -3.75672054439767        2.91810094889695        2.72921076719524
H           -4.87573219043250        1.75682414806701        1.99868135068800
H           -5.33748963486466        3.45319333552092        2.15528497164332
H           -2.64040253032192        4.69849674483521        1.26883851673808
H           -3.10525164059003        4.83743383456546       -0.43515458557340
H           -4.27045362967974        5.19115258819099        0.83059718655934
H           -0.58282232420948        2.81072298222093        2.64997377976848
72
 energy: -103.316784773435 gnorm: 0.004339596117 xtb: 6.6.1 (8d0f1dd)
N           -1.48619387327820        2.86270353512307        2.17191507745316
C           -1.59149287321519        2.17221120127291        1.12592770380314
C           -2.78556737216102        2.08573729286061        0.23562012142317
C           -3.33982431634971        0.66875284683749        0.31459512618841
C           -4.33042127946489        0.26205883096344       -0.58047561736808
C           -4.86504180275890       -1.01058492297046       -0.53631143419806
O           -5.83774296247991       -1.48355544812760       -1.36444995687102
C           -6.42518993059347       -0.60211964184833       -2.28630414162243
C           -4.39833425285759       -1.93114003430867        0.42780480935875
O           -4.98119175799355       -3.16217864950342        0.39138514295943
C           -4.63496749026672       -4.09604319940862        1.38167720176163
C           -3.41921294372533       -1.52719662622141        1.31450575591081
C           -2.89769759152330       -0.23948432602932        1.25861929594737
C           -2.23798035763330        2.33872497050094       -1.19296894685722
C           -1.29098756821397        1.22333696084911       -1.69402367934653
C           -0.01555161224202        1.11408980472855       -0.91963841613453
N            0.62519476584334       -0.06444301026026       -0.54527751619013
C            2.00473604624358       -0.05747758914850       -0.14963197754570
C            2.94890054096162       -0.56465469285360       -1.26454128814821