25
 energy: 37.398253087300 xtb: 6.6.1 (8d0f1dd)
C            4.83430788583215        0.96943280942381        0.23225777678701
N            2.03561622635042        0.31554334582859       -0.29922736599378
C            2.35173893293352       -0.93267425685582       -0.13062334330022
N            1.24924404236460       -1.72462176846356        0.00258714425247
C            0.17225621841728       -0.89240824667739       -0.01377467136906
C            0.65437807338699        0.40090608876365       -0.11383899006577
C           -0.28766608053024        1.50958353426435       -0.02405444050473
O           -0.08710860695830        2.69302641748292        0.03048611803541
N           -1.61911441989908        1.02810826935950       -0.06157705069128
C           -2.67335342223232        2.02152263125032       -0.09847367127672
C           -2.08284553727325       -0.26550563658023       -0.06318743940111
O           -3.25729993769586       -0.55228185408604       -0.11018767770324
N           -1.12868124537136       -1.27188908741209        0.02390938337831
C           -1.57663980846364       -2.65187548351902       -0.01086623923342
H            5.35463631741342        0.97978374251575        1.15797896635055
H            5.50205366963411        1.07622058452468       -0.61161361054828
H            3.73695925928539        1.09180837588464        0.13254231670746
H            3.33425105686062       -1.37019210835857       -0.02591836234730
H           -2.22747182809474        3.01299021844730       -0.10801443815594
H           -3.28139657329480        1.87050070661709       -0.98876220710941
H           -3.31516534455008        1.90101045512334        0.77260692344283
H           -1.25522057886400       -3.19059274701314        0.88060812854439
H           -1.23270497086094       -3.17748791769488       -0.90715260057249
H           -2.66505976849106       -2.62494476105586       -0.03319399986375
H            1.21320432582662       -2.72607680308935       -0.00625061554149
