25
 energy: 8.021164188585 xtb: 6.6.1 (8d0f1dd)
C            3.61617327058824        1.09161375000773        0.11669014139961
N            2.43275374050163        0.20138596446317        0.03744434769888
C            2.58420933716528       -1.17963634805382        0.02982246624423
N            1.38701637471094       -1.85206510235167       -0.00326938489353
C            0.39523494442771       -0.94499983652859       -0.00992099414152
C            0.95342353435377        0.35262845911382        0.01762343586298
C            0.03663157023427        1.44280466053105       -0.01029776453571
O            0.32036346419186        2.63894215650290       -0.00697531141414
N           -1.34828879762969        1.03802632273970       -0.03974603102971
C           -2.34134340816406        2.09714093670202       -0.06172078118276
C           -1.87762977763946       -0.21013818168828       -0.05573667073179
O           -3.07119883080125       -0.42917977681796       -0.07911285959146
N           -0.95338176248201       -1.25282557438376       -0.04066133080866
C           -1.48701167464781       -2.60335518187355       -0.04683929822132
H            4.18396106623088        1.07989235593610        1.05120677299615
H            4.38373404649124        0.99829000133183       -0.67904104481618
H            3.20255973850007        2.07714214148046        0.08123148294761
H            3.52363369808692       -1.68058956833678        0.00498290446482
H           -1.80721216499369        3.03511699328680       -0.04846458929202
H           -2.95391583917359        2.02670285013213       -0.96149581916427
H           -2.99813907681581        2.02020864366409        0.80547437339748
H           -1.20399674195418       -3.15762136565138        0.85107047895217
H           -1.17795205570064       -3.16143653646321       -0.93463516145015
H           -2.57845010188298       -2.50825460885011       -0.06203353617748
H            1.29514756274084       -2.86383595005048       -0.01786712737924
