25
 energy: -42.184513280869 gnorm: 0.006609328467 xtb: 6.6.1 (8d0f1dd)
C            3.29511125045533        1.28920793012842        0.04016734924084
N            2.35932636621609        0.20934101282741        0.16809798008392
C            2.63394673205032       -1.10308406239545        0.35455169487169
N            1.55314144173316       -1.84898928580539        0.40756120918553
C            0.52099528466636       -1.00344931706100        0.24777355245554
C            0.99716071218714        0.30141952486467        0.08744884304137
C            0.12067532059496        1.43184264472363       -0.05369126227530
O            0.45623522211963        2.59229030543322       -0.16335130808626
N           -1.22763263803748        1.04215813705513       -0.05171633152547
C           -2.22641546474325        2.09250557474914       -0.14434180386141
C           -1.73396404743915       -0.23619154409214        0.02983732074887
O           -2.91343535648755       -0.46975675337365       -0.03519697103161
N           -0.80976592608002       -1.30457780343089        0.22717718919699
C           -1.27871339970113       -2.57531983797031        0.37161221818955
H            3.88888939309901        1.38835931005802        0.95017862709931
H            3.97236757147051        1.10730167224018       -0.79636525043495
H            2.74685015113384        2.21544917451178       -0.13144848409871
H            3.62507623726026       -1.49782963091173        0.45037645140181
H           -1.71183668702874        3.05228622710942       -0.14122159914524
H           -2.80912553414898        1.98265003768223       -1.05997286975579
H           -2.91085397957508        2.02602506288870        0.70258726759632
H           -0.60751561454894       -3.25452393972845        0.88310661402123
H           -1.24185371025230       -3.28817306217624       -1.01709654329199
H           -2.34436302898584       -2.64549770967586        0.53408006779937
H           -1.19386878186269       -3.68520512604224       -1.82898234352784
