25
 energy: -42.179511985247 gnorm: 0.005093902414 xtb: 6.6.1 (8d0f1dd)
C            3.26796584889652        1.18238816032859       -0.00881147845098
N            2.29224684029391        0.13592637709810        0.09649770973124
C            2.51856681785851       -1.19670322920145        0.15269464275646
N            1.41284953467724       -1.90026494536954        0.26565991046757
C            0.41540828844708       -0.99848675652986        0.28213983619912
C            0.93406452135327        0.29328234197379        0.17060225061607
C            0.07731306806292        1.44331671645748        0.04946734477675
O            0.43488419763454        2.59738094038398       -0.05130530805391
N           -1.27889496708139        1.07874227192134        0.02669798022986
C           -2.25150860988429        2.14347482815340       -0.14865422698927
C           -1.81951955233894       -0.19099430772113        0.10611424780897
O           -3.00260245855893       -0.39704665479352        0.02544678726886
N           -0.91859273656091       -1.26225349367393        0.31222449956866
C           -1.35206466556816       -2.57387055491654        0.33939165142338
H            3.88054102230999        1.22200297159589        0.89468901967761
H            3.92322543499185        1.00402106225146       -0.86278220294856
H            2.75588006366679        2.13671180519561       -0.13362113501780
H            3.48108209732282       -1.65807147060540        0.07946933857674
H           -1.72021935437345        3.09394858044724       -0.16549419458266
H           -2.79706660741752        2.00196618644217       -1.08349919785371
H           -2.97362931801071        2.12703333354630        0.66910899661643
H           -0.85532861818016       -3.19649443653449        1.07376967456654
H           -0.73957917413545       -3.16607167195904       -0.81953483936351
H           -2.42494025475015       -2.68279273421178        0.23150138115049
H           -0.09964990455469       -3.41890677867808       -1.47060107027331
25
 energy: -42.180354167774 gnorm: 0.004517339617 xtb: 6.6.1 (8d0f1dd)
C            3.26962235885176        1.19115219192198       -0.00765459926450
N            2.29679125241873        0.14257283756060        0.09854902719701
C            2.53025932106313       -1.18782015858043        0.16416350639648
N            1.42550241521769       -1.89609345457738        0.27139112077984
C            0.42326896372905       -0.99824618503614        0.28052034103213
C            0.93809476788551        0.29509928049390        0.16853088497895
C            0.07979121504840        1.44385553773253        0.04593378970301
O            0.43594192639485        2.59852108746580       -0.05278104403730
N           -1.27602435090429        1.07802953030722        0.02380628682334
C           -2.25005588362826        2.14291608070857       -0.14669661281852
C           -1.81430635568436       -0.19242308773922        0.10228364030440
O           -2.99723064401218       -0.39998776939770        0.02366480619806
N           -0.91165149043041       -1.26302751403946        0.30779348753612
C           -1.34861694763058       -2.57284435806330        0.34104018908833
H            3.88021871296072        1.23389396912393        0.89707011990422
H            3.92668162732738        1.01083193710207       -0.86001967929399
H            2.75504443726742        2.14356074457105       -0.13638668177311
H            3.50135202359554       -1.63895307919534        0.11348670895065
H           -1.71915713897118        3.09369970901823       -0.16216586483656
H           -2.79750489320708        2.00393475759737       -1.08108785997577
H           -2.97065801713607        2.12452098269964        0.67256996597839
H           -0.85544636009562       -3.19375264436988        1.07878900923286
H           -0.75024075960807       -3.18997453252003       -0.81577810192225
H           -2.42214725750933       -2.67855786737168        0.23499328697321
H           -0.18909740884232       -3.47266945381131       -1.53084410925412
25
 energy: -42.181348284058 gnorm: 0.006789648170 xtb: 6.6.1 (8d0f1dd)
C            3.27269995365547        1.20752828379915       -0.00923060160534
N            2.30539005179659        0.15511754352651        0.10630283344284
C            2.55192319009622       -1.17112497897157        0.19400029695777
N            1.45028324679527       -1.88830908581166        0.29211176153897
C            0.43896722477443       -0.99912873347475        0.27802837693701
C            0.94561320241679        0.29769498799616        0.16432937381867
C            0.08458084603221        1.44388106591314        0.03833884328622
O            0.43811869161984        2.59975398667280       -0.05622471944918
N           -1.27024832926374        1.07533535967030        0.01793635459490
C           -2.24695915346937        2.14078907945861       -0.14006938643588
C           -1.80336183327961       -0.19702159705071        0.09313735217556
O           -2.98586735170926       -0.40777562929319        0.01694255734615
N           -0.89722549406069       -1.26721665587465        0.29452933427895
C           -1.34133889030488       -2.57352663709873        0.33755430522009
H            3.88229085201583        1.26170335593783        0.89555184271976
H            3.93089682559838        1.01983501731088       -0.85949263694852
H            2.75360429758239        2.15583535113221       -0.14951512560367
H            3.53761238080721       -1.60167890501151        0.18272898170887
H           -1.71664064457885        3.09212081379515       -0.15110201405885
H           -2.79897240882066        2.00885497328926       -1.07312266957944
H           -2.96346613592573        2.11657250200552        0.68291352067458
H           -0.84999588000268       -3.19531525885889        1.07600316169107
H           -0.80340417097756       -3.20609332737488       -0.84707208754594
H           -2.41696387619290       -2.67073152453649        0.24201516087973
H           -0.33710508050419       -3.57886144554951       -1.59542319814327
25
 energy: -42.182117562453 gnorm: 0.007723433300 xtb: 6.6.1 (8d0f1dd)
C            3.27697709811445        1.22602580563208       -0.00856179055667
N            2.31572001317270        0.16897121129081        0.11917572993299
C            2.57395415918975       -1.15359662419885        0.22972027035983
N            1.47665048691510       -1.87971643970137        0.31762194376093
C            0.45664324182994       -1.00043788242567        0.27338504356397
C            0.95447377293352        0.30027074061042        0.15668438062604
C            0.09100722995731        1.44373712443359        0.02664529600824
O            0.44202417217736        2.60081217177160       -0.06407595087851
N           -1.26251881467004        1.07207132902933        0.00873284154375
C           -2.24270109538720        2.13725696214941       -0.13335697605752
C           -1.78969758650762       -0.20240300603840        0.07981211449480
O           -2.97178454300365       -0.41674619870097        0.00610003983862
N           -0.88024239705496       -1.27299570323926        0.27396588361240
C           -1.33562315689949       -2.57485831722369        0.32795561034267
H            3.88632429113576        1.29559970148655        0.89533708812770
H            3.93599927428057        1.03062087009660       -0.85676615330664
H            2.75292602577270        2.16965993783482       -0.16239846776636
H            3.57006406072221       -1.56354750227842        0.24966123602284
H           -1.71352425196975        3.08938660203666       -0.13885958822987
H           -2.80057300331704        2.01343673030902       -1.06411162298633
H           -2.95338553190261        2.10453822564323        0.69456538349972
H           -0.83480170892169       -3.20284250062787        1.05382679707202
H           -0.87471301163561       -3.27157051495438       -0.86279652451744
H           -2.41560707364925       -2.65884705380750        0.26075588339083
H           -0.49716013718243       -3.63658712752591       -1.65184684999730
25
 energy: -42.182830388542 gnorm: 0.006605131213 xtb: 6.6.1 (8d0f1dd)
C            3.28104601745986        1.24331084820555       -0.00371110331394
N            2.32588996168784        0.18119204821614        0.13499415197229
C            2.59203212329166       -1.13871093229491        0.26494737655633
N            1.49952165547404       -1.87210814613679        0.34322486812066
C            0.47295275055492       -1.00251279478036        0.26910431404416
C            0.96302698562291        0.30139959050947        0.14582080792340
C            0.09748930588476        1.44217825587677        0.01252231770034
O            0.44613223440826        2.60014269795874       -0.07775933629139
N           -1.25455939816674        1.06696153934237       -0.00255811837907
C           -2.23844569776125        2.13070638999479       -0.12910410975090
C           -1.77606171602272       -0.20931252406342        0.06605436897016
O           -2.95784180119210       -0.42711337612717       -0.00489227341940
N           -0.86379661084073       -1.28048761494561        0.25546574452217
C           -1.33085518159480       -2.57581781449818        0.32445577757032
H            3.88989726235427        1.32864839998556        0.89911141068455
H            3.94141213718824        1.04271182384744       -0.84974882748263
H            2.75169752222602        2.18213150846683       -0.16944727333972
H            3.59125232480964       -1.53326650002956        0.30212299515088
H           -1.71094238553733        3.08380891128275       -0.12942478109735
H           -2.80230951961508        2.01417058659894       -1.05691492990293
H           -2.94269410849275        2.08873092508229        0.70390280167974
H           -0.80236841442137       -3.21534596393773        1.02120911767618
H           -0.95110539345477       -3.27943981869557       -0.90417497508924
H           -2.41611714978603       -2.64575663307796        0.30125823302703
H           -0.64482138997683       -3.70798286517831       -1.68528693963091
25
 energy: -42.183494611295 gnorm: 0.007551957997 xtb: 6.6.1 (8d0f1dd)
C            3.28560477316842        1.26100666313518        0.00738780365718
N            2.33732160991602        0.19311044912258        0.15188535863342
C            2.60812214175854       -1.12457992364425        0.29996485312945
N            1.52098744191398       -1.86371978038410        0.36871039331825
C            0.49026180752902       -1.00412943065148        0.26306726262500
C            0.97323582646454        0.30188785411612        0.12853974043007
C            0.10531739887530        1.43967823794536       -0.00632251365327
O            0.45102792812121        2.59833070143455       -0.10078342967490
N           -1.24502192357981        1.05990974181868       -0.01820814681893
C           -2.23361757770786        2.12022240790328       -0.12916053175193
C           -1.76039298121050       -0.21785355798443        0.05026796592485
O           -2.94182815010631       -0.43986762500382       -0.01789474127642
N           -0.84486472339966       -1.28933850519421        0.23780456946994
C           -1.32156732721010       -2.57619068264656        0.32907786621884
H            3.89161866275984        1.35970203924043        0.91025544243390
H            3.94953168740732        1.05994807416849       -0.83551403949931
H            2.74966739217544        2.19441116009783       -0.16677402496092
H            3.60569756421490       -1.51032214206852        0.35238205455595
H           -1.70921230835496        3.07494138636930       -0.12492349131438
H           -2.80412224066444        2.00980328063116       -1.05303017419035
H           -2.93051371721569        2.06760539387781        0.70920794159946
H           -0.74549566850611       -3.23114026844418        0.97699552534481
H           -1.04705455276943       -3.29014220147008       -0.94767387470511
H           -2.40942174009645       -2.63409399990057        0.36888629592733
H           -0.81484980938410       -3.74094073086534       -1.72297648752267
25
 energy: -42.183929201453 gnorm: 0.010797344410 xtb: 6.6.1 (8d0f1dd)
C            3.29003644755371        1.27663019212800        0.02045618652812
N            2.34807066121916        0.20331275529143        0.16485308107326
C            2.62172915275396       -1.11226395367694        0.33150128589620
N            1.53887752981460       -1.85546106063155        0.39236344220728
C            0.50614097567773       -1.00399844404703        0.25760894436988
C            0.98384856963216        0.30262852184143        0.11005382531903
C            0.11286595127618        1.43723974576337       -0.02678432037877
O            0.45488534345791        2.59663513104715       -0.12717521641439
N           -1.23611212999262        1.05280195786002       -0.03432467623638
C           -2.22962409556989        2.10879288582612       -0.13263889470723
C           -1.74608180750236       -0.22584040264834        0.03709005432492
O           -2.92688427212871       -0.45276475685607       -0.02941059909733
N           -0.82685066224340       -1.29649849478527        0.22744105618696
C           -1.30623442020558       -2.57501114702836        0.34392158900788
H            3.89155012412975        1.38298968222508        0.92496317146321
H            3.95900488076928        1.07905571566218       -0.81909883827339
H            2.74780772130842        2.20540599945271       -0.15808683104378
H            3.61750931495295       -1.49606361118426        0.40400830667905
H           -1.70918469120430        3.06555590823615       -0.12579781147912
H           -2.80629664474059        2.00195124445756       -1.05258528773602
H           -2.91985569846063        2.04685820349721        0.71041050673291
H           -0.68128062538656       -3.24446597370592        0.93460559305123
H           -1.13667966429848       -3.29558094322340       -0.98244307977286
H           -2.38936930552411       -2.63141216449953        0.44062946521089
H           -0.99744114119079       -3.75225844939654       -1.78038933501217
25
 energy: -42.184168954490 gnorm: 0.014894314487 xtb: 6.6.1 (8d0f1dd)
C            3.29322486431786        1.28546087433250        0.03590950990664
N            2.35586733291102        0.20745307951616        0.16791289467024
C            2.62832168028113       -1.10654248238366        0.34609392943206
N            1.54742530900062       -1.85088825797378        0.40055871279472
C            0.51618802287676       -1.00405771979614        0.24865661137307
C            0.99301033779480        0.30109171988723        0.09008128757057
C            0.11886140279057        1.43315040671095       -0.04701434774008
O            0.45690181207257        2.59310600753665       -0.15536032775729
N           -1.22948403722143        1.04495257826312       -0.04819619092192
C           -2.22685311700953        2.09640104200549       -0.14053911629680
C           -1.73675652497295       -0.23335319348162        0.02988642651663
O           -2.91690379630435       -0.46431124141209       -0.03497651088303
N           -0.81449858797656       -1.30326480469903        0.22446237846307
C           -1.28889750409132       -2.57481806715586        0.36310878587613
H            3.88830243436378        1.38751141547833        0.94431347224417
H            3.96905688975300        1.09993248955486       -0.80079163804356
H            2.74609746146446        2.21182125968864       -0.13714655761750
H            3.61921408683773       -1.49980921375746        0.43460319518374
H           -1.71063923486392        3.05526233986294       -0.13559695899886
H           -2.80850388855022        1.98836265332807       -1.05678365691913
H           -2.91208321527331        2.02972524741300        0.70569793852048
H           -0.61809157363373       -3.25473908838091        0.89088085600585
H           -1.22589301004514       -3.28817151351462       -1.01761709324871
H           -2.36006442725534       -2.63853878514127        0.51536610393410
H           -1.12337120317021       -3.69749820427414       -1.79233808616623
25
 energy: -42.184513280798 gnorm: 0.006609018955 xtb: 6.6.1 (8d0f1dd)
C            3.29511125045533        1.28920793012842        0.04016734924084
N            2.35932636621609        0.20934101282741        0.16809798008392
C            2.63394673205032       -1.10308406239545        0.35455169487169
N            1.55314144173316       -1.84898928580539        0.40756120918553
C            0.52099528466636       -1.00344931706100        0.24777355245554
C            0.99716071218714        0.30141952486467        0.08744884304137
C            0.12067532059496        1.43184264472363       -0.05369126227530
O            0.45623522211963        2.59229030543322       -0.16335130808626
N           -1.22763263803748        1.04215813705513       -0.05171633152547
C           -2.22641546474325        2.09250557474914       -0.14434180386141
C           -1.73396404743915       -0.23619154409214        0.02983732074887
O           -2.91343535648755       -0.46975675337365       -0.03519697103161
N           -0.80976592608002       -1.30457780343089        0.22717718919699
C           -1.27871339970113       -2.57531983797031        0.37161221818955
H            3.88888939309901        1.38835931005802        0.95017862709931
H            3.97236757147051        1.10730167224018       -0.79636525043495
H            2.74685015113384        2.21544917451178       -0.13144848409871
H            3.62507623726026       -1.49782963091173        0.45037645140181
H           -1.71183668702874        3.05228622710942       -0.14122159914524
H           -2.80912553414898        1.98265003768223       -1.05997286975579
H           -2.91085397957508        2.02602506288870        0.70258726759632
H           -0.60751561454894       -3.25452393972845        0.88310661402123
H           -1.24185371025230       -3.28817306217624       -1.01709654329199
H           -2.34436302898584       -2.64549770967586        0.53408006779937
H           -1.19386878186269       -3.68520512604224       -1.82898234352784
