25
 energy: -42.126856411299 gnorm: 0.011406663952 xtb: 6.6.1 (8d0f1dd)
C            3.06712993277327        1.00617110468388        0.20504184296254
N            2.27895282450646        1.85958046055926       -0.65412295157657
C            2.38652661744853       -0.31417349683927        0.22898715857515
N            0.78818681105331       -2.73880254839674       -0.33788368840394
C            0.28206350481185       -1.60726191465762       -0.09586424030828
C            1.04166783714304       -0.36056357318444        0.01425287899888
C            0.30007219157456        0.85596802740065       -0.07629230115440
O            0.93025733283651        2.00830768742116       -0.22709328883895
N           -1.02287293466118        0.86090795451651        0.03444634455871
C           -1.79963941227557        2.08598935779187        0.03120689999546
C           -1.78450381230035       -0.34232448283819        0.15464662931800
O           -2.97021883680556       -0.27104190782847        0.30748612765037
N           -1.08441283625436       -1.51287788919000        0.04417999959039
C           -1.83507414473330       -2.75661557321700        0.02643763661884
H            3.20546324552037        1.39534447466239        1.23028119057565
H            4.05536357633254        0.92493647737213       -0.25542180661187
H            2.63445181155864        2.80896145161396       -0.73621082321716
H            2.96326954432233       -1.20083568051599        0.43290875928044
H           -1.13701327665908        2.94220278278719       -0.04417174950631
H           -2.49498395695603        2.07027258712433       -0.80864932684779
H           -2.38765547172595        2.13903389521643        0.94805479216144
H           -1.53766496229005       -3.37474191552871        0.87306116740264
H           -1.60728946523998       -3.30011016105918       -0.89003298634220
H           -2.89636435410391       -2.52785503870482        0.08289367462779
H            1.78471974822545       -2.83223353758961       -0.45697032160836
25
 energy: -42.127618777717 gnorm: 0.005519618113 xtb: 6.6.1 (8d0f1dd)
C            3.06553164732861        1.01631059086874        0.20143032392983
N            2.28529058145178        1.89268032191124       -0.64481070670786
C            2.39065365436515       -0.31079542179676        0.20871345009092
N            0.77246233784403       -2.76628092040787       -0.32040497018361
C            0.28135774218822       -1.62069186696471       -0.09711641859724
C            1.04520700066598       -0.36715433417058       -0.00325125862398
C            0.30473805082851        0.85278402561171       -0.09046424146240
O            0.93002179963488        2.01211479883618       -0.22787368926242
N           -1.01802043761064        0.85770682637733        0.02627697738832
C           -1.79377555689969        2.08370115965442        0.02828601062017
C           -1.78109890936088       -0.34382405852923        0.15073681528948
O           -2.96593579724932       -0.26941253673350        0.30794669252522
N           -1.08432849685229       -1.51661636778249        0.04461856453686
C           -1.83950009588858       -2.75762833838844        0.03076936760469
H            3.19860121844688        1.38814664011207        1.23353307034023
H            4.05624656095255        0.94346177077734       -0.25404407698125
H            2.63433184973601        2.84588334592706       -0.70400166836110
H            2.97047688662799       -1.19428288335318        0.41708653033066
H           -1.13098402648135        2.93956982482455       -0.04826499768668
H           -2.49235794167462        2.07005067996282       -0.80895701480571
H           -2.37870533842122        2.13643789982450        0.94720615275599
H           -1.54251668520290       -3.37570892123713        0.87742722094716
H           -1.61475451866611       -3.30278701218112       -0.88554021604923
H           -2.89983466445242       -2.52526664164849        0.08809235105460
H            1.76732465279100       -2.87016003989473       -0.44622265079221
25
 energy: -42.128058554268 gnorm: 0.006057431969 xtb: 6.6.1 (8d0f1dd)
C            3.06555696225741        1.02674926802646        0.19511107415280
N            2.29023713104320        1.93426449011523       -0.62567924140730
C            2.39633132272643       -0.30585120163689        0.17417430925131
N            0.75404285601165       -2.79741566456143       -0.28834468846252
C            0.28206118125510       -1.63497349275878       -0.10116187436771
C            1.05029871607776       -0.37551239620583       -0.03149353134495
C            0.30969104734170        0.84690103874454       -0.11016664199701
O            0.92621072629852        2.01431152401994       -0.22757034049967
N           -1.01282965305281        0.85341695723102        0.01282704547882
C           -1.78655182405565        2.08086055780637        0.02233368179471
C           -1.77749724501010       -0.34534043715222        0.14272432711580
O           -2.96164289947812       -0.26776071914766        0.30434757617938
N           -1.08334757972988       -1.51972853400543        0.04227830818163
C           -1.84501333263172       -2.75730259720265        0.03773518539742
H            3.19214994791138        1.36775706862645        1.23940791793526
H            4.05849754643892        0.96754510605138       -0.25730852601564
H            2.62788615720361        2.89420407300523       -0.64271486241894
H            2.98436399367041       -1.18507872476015        0.37675102671112
H           -1.12318990043151        2.93597856395982       -0.05549032965417
H           -2.48974121997599        2.07038931005445       -0.81113874472422
H           -2.36630789007067        2.13205917317801        0.94461768784429
H           -1.54696170067684       -3.37403202218143        0.88480980606196
H           -1.62747964852652       -3.30741260595791       -0.87749055448474
H           -2.90394435333966       -2.51964532147885        0.09904174511271
H            1.74761117284491       -2.91614487216995       -0.41642873793988
