25
 energy: -42.528056291436 gnorm: 1.060802460829 xtb: 6.6.1 (8d0f1dd)
C            3.21786164340000        1.13591514650000        0.01837059260000
N            2.27034809790000        0.05199982890000        0.00038279530000
C            2.54167221030000       -1.23971668410000       -0.00834188300000
N            1.39367826450000       -1.95088267900000       -0.00850347120000
C            0.35269634020000       -1.06748964300000        0.00059917290000
C            0.90759959010000        0.20069750900000        0.00663590170000
C            0.07590235260000        1.39864294500000       -0.00284827040000
O            0.48715076820000        2.53168346660000       -0.01725767220000
N           -1.27221500230000        1.06666939660000        0.00165480230000
C           -2.23229981500000        2.16656245330000       -0.00245172030000
C           -1.84872931540000       -0.19179276200000        0.00496135950000
O           -3.03273030250000       -0.36103538130000        0.00858583760000
N           -0.96599111670000       -1.30060631840000        0.00174701630000
C           -1.52030655580000       -2.64076660390000       -0.00239033190000
H            3.71480285180000        1.18589984860000        0.98803183970000
H            3.97079415090000        0.99383197990000       -0.75543416370000
H            2.68321036910000        2.07051068580000       -0.15067179540000
H            3.52469367910000       -1.66989040330000       -0.01523639120000
H           -1.67672429040000        3.10039111610000        0.00486339690000
H           -2.85755792270000        2.10547813320000       -0.89185337000000
H           -2.87119733260000        2.09858159720000        0.87661144540000
H           -1.20589108080000       -3.18768007210000        0.88663215920000
H           -1.21982032550000       -3.17678505510000       -0.90288069810000
H           -2.60531402170000       -2.54255916880000        0.00649952960000
H            1.32879827740000       -2.95942079410000       -0.01653446370000
25
 energy: -44.358979108464 gnorm: 2.702697435311 xtb: 6.6.1 (8d0f1dd)
C            3.21454292535635        1.13457025342467        0.01818045218618
N            2.22454026766116        0.06737898102379        0.00353989471725
C            2.53410660970208       -1.23403030362058       -0.00820367392456
N            1.39167463696151       -1.94535360575588       -0.00833625519501
C            0.33504225232121       -1.05783801456632        0.00297338429788
C            0.63663865975476        0.33193675966369        0.08901354550664
C            0.04814807203637        1.42125004332314       -0.00067693188803
O            0.48807787617732        2.53573063994955       -0.01768147842393
N           -1.27497005485401        1.06926494331703       -0.00234663418540
C           -2.20928622704803        2.16444268420685       -0.02592777902407
C           -1.84866740719156       -0.19219775354916        0.00522394792603
O           -3.03301068151845       -0.36110409583054        0.00851106838670
N           -0.96894735148908       -1.30425558359300        0.00149596891860
C           -1.52045096379268       -2.64140002974631       -0.00252382970381
H            3.71463759687094        1.18562749217381        0.98782295068507
H            3.97023577634172        0.99352132193083       -0.75545336720159
H            2.68354930228167        2.07079015896794       -0.15054188502235
H            3.52369177424098       -1.66847052078537       -0.01543285518077
H           -1.67600715174049        3.10144550336988        0.00509221358818
H           -2.85990780278110        2.10515729475114       -0.89122211854424
H           -2.51137791156510        1.90735991435146        0.81422215318814
H           -1.20585578092272       -3.18771681290125        0.88663731936235
H           -1.21977583209294       -3.17683355110697       -0.90292452298938
H           -2.60533565521031       -2.54263411686191        0.00648704323148
H            1.32913858460039       -2.95840306053649       -0.01675699281137
25
 energy: -47.885296071405 gnorm: 4.489185059107 xtb: 6.6.1 (8d0f1dd)
C            3.21182454069397        1.13349598803557        0.01820416316902
N            2.18994258695719        0.07891501503514        0.00655090073825
C            2.52727795992482       -1.22711643741688       -0.00801761159518
N            1.38942260716481       -1.94024803530730       -0.00820832922729
C            0.32034743156314       -1.04968335527100        0.00544120706259
C            0.35520972257577        0.45656965621734        0.17408057316779
C            0.02106737712711        1.45044630801790       -0.00035067868625
O            0.48911040004119        2.54302078385480       -0.01836671696260
N           -1.27885442030004        1.07077000153303       -0.00849789994077
C           -2.18914883704226        2.16621270856583       -0.05423290203022
C           -1.84870835605431       -0.19224167764364        0.00501757711059
O           -3.03335863536044       -0.36113921461531        0.00842340283061
N           -0.97155622788716       -1.30814967072204        0.00134650535429
C           -1.52086849915817       -2.64193021694296       -0.00268422614965
H            3.71436799069691        1.18546406581208        0.98774095497932
H            3.96964042795667        0.99319615450859       -0.75537057320731
H            2.68379681859128        2.07108633836341       -0.15042415195595
H            3.52262730915058       -1.66700256357863       -0.01556226232532
H           -1.67490251366760        3.10292592678536        0.00454996731672
H           -2.86238577658175        2.10506351928381       -0.89101110989491
H           -2.15248272816027        1.71332411982810        0.75936701896553
H           -1.20581242814834       -3.18773046846386        0.88661173387188
H           -1.21970258456935       -3.17689411891338       -0.90296019024312
H           -2.60543673490131       -2.54280780314548        0.00642939395438
H            1.32901408348755       -2.95730848222047       -0.01690512840241
25
 energy: -53.293164931965 gnorm: 6.525076426526 xtb: 6.6.1 (8d0f1dd)
C            3.20963049274873        1.13273926046074        0.01815891982838
N            2.16760112680128        0.08532308883902        0.00906383424396
C            2.52315398795316       -1.22022893138766       -0.00803117923389
N            1.38720107991067       -1.93595888578088       -0.00820322201702
C            0.30820036998331       -1.04371676318695        0.00782456822945
C            0.06738707261121        0.55638681795156        0.26693772382781
C           -0.00536742173082        1.50605620033865       -0.00796492104149
O            0.49047622240027        2.55456259743463       -0.01922019067730
N           -1.28438309688851        1.07005506570832       -0.01555524725147
C           -2.17938393699864        2.17047886072680       -0.07433206231383
C           -1.84880692560404       -0.19345684024235        0.00451031974083
O           -3.03424155488747       -0.36140610774037        0.00849557407029
N           -0.97420809812036       -1.31176903352113        0.00106845677606
C           -1.52117034730347       -2.64255830343817       -0.00303727898691
H            3.71403423693778        1.18555480355916        0.98762256806247
H            3.96905803326287        0.99337154681911       -0.75534801556514
H            2.68375041559977        2.07147188788557       -0.15023846357150
H            3.52185696562658       -1.66564959404533       -0.01599338557401
H           -1.67435485297391        3.10428706704911        0.00439208534091
H           -2.86502026014179        2.10477169839129       -0.89038449915102
H           -1.79382403829937        1.52228299209253        0.69932351619458
H           -1.20543453771146       -3.18792420606949        0.88634268888365
H           -1.21939498347822       -3.17699298095574       -0.90320769057011
H           -2.60534323942803       -2.54325352217402        0.00626376908204
H            1.32901480383046       -2.95618817711441       -0.01731625042674
25
 energy: -60.599794794164 gnorm: 8.239372654308 xtb: 6.6.1 (8d0f1dd)
C            3.20785423663615        1.13209930520562        0.01797081848709
N            2.15199832567187        0.08847116828030        0.01043355051584
C            2.52116268653541       -1.21400276105062       -0.00834328082274
N            1.38531427823720       -1.93236153455551       -0.00837061932421
C            0.29902042927709       -1.03917497850693        0.00987265864016
C           -0.23531700983827        0.65111589780421        0.36709741819080
C           -0.01318017203163        1.57275048499587       -0.02546823947865
O            0.49277408414194        2.56731967528079       -0.02034931744407
N           -1.28937066827937        1.06564253192219       -0.02221494520495
C           -2.17425293057427        2.17294628230810       -0.08401465128156
C           -1.84982566143357       -0.19742987814318        0.00365669212205
O           -3.03586352135488       -0.36180643579270        0.00874581515182
N           -0.97727341146040       -1.31466070052586        0.00055645148649
C           -1.52132055812014       -2.64325889389951       -0.00354438123200
H            3.71373876014040        1.18574341249457        0.98737659195438
H            3.96851845948064        0.99390178250987       -0.75548615512297
H            2.68355335667970        2.07188274814905       -0.15004105681236
H            3.52136405534218       -1.66453695404774       -0.01672420599328
H           -1.67440030985583        3.10518474809170        0.00506091714459
H           -2.86714974950629        2.10425421982578       -0.88952298767173
H           -1.44718161994177        1.33851137271454        0.63418608907832
H           -1.20481753053772       -3.18825509475841        0.88588140121482
H           -1.21898763180022       -3.17709403737449       -0.90363891836350
H           -2.60510019339864       -2.54385700812684        0.00606113731593
H            1.32917381009043       -2.95514681120083       -0.01800916465029
25
 energy: -69.408757859694 gnorm: 8.983883483879 xtb: 6.6.1 (8d0f1dd)
C            3.20662436262645        1.13097302692930        0.01839865824087
N            2.13866035636478        0.09111338498779        0.01199575442942
C            2.51907861629303       -1.20939846126169       -0.00740410623480
N            1.38340587233888       -1.92958466157463       -0.00739575375327
C            0.29219602531459       -1.03438886697276        0.01191654014942
C           -0.54143130341139        0.78169200060804        0.46703420185751
C           -0.00669654757094        1.61437870296686       -0.04136461508113
O            0.49748784934264        2.57991230058171       -0.02274357615463
N           -1.30167155644563        1.05533995525782       -0.06273534757599
C           -2.16958466932059        2.17404447906393       -0.09269931668435
C           -1.85312063901400       -0.20283847989623        0.00102724309786
O           -3.03808760565976       -0.36180438284673        0.00805242407339
N           -0.98018186821059       -1.31668867682854        0.00007867703081
C           -1.52195738609569       -2.64362728596963       -0.00364874924833
H            3.71337738658625        1.18553176768732        0.98787843362177
H            3.96848533532196        0.99330583683719       -0.75471394349963
H            2.68392564686636        2.07167904267235       -0.14980633229101
H            3.52059792989338       -1.66425523904598       -0.01563775649555
H           -1.67394993257946        3.10606555962980        0.00416849571999
H           -2.86826307755373        2.10414331073072       -0.89053101751243
H           -1.10776656721071        1.15625835835742        0.59774683298709
H           -1.20517489816387       -3.18794796251829        0.88616298771408
H           -1.21894106797898       -3.17727382361333       -0.90334734247216
H           -2.60538634047612       -2.54385959178297        0.00587081746879
H            1.32880559284318       -2.95453175239947       -0.01713159148777
25
 energy: -15.117106870749 gnorm: 1366.979805776929 xtb: 6.6.1 (8d0f1dd)
C            3.20622718843188        1.12847182909901        0.01766992738977
N            2.12894203320642        0.09310234090927        0.01300070602995
C            2.51611407799439       -1.20656084368151       -0.00709129117168
N            1.38027445605798       -1.92829637149165       -0.00676627041361
C            0.28833688774348       -1.03113248988663        0.01355483364369
C           -0.79241265150363        0.93585376595663        0.59373881408281
C           -0.00109158734996        1.63355140560996       -0.05013098278522
O            0.50541633024105        2.59289936965480       -0.02628103306206
N           -1.37308220121663        1.06707675259442       -0.14966158445027
C           -2.16454984107571        2.17482344742916       -0.10073127289776
C           -1.85919668397109       -0.20697389425918       -0.00278304764929
O           -3.04136380937375       -0.36114245233529        0.00888764445905
N           -0.98160264928029       -1.31744525785994        0.00005213734277
C           -1.52387862326557       -2.64320551792202       -0.00280954696891
H            3.71396332852564        1.18370300447824        0.98703046442810
H            3.96870759967443        0.99071158244363       -0.75535283567636
H            2.68534383359383        2.07024280674598       -0.15071278996952
H            3.51901055790023       -1.66559766233782       -0.01542499479574
H           -1.67205808237000        3.10758516684567        0.00367394956688
H           -2.86878979213496        2.10572305936802       -0.89081491555144
H           -0.76672156737664        0.95582407412379        0.57632983512056
H           -1.20676734495941       -3.18685392105610        0.88732257063425
H           -1.22070032314702       -3.17692977022792       -0.90217336012634
H           -2.60688701973802       -2.54251895321668        0.00692548921736
H            1.32719739749336       -2.95467292938385       -0.01628082849697
