72
 energy: -103.311871924645 gnorm: 0.064433755732 xtb: 6.6.1 (8d0f1dd)
N           -1.47106321356586        2.75943912857899        2.24809896182660
C           -1.54610707046092        2.14547332468064        1.15888859472654
C           -2.72034613050477        2.04288097671306        0.24767471781950
C           -3.29895565457913        0.63553408633402        0.33769044681513
C           -4.28406318140712        0.23930479957236       -0.57108976772525
C           -4.84144320958013       -1.02504938038873       -0.52860954743516
O           -5.79808864487519       -1.48740758749614       -1.36444180286982
C           -6.36781493622087       -0.60710313716874       -2.30379685122093
C           -4.39979965105865       -1.94870515987782        0.45228264196484
O           -4.99517288387295       -3.16433164341369        0.41493505661320
C           -4.67958647922937       -4.10337115738326        1.41452028029611
C           -3.42636411782593       -1.55026932253459        1.34791467943684
C           -2.88316745409776       -0.27016602484185        1.28999628947868
C           -2.15789084792952        2.27190381527903       -1.19585591492804
C           -1.27015203854808        1.16298301874594       -1.68486837173665
C           -0.02324077281684        1.12663783395515       -0.93560227825580
N            0.60894639679027       -0.03462313992453       -0.55713147128203
C            1.98410795213516       -0.01836294545126       -0.14891407411633
C            2.91128475882166       -0.52082953543662       -1.27677777541642
C            4.34200307790344       -0.41678542034061       -0.83646402321328
C            5.05911943015452        0.74625531466317       -1.04040502759650
C            6.37210223841126        0.85334493610343       -0.60343292377066
C            6.98508017478471       -0.19968561999300        0.05464551869723
O            8.25244300863093       -0.20321474608570        0.51950701122100
C            9.05646979318443        0.93392462480563        0.31446001508489
C            6.25400920273464       -1.39372893874538        0.27689304542993
O            6.92972652695793       -2.37218457073181        0.92278982711630
C            6.29519654734794       -3.60632146333698        1.14686240803658
C            4.94644594067667       -1.48066143885910       -0.16488053484311
C           -0.06563267353291       -1.30366418624773       -0.61431802798538
C           -3.84443228949486        3.07036337581297        0.58404118109056
C           -4.47737048482085        2.77274451783909        1.94015898202164
C           -3.36365833485617        4.51866866309798        0.54947342328069
H           -4.63238851012887        0.93980902722233       -1.31302325385386
H           -6.82030886010567        0.26338470622766       -1.81850043181804
H           -7.14206886506378       -1.18155961735816       -2.80790710598745
H           -5.63196506743808       -0.27321046015808       -3.04147869023722
H           -4.90470775876570       -3.71764297926359        2.41365782073302
H           -5.30933537567238       -4.96708307177899        1.21080459761913
H           -3.62791419494171       -4.40429900292794        1.36741264062614
H           -3.08421419267794       -2.22592288376194        2.11684115731217
H           -2.14702165285599        0.00872375491152        2.03005130359862
H           -2.93355377462822        2.36164373111980       -1.99121703402776
H           -1.62035660951495        3.22476776488773       -1.19436508501455
H           -1.82034874743869        0.22060027470993       -1.64569067893121
H           -1.02879933567380        1.37613776089730       -2.73078912173113
H           -0.66782305366325        1.61632563192942        0.67156766426610
H            0.63412276498149        1.98298107447174       -0.96968591226127
H            2.10238713338711       -0.65058150367106        0.73416068863653
H            2.28497684763996        0.99715732834968        0.11464130696313
H            2.74814728494373        0.08720796461969       -2.16576314001803
H            2.66316438493386       -1.55763870459180       -1.51461558334510
H            4.60746735301929        1.57789366978443       -1.55818872533369
H            6.91079447724607        1.76816178670251       -0.79006047854348
H            8.64104542689841        1.81456008231590        0.81438861983271
H            9.18757846502795        1.14647489083601       -0.75116063407160
H           10.02176108878446        0.69287174811864        0.75438452570905
H            7.03453052400405       -4.22917194493203        1.64716799723064
H            5.41917240364145       -3.49736521031129        1.79483787159232
H            5.99830021892110       -4.08375078812386        0.20737813195083
H            4.38289101103208       -2.38773966626585       -0.00801112485864
H           -0.20604966445637       -1.62628073885705       -1.64957021748885
H           -1.03628673852900       -1.24309562829563       -0.12174741165980
H            0.54302059176755       -2.04525568525137       -0.10559636880633
H           -4.61233835335048        2.94825592460692       -0.18632844317974
H           -3.75027932272243        2.90343758354684        2.73275480181728
H           -4.86087798728274        1.75596265340300        1.97779119424938
H           -5.30388337027171        3.45733326443102        2.11153367289257
H           -2.57372857390285        4.67745083238385        1.27617608852401
H           -3.00810035707504        4.80579942241172       -0.43651576160627
H           -4.19110609846929        5.17445780668660        0.80492332055166
H           -0.59631171640268        2.77164934611606        2.75559384242552
72
 energy: -103.313672030161 gnorm: 0.031996052233 xtb: 6.6.1 (8d0f1dd)
N           -1.48933054688839        2.78618129569423        2.24296547472003
C           -1.55139201223503        2.14296047725982        1.16652017907020
C           -2.72842373985981        2.04845099807990        0.24538206007814
C           -3.30421332940921        0.64080405892880        0.33678727865726
C           -4.28758494474626        0.24048290302084       -0.57052855722174
C           -4.84085066717760       -1.02490371123045       -0.52798544424257
O           -5.80263664323763       -1.48964983045960       -1.36628437087337
C           -6.36758028592557       -0.60742970289203       -2.30455774308485
C           -4.40041820590635       -1.94655757955850        0.45203068840949
O           -4.99769465456667       -3.16697799012290        0.41456764210778
C           -4.67889428120085       -4.10302409257719        1.41417504600249
C           -3.43009901778205       -1.54678788824803        1.35003709333554
C           -2.88887707087226       -0.26558719092238        1.29246214035221
C           -2.17272117352494        2.28488987329316       -1.19230570003811
C           -1.26065757680789        1.17108486375819       -1.69393914835315
C            0.00311076733074        1.12422737189006       -0.93527180107019
N            0.62304272521297       -0.04788356967867       -0.54977122642836
C            1.99425958495232       -0.03123889370099       -0.15080568032449
C            2.92189416037142       -0.52739394896645       -1.27956958103868
C            4.34956163939063       -0.42153214332987       -0.84483289213242
C            5.06461907819722        0.74339135485695       -1.04438717438689
C            6.37509319929389        0.85258871692964       -0.60230696189469
C            6.98698029278004       -0.20009484157557        0.05588856311957
O            8.26140527847936       -0.20504721348967        0.52326491088503
C            9.05837298195639        0.93437960963876        0.31520313038004
C            6.25717649703057       -1.39269433709035        0.27693318439035
O            6.93548157694473       -2.37461779352417        0.92645142040212
C            6.29569559826379       -3.60588363347187        1.14751524867565
C            4.95283239368282       -1.48215906512555       -0.16948548503476
C           -0.05883096989706       -1.31075293770887       -0.61435601951510
C           -3.85261618982773        3.07101221619068        0.57783207436988
C           -4.48185727802025        2.77397503881542        1.93720948959640
C           -3.36764171484298        4.51834604154072        0.54786461270134
H           -4.63080357000668        0.93931611110350       -1.31551044743703
H           -6.81861438626912        0.26360974529594       -1.81817705313202
H           -7.14329917110337       -1.17981632031766       -2.81017071441430
H           -5.62951192109553       -0.27225943767247       -3.04077093387976
H           -4.90297228744154       -3.71664820754343        2.41372732699471
H           -5.30762248289572       -4.96863927634173        1.21266724405089
H           -3.62633352045821       -4.40209292009902        1.36751907202097
H           -3.08316886742048       -2.22414165350699        2.11499633462561
H           -2.14701438828131        0.01282722331402        2.02548110543500
H           -2.98870681838719        2.38947852565717       -1.92556515860602
H           -1.62213528645196        3.22834311602983       -1.19221597974772
H           -1.80145840951042        0.22527908318792       -1.64546540824177
H           -1.04697798110506        1.37444653550628       -2.75471121266646
H           -0.67696172397852        1.61729942539498        0.69540780768966
H            0.66088907496973        1.97750093454701       -0.99589367064041
H            2.12027121815640       -0.66149052788894        0.73474505974312
H            2.28175584500917        0.98885452861126        0.11390475136460
H            2.74651920060478        0.08672496790162       -2.16357115591895
H            2.66777502169264       -1.56126639283728       -1.51804137064055
H            4.60937342920256        1.57646353907735       -1.55847115831325
H            6.91313285360955        1.76870428048843       -0.78625805337620
H            8.64045244615402        1.81521260881639        0.81385204101197
H            9.18680981368373        1.14711319676142       -0.75125822871221
H           10.02526675645013        0.69622181211904        0.75449085019246
H            7.03299028385137       -4.23126401589370        1.64825087453267
H            5.41791052250708       -3.49590388974274        1.79349858309119
H            5.99755703482698       -4.08176013224683        0.20716280840779
H            4.38600139785939       -2.38663292976625       -0.00979982638417
H           -0.20816884341516       -1.63550417367485       -1.65009477734129
H           -1.03241972020897       -1.24511655767224       -0.12341213070317
H            0.54129472782652       -2.05813563013015       -0.10119150415976
H           -4.62387286287547        2.95356941600503       -0.19124855284702
H           -3.74510913411464        2.90240930620551        2.72335775969488
H           -4.86274872381117        1.75617310819685        1.97615452643361
H           -5.30849996240395        3.45855349988559        2.11504668097819
H           -2.57424143032963        4.66704630022809        1.27417814016084
H           -3.00770093144184        4.80272603384331       -0.43761256139960
H           -4.19351522850251        5.17809595707759        0.80491319480867
H           -0.61117067160138        2.76758749692167        2.75348001802840
72
 energy: -103.315118783095 gnorm: 0.013287370787 xtb: 6.6.1 (8d0f1dd)
N           -1.47925766145515        2.77542134712715        2.24201989629273
C           -1.53734868889663        2.13462204209955        1.16166240197081
C           -2.72201091574169        2.04721798663370        0.23985841027382
C           -3.29681749326762        0.63877615388913        0.33309315471995
C           -4.28369528483179        0.23948422126101       -0.57042305207059
C           -4.83696706334052       -1.02524258667190       -0.52713647016288
O           -5.80307133528938       -1.49000854581839       -1.36586409180255
C           -6.36745883475764       -0.60797979681483       -2.30319123544130
C           -4.39729875784605       -1.94688177891998        0.45089311284353
O           -4.99847799218877       -3.16837966032010        0.41413708970390
C           -4.68036863109693       -4.10347273095977        1.41349835696208
C           -3.42665770236198       -1.54938433047312        1.34912436503046
C           -2.88305876006888       -0.26943881033704        1.29056467993152
C           -2.17432366891126        2.28432026581852       -1.20193345050074
C           -1.26168550152666        1.16228682885048       -1.69690334914684
C           -0.00199415877333        1.12718019949028       -0.92430706346665
N            0.61704409817339       -0.04403996362204       -0.53966160678866
C            1.98643160365917       -0.02164194682485       -0.14783388506857
C            2.91576943540995       -0.52147478951421       -1.27430161356263
C            4.34095346161720       -0.41710955303752       -0.83850945740856
C            5.05795176239619        0.74648606790640       -1.04087902670667
C            6.36949674363932        0.85405112641832       -0.60304850925722
C            6.97996770160428       -0.19908850902527        0.05413904445281
O            8.25864822536103       -0.20614608987184        0.52153630920380
C            9.05496458698334        0.93253438328785        0.31421292865598
C            6.25015350874148       -1.38986753026241        0.27693957204467
O            6.93273421587126       -2.37415477229541        0.92481314372868
C            6.29482509156460       -3.60558821940673        1.14659860788464
C            4.94486713259525       -1.47859509083154       -0.16503820125172
C           -0.06182115951194       -1.30509461535876       -0.61477483968330
C           -3.84196181378932        3.06816518179701        0.58133486389300
C           -4.47728480585488        2.77260659067742        1.93965958627555
C           -3.36391260032533        4.51884890651105        0.54987213822882
H           -4.62880118091469        0.93994579164110       -1.31271492300014
H           -6.81943714039870        0.26324289428025       -1.81748489995629
H           -7.14323188665522       -1.18134399628415       -2.80801319090507
H           -5.63066839076148       -0.27246380773523       -3.04099456382708
H           -4.90455084719649       -3.71754090516303        2.41349481720877
H           -5.31022824120248       -4.96832454287328        1.21149521100999
H           -3.62814319685655       -4.40452645169319        1.36761083981145
H           -3.08295092414744       -2.22635627460690        2.11578420349982
H           -2.14502595506433        0.00928756237410        2.02669327214395
H           -2.95843632152413        2.37642521442001       -1.95661452160161
H           -1.61201016031078        3.21988359935908       -1.20055133118501
H           -1.80559129428338        0.21771475461672       -1.64988553322489
H           -1.03743649475787        1.36957440382288       -2.75457207544980
H           -0.66987529379028        1.61617653043862        0.69027963828269
H            0.63986410533879        1.99037703722658       -0.97600973304682
H            2.11108484104351       -0.64940756860354        0.74020531791903
H            2.27343675884558        0.99982327246251        0.11564266347803
H            2.74221528661001        0.09089968412884       -2.16081961306395
H            2.65880587542218       -1.55448359097102       -1.51146941165868
H            4.60338676179950        1.57876605255842       -1.55741159245399
H            6.90924518027359        1.76864346576129       -0.79035975075716
H            8.63917799537484        1.81422135719401        0.81367205870720
H            9.18543050280694        1.14652467262985       -0.75199394281042
H           10.02131959872921        0.69230692380745        0.75403888107720
H            7.03456273666561       -4.22906022074560        1.64635382447430
H            5.41802242058532       -3.49779544518724        1.79445769768246
H            5.99636355969331       -4.08315848718408        0.20698592058856
H            4.37824383213038       -2.38364844350769       -0.00691464231068
H           -0.21019417331256       -1.62622383038900       -1.65252055220672
H           -1.03737448256623       -1.24497342303967       -0.12391268515966
H            0.54102537967993       -2.05126202694819       -0.10314716523991
H           -4.61336467262226        2.94942473479144       -0.18731169621569
H           -3.74611878053613        2.90302549227854        2.73114154423760
H           -4.85848070650547        1.75490811002979        1.97847290767354
H           -5.30524271991601        3.45718803825220        2.11142177485848
H           -2.57168529987773        4.67447367169600        1.27614304248099
H           -3.00562310030860        4.80413754644775       -0.43603216357541
H           -4.19364325058256        5.17458880271057        0.80549030843547
H           -0.59022828423529        2.75604056366722        2.73929498661922
72
 energy: -103.314907765016 gnorm: 0.014171992171 xtb: 6.6.1 (8d0f1dd)
N           -1.49505799191421        2.77638870494886        2.25315487157541
C           -1.54228267397836        2.14258254398340        1.16633540740741
C           -2.72860005869372        2.04888267720390        0.24517157343980
C           -3.30218391026495        0.63990925259062        0.33635746484793
C           -4.28730391813500        0.24024432550498       -0.56923597912343
C           -4.83946800804460       -1.02455889880662       -0.52585026257830
O           -5.80402861562178       -1.48964007195140       -1.36705588103603
C           -6.36724311500896       -0.60760528669718       -2.30434975897633
C           -4.39982271133005       -1.94544272296371        0.45189609031694
O           -4.99873316690938       -3.16829148723721        0.41487654984860
C           -4.67847159313546       -4.10223293902397        1.41392048558533
C           -3.42912567551231       -1.54866386487221        1.35031779065460
C           -2.88747659059711       -0.26857067649162        1.29322348223639
C           -2.17440499199380        2.28558801910096       -1.19412332209232
C           -1.26741293085361        1.16153170790553       -1.68737308689867
C           -0.00449943458784        1.12517836336305       -0.92667212973681
N            0.61630203842605       -0.04505750479699       -0.54842904912969
C            1.98752428027410       -0.02625261657101       -0.15872050301010
C            2.92208774783518       -0.52716891296322       -1.28206377239234
C            4.34633416058197       -0.42127406796005       -0.84126227803008
C            5.06404949178142        0.74298660196570       -1.04252863679174
C            6.37512288726294        0.85205241460733       -0.60359880957807
C            6.98481302016760       -0.20067921566632        0.05394742407478
O            8.26330618116047       -0.20491182789817        0.52348205543918
C            9.05823531776835        0.93419633383654        0.31585998696610
C            6.25635326624358       -1.39214567646725        0.27495590556668
O            6.93730942437551       -2.37617528258990        0.92557951939358
C            6.29711360010222       -3.60601006019320        1.14764279407043
C            4.95179044433418       -1.48310018668790       -0.16848617419515
C           -0.06172975367192       -1.30511835625262       -0.61709288386942
C           -3.84809528222123        3.07013702664390        0.58267087919518
C           -4.48305019054042        2.77395310005645        1.94057951622377
C           -3.36713849334709        4.52004408171062        0.54861236350096
H           -4.63335244657124        0.94045738059771       -1.31178857646957
H           -6.82053722883794        0.26373344567118       -1.81985397490735
H           -7.14210694237206       -1.18103566072968       -2.81028110316601
H           -5.63050353147893       -0.27218539640202       -3.04206528860007
H           -4.90341783619924       -3.71735443009936        2.41425425045501
H           -5.30687557890307       -4.96801710473120        1.21178102513741
H           -3.62587543184983       -4.40214272204023        1.36775541146647
H           -3.08578933546391       -2.22512137469983        2.11749411499621
H           -2.15132776048590        0.01095413888545        2.03114625297832
H           -2.93868867411729        2.36609225864958       -1.97048419315010
H           -1.61851304814688        3.22452104297034       -1.18894090832572
H           -1.81876909905384        0.22149530457868       -1.64194166845906
H           -1.03639637033660        1.37769639421135       -2.73853480037183
H           -0.67718635002651        1.62791123420217        0.68833124696934
H            0.63722302324683        1.98652290375429       -0.98230310833969
H            2.10953409782131       -0.65774163151208        0.72747993007743
H            2.28545291750085        0.99098619661896        0.10902926698190
H            2.75372181978405        0.08356532064888       -2.17081654992260
H            2.66873532576328       -1.56105769399471       -1.52087175897508
H            4.61090774578962        1.57485168317153       -1.56061330252740
H            6.91401541273405        1.76767384965926       -0.78841095193024
H            8.64231789933036        1.81620154333603        0.81464725555293
H            9.19007347625157        1.14764624003435       -0.75031083236934
H           10.02491204995172        0.69579129011378        0.75603622137985
H            7.03450107408740       -4.23050844810308        1.64952728451502
H            5.41946785258751       -3.49614950014959        1.79403861552416
H            6.00000058158130       -4.08427881255817        0.20796159437168
H            4.38797430946869       -2.39041880865941       -0.01274688786364
H           -0.20917328070390       -1.63189653514215       -1.65247425591751
H           -1.03543048897419       -1.24393242935283       -0.12254602943512
H            0.54416180598499       -2.04783912634336       -0.10451071431152
H           -4.61899359878683        2.95065781603294       -0.18656774511077
H           -3.75197612934841        2.90312315951058        2.73183532575740
H           -4.86608550774606        1.75695716573684        1.97778216272288
H           -5.30892616808402        3.45994077557015        2.11301485490951
H           -2.57518152205922        4.67554697870054        1.27480352670466
H           -3.00979678429168        4.80496775685698       -0.43771825552142
H           -4.19442526053890        5.17762929579630        0.80436007055738
H           -0.60570699700629        2.76942414494414        2.75085759402959
72
 energy: -103.315437429553 gnorm: 0.005038259075 xtb: 6.6.1 (8d0f1dd)
N           -1.48541212855762        2.77616192661608        2.24664012203567
C           -1.53632573658998        2.14030099102647        1.16173277818049
C           -2.72510374690924        2.04723216212700        0.24399950054319
C           -3.30028576068969        0.63914335617614        0.33523094242043
C           -4.28521257721154        0.23964236029646       -0.57072789804428
C           -4.83799866013233       -1.02499343559922       -0.52654404479484
O           -5.80299714488613       -1.48978951666585       -1.36695096244690
C           -6.36710596586013       -0.60753004734429       -2.30324986907662
C           -4.39854676481354       -1.94572815623643        0.45134364022355
O           -4.99806461813157       -3.16810328516078        0.41472551175635
C           -4.67946753943646       -4.10250082096447        1.41378107706524
C           -3.42685595300423       -1.54909849423044        1.34899213303277
C           -2.88470069787312       -0.26926910596117        1.29118752014663
C           -2.17393987983585        2.28461915836836       -1.19539655092440
C           -1.26500736354826        1.16350892087123       -1.69347645417408
C           -0.00206403974836        1.12499011267565       -0.93319698252042
N            0.61575704898019       -0.04427123295750       -0.54677992816426
C            1.98550845404956       -0.02398901077937       -0.15026773094402
C            2.91737130068577       -0.52366412947505       -1.27590224856965
C            4.34269202498287       -0.41834184676770       -0.83873124697698
C            5.06064475172671        0.74557845626306       -1.04086582584030
C            6.37206388596095        0.85394565515445       -0.60271856819903
C            6.98146887020067       -0.19944971559654        0.05439763654887
O            8.26001010951367       -0.20476195594869        0.52253285639525
C            9.05562790344739        0.93345330760852        0.31423907354199
C            6.25267947714610       -1.39042777738031        0.27624017857163
O            6.93359513087031       -2.37485678127217        0.92568417725175
C            6.29432888774806       -3.60525084218091        1.14674375648572
C            4.94766934904683       -1.48040652688007       -0.16595981321189
C           -0.06147828568924       -1.30527208463392       -0.61493171430286
C           -3.84512365676151        3.06875965407809        0.58069238346506
C           -4.47827542906712        2.77227554177742        1.93897509860543
C           -3.36406833489856        4.51833029733473        0.54866917319751
H           -4.63025802540881        0.93935594356842       -1.31433407502129
H           -6.81930825256518        0.26383810988875       -1.81784668937714
H           -7.14286577841718       -1.18035876834317       -2.80856312883948
H           -5.63085124891179       -0.27222373210845       -3.04141017638580
H           -4.90400530734829       -3.71717951933403        2.41398886598004
H           -5.30902945098985       -4.96756661139623        1.21182222967893
H           -3.62732200976863       -4.40385864631269        1.36777679683898
H           -3.08238892039708       -2.22574344893581        2.11542552353116
H           -2.14559987055764        0.00980174108471        2.02651239933738
H           -2.95625855768535        2.37150629948581       -1.95623123881573
H           -1.62095846733154        3.22537849947494       -1.19301192188450
H           -1.81271372288185        0.22223571919787       -1.64712564243761
H           -1.03703227642551        1.37755729364784       -2.74554302592865
H           -0.67458271784022        1.61653890063074        0.68576464461916
H            0.64358447854465        1.98377759411884       -0.98786826180477
H            2.10944759461048       -0.65471704256024        0.73663266036756
H            2.28152957168242        0.99403507742616        0.11640540282331
H            2.74551039412820        0.08821251539052       -2.16310384142901
H            2.66337639757180       -1.55761928838367       -1.51432601170854
H            4.60676436290714        1.57817661944618       -1.55715392330196
H            6.91118679141001        1.76923867974042       -0.78794604890586
H            8.64036424079189        1.81534642958384        0.81365297444853
H            9.18602806756360        1.14692129642473       -0.75208381887980
H           10.02268656313348        0.69438794338747        0.75332494483744
H            7.03265284852078       -4.23013317619831        1.64685341745269
H            5.41735274599678       -3.49678117087979        1.79420891283681
H            5.99642483010515       -4.08228921423632        0.20672175388546
H            4.38221574250033       -2.38611110529816       -0.00729517185294
H           -0.20658797699284       -1.63206700514849       -1.65035815069742
H           -1.03633203708533       -1.24384111764654       -0.12345674469361
H            0.54169284464058       -2.04977136757668       -0.10117166958575
H           -4.61652363151243        2.95032707995611       -0.18842609681983
H           -3.74558530953837        2.90226174369441        2.72835759347225
H           -4.85979585433829        1.75482727953746        1.97672710327560
H           -5.30459237877129        3.45731493509330        2.11286379183841
H           -2.57231298433713        4.67178553263195        1.27543924201742
H           -3.00631496753849        4.80418128843265       -0.43713913688491
H           -4.19130094717261        5.17560844874750        0.80526074560196
H           -0.59750291655353        2.76285225249471        2.74664478345218
72
 energy: -103.315367904540 gnorm: 0.006582835114 xtb: 6.6.1 (8d0f1dd)
N           -1.48731218466972        2.77743272848862        2.24591283284300
C           -1.53795484427084        2.13727226512838        1.16410652568907
C           -2.72474708175997        2.04776674824152        0.24233612252249
C           -3.30019663804660        0.63975320367122        0.33488956032010
C           -4.28551238416561        0.24016990068166       -0.57037025981860
C           -4.83818222621010       -1.02476381984221       -0.52627741340247
O           -5.80329908261503       -1.48991323418739       -1.36680762511644
C           -6.36727578969832       -0.60841910952273       -2.30362551830754
C           -4.39898854527144       -1.94556696565370        0.45142884683414
O           -4.99822160972358       -3.16839597860473        0.41442365512358
C           -4.67972194992393       -4.10297587085865        1.41320670596594
C           -3.42862247099082       -1.54816220885864        1.35030365526860
C           -2.88612151459297       -0.26823922942870        1.29216542599142
C           -2.17251598050227        2.28341907597239       -1.19779337311275
C           -1.26187679585705        1.16151057214552       -1.69437568943317
C           -0.00115477758398        1.12539814030502       -0.92798261212184
N            0.61702411593633       -0.04444211754783       -0.54279201694916
C            1.98760724758429       -0.02294035350916       -0.15069790267021
C            2.91788015227583       -0.52323320982126       -1.27772882749235