72
 energy: 0.000000000000 xtb: 6.6.1 (8d0f1dd)
N           -1.47310921155849        2.74401293103706        2.22063921685122
C           -1.55658879776851        2.16490285539332        1.13274273951491
C           -2.74549199786261        2.05621232186130        0.23826248438941
C           -3.31377553111525        0.64333411542669        0.32332512650568
C           -4.30230156009016        0.24487110156316       -0.58026161703006
C           -4.85238763031941       -1.02286490450319       -0.53363588718165
O           -5.81419972815119       -1.48606034185536       -1.36157882725342
C           -6.39655633239252       -0.60827000183299       -2.29568474302620
C           -4.39972501531283       -1.94646102182611        0.44396929121966
O           -4.98748311285188       -3.16145997157803        0.41085992006324
C           -4.66362127904578       -4.10093827755394        1.40909127743729
C           -3.42072513477031       -1.54561384810496        1.33436546260297
C           -2.88302799614223       -0.26315800396994        1.27400150770375
C           -2.19303798107274        2.30467000305896       -1.18742977106749
C           -1.26651538239283        1.17243369445008       -1.65249429687285
C            0.01082524939134        1.09745454476277       -0.89354803499847
N            0.61779393476578       -0.02034948052406       -0.57705522512502
C            2.00145210352228       -0.02376006389122       -0.15611399603240
C            2.92554934655222       -0.53865282675074       -1.27700088804721
C            4.35756843073516       -0.43050757231754       -0.83075544324989
C            5.07346135469827        0.73206409086248       -1.03980965825901
C            6.38627986649936        0.84224441421807       -0.60344822702769
C            7.00047264773336       -0.20824756335880        0.05722314418200
O            8.26703657141718       -0.21011313101264        0.52410943644933
C            9.06912227848686        0.92943601033931        0.31863058007678
C            6.27039964270142       -1.40439753960823        0.28033466008274
O            6.94829939911432       -2.38012925705718        0.92751999079483
C            6.31537317745639       -3.61583200086742        1.15217711710877
C            4.96302794628964       -1.49347471867959       -0.16064430359178
C           -0.05511211367372       -1.29906247805359       -0.62085686319744
C           -3.86758037025447        3.07992600430699        0.58498060215443
C           -4.49286159663096        2.77383493050346        1.94313289484366
C           -3.39165179876499        4.52917666589254        0.54797523472093
H           -4.66030026466202        0.94509067363451       -1.31640568823548
H           -6.85037928558380        0.25803162192116       -1.80468845313260
H           -7.17287442604349       -1.18600110843259       -2.79318157561361
H           -5.66836817451085       -0.26952966318766       -3.04040255244073
H           -4.88416720672258       -3.71589460520039        2.40913542187496
H           -5.29223570620378       -4.96637458756866        1.20969236903657
H           -3.61139813139015       -4.39919835331056        1.35529357841967
H           -3.07077796610445       -2.21868765711333        2.10002662693138
H           -2.14562754426994        0.02067850696302        2.01001344383370
H           -3.02188875377605        2.38238012313952       -1.88813545054866
H           -1.65198530896729        3.25146700677685       -1.20556284570283
H           -1.81103374245520        0.23006524641044       -1.62116301628650
H           -0.99335688527853        1.37490212198123       -2.69443256973690
H           -0.67628064361333        1.65183887049447        0.61785727145403
H            0.63525841192517        1.98466369793744       -0.92314021190751
H            2.11132552493482       -0.65949692842762        0.72532613231274
H            2.30680473056284        0.98978251704176        0.11078972794250
H            2.76694198818247        0.06750735147374       -2.17075252200790
H            2.67954581369920       -1.57455627803457       -1.51167743520200
H            4.62169998552446        1.56295612048703       -1.56123579000624
H            6.92357674630170        1.75715815945204       -0.79119596719031
H            8.65159112996149        1.81001823324363        0.81701555159939
H            9.20136171144928        1.14042857828877       -0.74698991949293
H           10.03428838009630        0.69003240176163        0.76064937965836
H            7.05567174969094       -4.23621171795340        1.65347565939075
H            5.43848001056755       -3.50813558175093        1.79970565785717
H            6.02060041905269       -4.09420497120334        0.21253282636366
H            4.40102758497114       -2.40127266373392       -0.00490198249042
H           -0.22071299714579       -1.61775583601871       -1.65116008982042
H           -1.01972258008625       -1.24102717432227       -0.10935206830928
H            0.55899954147532       -2.04486085926761       -0.12333730421426
H           -4.63991875734388        2.95501092798550       -0.18098088071825
H           -3.76095216473977        2.90314704960906        2.73380821053058
H           -4.87457614030224        1.75695641518947        1.97884603101694
H           -5.31925552549014        3.45579210326349        2.12325564252114
H           -2.60025590131176        4.69225046143352        1.27368918226171
H           -3.03987406413880        4.81897652321898       -0.43870975059559
H           -4.22191740670577        5.18069648090034        0.80616693961239
H           -0.59832433787845        2.77744694953323        2.72958984441332
72
 energy: -3.244295916830 xtb: 6.6.1 (8d0f1dd)
N           -1.47021434657535        2.76471991514220        2.25594198184747
C           -1.53671240252189        2.13000209832713        1.17843066322374
C           -2.71227480335108        2.03842041927950        0.25015241385820
C           -3.29199892347057        0.63173026220257        0.34377981004664
C           -4.27361616726690        0.23595975206555       -0.56624016552106
C           -4.83193927737588       -1.02706567315076       -0.52427936283841
O           -5.79185594722342       -1.48788064479348       -1.36552847276750
C           -6.34779291340046       -0.60629147481106       -2.30942811823600
C           -4.39985659656034       -1.95021980756338        0.45772038134196
O           -5.00054797938795       -3.16623828526624        0.41786461841497
C           -4.69026276545574       -4.10494875149816        1.41814975278326
C           -3.43130574537565       -1.55455657985282        1.36000961872898
C           -2.88321798573469       -0.27635151982269        1.30333018167878
C           -2.16960256394900        2.28204171455066       -1.19282358368927
C           -1.27100454293637        1.15956716653299       -1.69379099944259
C           -0.00908257947968        1.11629003798279       -0.91117909235768
N            0.60834038995671       -0.03532730970574       -0.55593970336136
C            1.98133457546892       -0.01734084187365       -0.14778786749807
C            2.90530610359992       -0.51348089321872       -1.27663612735598
C            4.33314269471778       -0.40893569589110       -0.83908373037854
C            5.05017211363647        0.75502653200429       -1.04054652180527
C            6.36201255896307        0.86129924700624       -0.60342850623421
C            6.97358100807540       -0.19329817275340        0.05265033227943
O            8.24881731264733       -0.20152900904363        0.51833421390105
C            9.04858675273672        0.93668344388289        0.31187775135044
C            6.24177869751931       -1.38573342634101        0.27425781786669
O            6.92136975088024       -2.36859897042130        0.92059443585949
C            6.28188619463885       -3.60002284947426        1.14334395752728
C            4.93618690602474       -1.47275032376693       -0.16735946616579
C           -0.06615336676779       -1.30379172282041       -0.61406080585805
C           -3.82994939567526        3.06459218360549        0.58368946416240
C           -4.46960551530341        2.77210675342346        1.93872058844425
C           -3.34295439984347        4.51109978751050        0.55050032193819
H           -4.61352446673496        0.93628605830221       -1.31078420106029
H           -6.79935705693266        0.26709907837941       -1.82820894475851
H           -7.12162576738843       -1.17856092597985       -2.81768813821979
H           -5.60394256168661       -0.27608821286991       -3.04232816294367
H           -4.91824954333933       -3.71886682599042        2.41664431905394
H           -5.32107923368075       -4.96751596761089        1.21157995661750
H           -3.63870126046926       -4.40768666097975        1.37534926975393
H           -3.09407842772093       -2.23115805194894        2.12920701775329
H           -2.14798143535237        0.00116416678170        2.04266333510025
H           -2.92719789561993        2.36047132261867       -1.99850190077797
H           -1.61660682303265        3.22175297107461       -1.19297045607462
H           -1.82111313898998        0.21967071664889       -1.64765768550286
H           -1.04490895062192        1.37631601504553       -2.74622405163371
H           -0.66271158707116        1.59528296917654        0.70293664803375
H            0.63384509103995        1.98130599369360       -0.99902169803242
H            2.10081442625718       -0.64879710811713        0.73574592536139
H            2.26775062180878        1.00339110880785        0.11805030839314
H            2.73461888936904        0.10151922318317       -2.16209245081806
H            2.65213883960500       -1.54623264678985       -1.51671669028672
H            4.59702387079241        1.58874549897056       -1.55596691697185
H            6.90195636642156        1.77577277907658       -0.78925178823247
H            8.63373849847542        1.81774847729336        0.81259060735124
H            9.17793199646146        1.15074256314259       -0.75407232236620
H           10.01467770605026        0.69445115164560        0.75086029335455
H            7.02051699392859       -4.22446656916185        1.64296536062195
H            5.40562394147600       -3.48980110330422        1.79147798841376
H            5.98242308571495       -4.07632498935062        0.20370142105918
H            4.36949158998564       -2.37776370376035       -0.01035708206646
H           -0.21025724234964       -1.62389740777620       -1.64986880215296
H           -1.04357221742861       -1.24401301386080       -0.12734512048614
H            0.53688659839169       -2.04530055042665       -0.09904009019649
H           -4.59638933590662        2.94442491049588       -0.18924199759995
H           -3.74113020763770        2.90376928135499        2.73236455389854
H           -4.85227183018566        1.75528612027346        1.97731911030785
H           -5.29684450289495        3.45787120001412        2.10614350698450
H           -2.55141856530227        4.66519535985405        1.27831957523253
H           -2.98198978694886        4.79518503845141       -0.43477887880697
H           -4.17010615957281        5.17019944196912        0.80406274450978
H           -0.59504816725654        2.76693576717157        2.77138598356307
72
 energy: 3.598207378201 xtb: 6.6.1 (8d0f1dd)
N           -1.46395419090449        2.79138128891557        2.28590429570027
C           -1.50216576399368        2.08546046959858        1.22801226584631
C           -2.66795307966527        2.01229583488156        0.26041979690790
C           -3.25768363314793        0.61167596912388        0.36912659716379
C           -4.23114673330403        0.22110840924706       -0.54914411006123
C           -4.80282515990600       -1.03408154358687       -0.51123098550113
O           -5.75967898228470       -1.48998169297490       -1.37097092628851
C           -6.27672187371076       -0.60341859787400       -2.32928213428911
C           -4.40013954344323       -1.95611473836874        0.47765912082894
O           -5.01932861265003       -3.17227521187761        0.42867314568289
C           -4.72881490619638       -4.11032315599961        1.43124877887732
C           -3.44590145602152       -1.56860477678006        1.39713651043071
C           -2.88165633084529       -0.29755128266389        1.34395634159305
C           -2.13670838784561        2.25453301705228       -1.20244286229708
C           -1.27426386073293        1.13417318231961       -1.73617904716121
C           -0.02803926693096        1.12914658370976       -0.94640860977490
N            0.58914077024929       -0.05081707227638       -0.52425939005392
C            1.94955272152775       -0.00243737971700       -0.13523086770438
C            2.87380625696680       -0.47579007295364       -1.27479426489716
C            4.29647101637337       -0.37615603230633       -0.84651564553546
C            5.01611643205130        0.78783943690309       -1.04048312648232
C            6.32791937794326        0.88853835729868       -0.60381572567898
C            6.93445241067235       -0.17162279542519        0.04536627211074
O            8.22003415135044       -0.18845487690556        0.50867765181136
C            9.01781188883778        0.94718550284316        0.30191298929080
C            6.20070071391611       -1.35864843871218        0.26494340426945
O            6.88130711214581       -2.35132123844909        0.90950152540876
C            6.23286396138306       -3.57665235352129        1.13029860325150
C            4.89614135846973       -1.44198714820397       -0.17609571920028
C           -0.08438005071011       -1.30657484934887       -0.60692984532491
C           -3.77447719400765        3.04391228245683        0.58319320478388
C           -4.43554375511675        2.76839047373061        1.93278631967580
C           -3.27156932300220        4.48631951395691        0.55355355967876
H           -4.54542695076783        0.92388275066708       -1.30301414830441
H           -6.72578425401561        0.28003846598342       -1.86288366258790
H           -7.04674518988619       -1.16721067949708       -2.85357693302368
H           -5.51040276518742       -0.28599651686874       -3.04530978136344
H           -4.96830226679591       -3.72394191427076        2.42771809616206
H           -5.36269646025005       -4.96874560605722        1.21440772143604
H           -3.67845810766464       -4.42057477671677        1.40474975047705
H           -3.12865902091206       -2.24899670434399        2.17270518284854
H           -2.15240771198871       -0.02846989180513        2.09167510668613
H           -2.80725440397325        2.34297810862580       -2.13318230303585
H           -1.56727225260940        3.18433529983781       -1.17342045598644
H           -1.83428523034354        0.19938077006911       -1.68070265091312
H           -1.10865454579974        1.37155721443554       -2.80074155034477
H           -0.64250931544124        1.51508982854565        0.81937428541382
H            0.63570045980290        1.96468746678098       -1.09751885440576
H            2.08791777455933       -0.63140562785768        0.74906926689896
H            2.21345004383859        1.02598047466818        0.13164537175467
H            2.68788525442083        0.15185065532017       -2.14885864511383
H            2.61175844333636       -1.50432104629765       -1.52536773532544
H            4.56122557590582        1.62522373985227       -1.54844431735028
H            6.87077928008996        1.80263941722821       -0.78623110643738
H            8.60817047478663        1.82919012052490        0.80644520003196
H            9.14423880150507        1.16589510893295       -0.76419348588139
H            9.98532111912090        0.70080732113715        0.73638874532730
H            6.96902593890295       -4.20690143952655        1.62737160850167
H            5.35802210751406       -3.46318175581730        1.78004269923351
H            5.92727681627481       -4.05064900174339        0.19088568248789
H            4.32297934882779       -2.34328655867058       -0.01884572726685
H           -0.19376961656321       -1.63305210041415       -1.64881907126804
H           -1.07977164790801       -1.24863487883462       -0.15641569367359
H            0.50228169069326       -2.04219182530698       -0.06422411147559
H           -4.53102902382426        2.92926732492279       -0.19997290783861
H           -3.71484551547383        2.90558083150860        2.73244021856981
H           -4.82099334197040        1.75242138471482        1.97640336261133
H           -5.26305714046322        3.45954130616274        2.08008499196107
H           -2.48135982898258        4.62791004414508        1.28539873433708
H           -2.89877094165088        4.76269822707036       -0.42964618369605
H           -4.09392966271422        5.15470856606583        0.80084872653642
H           -0.59111480899656        2.74203966968204        2.81761377907493
72
 energy: 16.837602876838 xtb: 6.6.1 (8d0f1dd)
N           -1.45399385665032        2.80001076483219        2.31370605454196
C           -1.46256068724527        2.05022289594042        1.26939596328881
C           -2.62068270100090        1.98531881495220        0.26813555533562
C           -3.22043979281039        0.58991917512577        0.39383896597353
C           -4.18599454172336        0.20500768204469       -0.53368455747094
C           -4.77312483277611       -1.04189023918483       -0.49884349520055
O           -5.72516552944609       -1.49105342200383       -1.37628187702717
C           -6.20205666883270       -0.60046718623641       -2.35024847189566
C           -4.40096989094781       -1.96277559812178        0.49860951033308
O           -5.03764636165756       -3.17683878164505        0.44068052670862
C           -4.76922660406136       -4.11573330944132        1.44536015924702
C           -3.46057073189481       -1.58317800153951        1.43534750914903
C           -2.87843218900810       -0.31976760166567        1.38474147348526
C           -2.10572697531775        2.22978822735956       -1.21859152037724
C           -1.27686407551922        1.10488298020854       -1.77830614805550
C           -0.04307858081864        1.13389496390702       -0.99005354323688
N            0.56425498871922       -0.06103128771150       -0.49308646170022
C            1.91659968511620        0.01510301869851       -0.12078698399691
C            2.83873369251649       -0.43565636579410       -1.27296741018832
C            4.25799907821374       -0.34105502143726       -0.85229814791988
C            4.98031916031486        0.82265731923439       -1.03988280408523
C            6.29255505509312        0.91743246406246       -0.60443683757207
C            6.89429197912127       -0.14889976192950        0.03775128866041
O            8.18769422071886       -0.17403938925530        0.49809341913712
C            8.98539876159724        0.95848488518075        0.29153467633575
C            6.15810603042742       -1.33134807089135        0.25542313584555
O            6.83806142280908       -2.33255221574274        0.89746823995441
C            6.18124339815532       -3.55219457458335        1.11684395308889
C            4.85377472835944       -1.41014111148879       -0.18431731651546
C           -0.10381148633145       -1.30928284611496       -0.60017004150530
C           -3.71625437288442        3.02321924266530        0.58314177196917
C           -4.39930854568192        2.76418951882873        1.92625746610864
C           -3.19649540688808        4.46081535708750        0.55619164094264
H           -4.47418701918414        0.91076178446824       -1.29566339294327
H           -6.64868095443939        0.29317703693613       -1.89972388730533
H           -6.96764503952215       -1.15523120233323       -2.89139626164794
H           -5.41252703615698       -0.29706330299074       -3.04839504642561
H           -5.02117748172605       -3.72953473615821        2.43950115609108
H           -5.40627117236529       -4.96961574191560        1.21752192895505
H           -3.72050236703185       -4.43435853071812        1.43591441736355
H           -3.16540688486573       -2.26631415209792        2.21846765140228
H           -2.15747144444567       -0.05951344140882        2.14363835600530
H           -2.70235174602236        2.33578979601132       -2.24712768892229
H           -1.51702244728772        3.14657063977187       -1.15847155136900
H           -1.84796626116838        0.17674636200333       -1.71460300659325
H           -1.16295905499595        1.35861310830894       -2.85148526830336
H           -0.62050331209617        1.42988542254221        0.94264321967143
H            0.63712028972470        1.94223777044797       -1.19295923988517
H            2.07527072723103       -0.61282905662756        0.76257795062071
H            2.15915660971128        1.04979542114368        0.14733765985521
H            2.63955494735446        0.20485175660084       -2.13548461094918
H            2.56968936896289       -1.46008933250543       -1.53488766848209
H            4.52408360635858        1.66366991649500       -1.54081017005346
H            6.83797277069411        1.83093356565565       -0.78333062138842
H            8.58158484417635        1.84135217705723        0.80023196685526
H            9.10909178761822        1.18175540993862       -0.77455802710546
H            9.95423632152430        0.70753453098742        0.72131818609216
H            6.91477235563944       -4.18825093842933        1.61124942474183
H            5.30814160087918       -3.43518083927521        1.76854403207674
H            5.86964366327321       -4.02377774392208        0.17773145307759
H            4.27432819419330       -2.30771900419771       -0.02758453313901
H           -0.17574261532153       -1.64260045878315       -1.64653251284410
H           -1.11690175439118       -1.25391862149095       -0.18740314787022
H            0.46522753983238       -2.03898897412449       -0.02860927059824
H           -4.46279930697287        2.91385425683950       -0.21014793310278
H           -3.68859773392977        2.90800358845477        2.73355495368373
H           -4.78832109047862        1.74962450959946        1.97523594884009
H           -5.22670195001471        3.46057943284135        2.05205877715189
H           -2.40867189406502        4.59057998829100        1.29272533022196
H           -2.81223400584515        4.72962262681239       -0.42468577338230
H           -4.01353382817084        5.13821521670390        0.79698815064794
H           -0.58642740347769        2.71708007067175        2.86053968371784
72
 energy: 31.228579446698 xtb: 6.6.1 (8d0f1dd)
N           -1.43861808553676        2.79138843786216        2.33817077849570
C           -1.42083659297397        2.02300055900975        1.30403194914970
C           -2.57292567679697        1.95762244662439        0.27526499124359
C           -3.18196989021595        0.56684732427868        0.41777311096785
C           -4.14009652375877        0.18815249393885       -0.51997810475733
C           -4.74427586311947       -1.05012036021590       -0.48763765627633
O           -5.68973774108274       -1.49043131726992       -1.38108226695565
C           -6.12701767956000       -0.59769258663344       -2.37095947187113
C           -4.40242162169622       -1.96986951113114        0.51949699180810
O           -5.05439470197101       -3.17933221421375        0.45329769929783
C           -4.80952929316207       -4.12072339552144        1.45961733573166
C           -3.47488766340086       -1.59737664442106        1.47259564619945
C           -2.87399097507382       -0.34199424735944        1.42411830478852
C           -2.07683393266474        2.20893619347665       -1.24045730877427
C           -1.27896834700272        1.07200074955592       -1.81877209407001
C           -0.05383454772426        1.12985559643993       -1.03971601128411
N            0.53275033454779       -0.06306684282411       -0.46392266868891
C            1.88336314580834        0.03559570918379       -0.10628185676675
C            2.80134269949729       -0.39482182050881       -1.27121960480304
C            4.21958465857983       -0.30530383104821       -0.85629433805518
C            4.94449040124901        0.85765201995495       -1.03893416390544
C            6.25762762800088        0.94645659913980       -0.60522329913854
C            6.85509645934738       -0.12618277504526        0.03016313929706
O            8.15301284870094       -0.15889834781927        0.48706369181598
C            8.95291547625780        0.97004253273415        0.28123386917574
C            6.11601704641137       -1.30518259554631        0.24615819954496
O            6.79353798548540       -2.31299336988414        0.88499419668055
C            6.12953123794115       -3.52778545711361        1.10360670662553
C            4.81101189366151       -1.37862261991207       -0.19176194128702
C           -0.12365528691019       -1.31108004977197       -0.59462937329378
C           -3.65799259529973        3.00376565749705        0.58393243178476
C           -4.36266625144573        2.75987409884669        1.91932298413026
C           -3.12126407877038        4.43585544885005        0.55835374980607
H           -4.40284420374976        0.89716899139142       -1.28804092920798
H           -6.57129324067514        0.30561610752582       -1.93679167919750
H           -6.88741829000338       -1.14341500499009       -2.92885637830133
H           -5.31535039808829       -0.30900038639553       -3.05076479992683
H           -5.07431439360599       -3.73520668096868        2.45111437379527
H           -5.44962797051098       -4.96979924838165        1.22053556812578
H           -3.76305815881853       -4.44825347676057        1.46719038306314
H           -3.20277871708009       -2.28208242499400        2.26357610006415
H           -2.16309214664684       -0.09090869514619        2.19610777879155
H           -2.61160342934528        2.33789062002782       -2.34546807666201
H           -1.46759661029577        3.10911800833295       -1.14817360854877
H           -1.86225362861109        0.15256963403548       -1.74893008886053
H           -1.20609818213814        1.33757424595429       -2.89600773394765
H           -0.60048076203208        1.34543915071782        1.07150687117665
H            0.63742699917352        1.91300293826642       -1.28295038645467
H            2.06233310887220       -0.59326644891702        0.77394725770759
H            2.10672954241960        1.07408489383168        0.16420690807408
H            2.59185843327577        0.25789388564006       -2.12230789593592
H            2.52771492060847       -1.41544144647002       -1.54477778181020
H            4.48731002158505        1.70215983816912       -1.53334697274970
H            6.80510119070449        1.85916378508011       -0.78055324324347
H            8.55529006032876        1.85360724923873        0.79423350816293
H            9.07413474797881        1.19751510782954       -0.78465135893345
H            9.92287533959243        0.71422722671961        0.70634406553122
H            6.86037478987760       -4.16934109797629        1.59531879673882
H            5.25840836154454       -3.40717649166525        1.75751108241328
H            5.81231918851680       -3.99693278789256        0.16487318798147
H            4.22575547906637       -2.27255449823418       -0.03627619028840
H           -0.15748393385027       -1.65135265507674       -1.64242848092124
H           -1.15172817161164       -1.25994356808541       -0.21873935281626
H            0.42739296347806       -2.03456594288185        0.00494982099166
H           -4.39425458539129        2.89879680049918       -0.21925079728057
H           -3.66377660610637        2.91102085216429        2.73544772186153
H           -4.75575147745731        1.74719955142710        1.97382926229060
H           -5.18927800678360        3.46087888369076        2.02328552643926
H           -2.33691045335749        4.55506310468495        1.29994893480035
H           -2.72638437227940        4.69723051650563       -0.41998137969364
H           -3.93255671699594        5.12153928291049        0.79265756416686
H           -0.58155596604560        2.69420313598411        2.90187313410744
72
 energy: 41.767013900053 xtb: 6.6.1 (8d0f1dd)
N           -1.41279765499597        2.77269384584353        2.34906561348997
C           -1.38090697635902        1.99886070715362        1.33208280326014
C           -2.52696650575306        1.92815366523190        0.28365771438264
C           -3.14457984845349        0.54232005179119        0.44050733029591
C           -4.09579782632619        0.17071785562445       -0.50873740195736
C           -4.71840276143187       -1.05883057077441       -0.47862753531014
O           -5.65401722145418       -1.48716540678324       -1.38510851945637
C           -6.05423428322518       -0.59519723539301       -2.39053060143272
C           -4.40492016204170       -1.97787599001674        0.53936203480086
O           -5.06803164168242       -3.17855038918655        0.46620805727703
C           -4.84810888936162       -4.12515799721080        1.47342284274066
C           -3.48823712830361       -1.61066181523912        1.50662597739492
C           -2.86856654635301       -0.36329013618247        1.46009039866119
C           -2.04895789367626        2.19317964084995       -1.26577793907116
C           -1.28036410679476        1.03535919120578       -1.85411089182090
C           -0.05620094901479        1.10957008435311       -1.09260400288403
N            0.49180156737970       -0.04997068051125       -0.43996405639746
C            1.85079850101089        0.05913026523776       -0.09229194586701
C            2.76130000521763       -0.35461460544244       -1.26941236167778
C            4.18260707772144       -0.26986799009279       -0.85755344595975