72
 energy: 0.000000000000 xtb: 6.6.1 (8d0f1dd)
N           -1.47310921155849        2.74401293103706        2.22063921685122
C           -1.55658879776851        2.16490285539332        1.13274273951491
C           -2.74549199786261        2.05621232186130        0.23826248438941
C           -3.31377553111525        0.64333411542669        0.32332512650568
C           -4.30230156009016        0.24487110156316       -0.58026161703006
C           -4.85238763031941       -1.02286490450319       -0.53363588718165
O           -5.81419972815119       -1.48606034185536       -1.36157882725342
C           -6.39655633239252       -0.60827000183299       -2.29568474302620
C           -4.39972501531283       -1.94646102182611        0.44396929121966
O           -4.98748311285188       -3.16145997157803        0.41085992006324
C           -4.66362127904578       -4.10093827755394        1.40909127743729
C           -3.42072513477031       -1.54561384810496        1.33436546260297
C           -2.88302799614223       -0.26315800396994        1.27400150770375
C           -2.19303798107274        2.30467000305896       -1.18742977106749
C           -1.26651538239283        1.17243369445008       -1.65249429687285
C            0.01082524939134        1.09745454476277       -0.89354803499847
N            0.61779393476578       -0.02034948052406       -0.57705522512502
C            2.00145210352228       -0.02376006389122       -0.15611399603240
C            2.92554934655222       -0.53865282675074       -1.27700088804721
C            4.35756843073516       -0.43050757231754       -0.83075544324989
C            5.07346135469827        0.73206409086248       -1.03980965825901
C            6.38627986649936        0.84224441421807       -0.60344822702769
C            7.00047264773336       -0.20824756335880        0.05722314418200
O            8.26703657141718       -0.21011313101264        0.52410943644933
C            9.06912227848686        0.92943601033931        0.31863058007678
C            6.27039964270142       -1.40439753960823        0.28033466008274
O            6.94829939911432       -2.38012925705718        0.92751999079483
C            6.31537317745639       -3.61583200086742        1.15217711710877
C            4.96302794628964       -1.49347471867959       -0.16064430359178
C           -0.05511211367372       -1.29906247805359       -0.62085686319744
C           -3.86758037025447        3.07992600430699        0.58498060215443
C           -4.49286159663096        2.77383493050346        1.94313289484366
C           -3.39165179876499        4.52917666589254        0.54797523472093
H           -4.66030026466202        0.94509067363451       -1.31640568823548
H           -6.85037928558380        0.25803162192116       -1.80468845313260
H           -7.17287442604349       -1.18600110843259       -2.79318157561361
H           -5.66836817451085       -0.26952966318766       -3.04040255244073
H           -4.88416720672258       -3.71589460520039        2.40913542187496
H           -5.29223570620378       -4.96637458756866        1.20969236903657
H           -3.61139813139015       -4.39919835331056        1.35529357841967
H           -3.07077796610445       -2.21868765711333        2.10002662693138
H           -2.14562754426994        0.02067850696302        2.01001344383370
H           -3.02188875377605        2.38238012313952       -1.88813545054866
H           -1.65198530896729        3.25146700677685       -1.20556284570283
H           -1.81103374245520        0.23006524641044       -1.62116301628650
H           -0.99335688527853        1.37490212198123       -2.69443256973690
H           -0.67628064361333        1.65183887049447        0.61785727145403
H            0.63525841192517        1.98466369793744       -0.92314021190751
H            2.11132552493482       -0.65949692842762        0.72532613231274
H            2.30680473056284        0.98978251704176        0.11078972794250
H            2.76694198818247        0.06750735147374       -2.17075252200790
H            2.67954581369920       -1.57455627803457       -1.51167743520200
H            4.62169998552446        1.56295612048703       -1.56123579000624
H            6.92357674630170        1.75715815945204       -0.79119596719031
H            8.65159112996149        1.81001823324363        0.81701555159939
H            9.20136171144928        1.14042857828877       -0.74698991949293
H           10.03428838009630        0.69003240176163        0.76064937965836
H            7.05567174969094       -4.23621171795340        1.65347565939075
H            5.43848001056755       -3.50813558175093        1.79970565785717
H            6.02060041905269       -4.09420497120334        0.21253282636366
H            4.40102758497114       -2.40127266373392       -0.00490198249042
H           -0.22071299714579       -1.61775583601871       -1.65116008982042
H           -1.01972258008625       -1.24102717432227       -0.10935206830928
H            0.55899954147532       -2.04486085926761       -0.12333730421426
H           -4.63991875734388        2.95501092798550       -0.18098088071825
H           -3.76095216473977        2.90314704960906        2.73380821053058
H           -4.87457614030224        1.75695641518947        1.97884603101694
H           -5.31925552549014        3.45579210326349        2.12325564252114
H           -2.60025590131176        4.69225046143352        1.27368918226171
H           -3.03987406413880        4.81897652321898       -0.43870975059559
H           -4.22191740670577        5.18069648090034        0.80616693961239
H           -0.59832433787845        2.77744694953323        2.72958984441332
72
 energy: -5.397427952600 xtb: 6.6.1 (8d0f1dd)
N           -1.48731328428034        2.77729280002476        2.24647630564397
C           -1.53728930374335        2.13877850977574        1.16336337799981
C           -2.72550839330825        2.04763865258020        0.24288217547981
C           -3.30012360322431        0.63933866540076        0.33485557418779
C           -4.28545116038252        0.23990052197227       -0.57046634621375
C           -4.83813935547328       -1.02497454155384       -0.52625216341991
O           -5.80358819723987       -1.48970184293039       -1.36691656533344
C           -6.36746827534428       -0.60787720300770       -2.30321606629842
C           -4.39878341094830       -1.94570816811665        0.45111210278132
O           -4.99824547362724       -3.16846832462952        0.41463351761703
C           -4.67942706266007       -4.10257388576308        1.41346396905123
C           -3.42749466710033       -1.54892589136974        1.34938025537614
C           -2.88517586168101       -0.26911470037413        1.29141903593560
C           -2.17382841223034        2.28432854656336       -1.19693658500638
C           -1.26412891074839        1.16266366301934       -1.69379116079147
C           -0.00179889891182        1.12528295289138       -0.93131525490463
N            0.61592160533237       -0.04432712933119       -0.54504865241028
C            1.98627598137328       -0.02410852497903       -0.15171305889003
C            2.91823496532070       -0.52405650782831       -1.27758395951582
C            4.34329349478972       -0.41898605888557       -0.83999582870628
C            5.06098318886627        0.74510082358731       -1.04152077970883
C            6.37218489296078        0.85374097093661       -0.60284425835416
C            6.98157782442244       -0.19973445869810        0.05442572470060
O            8.26056298585512       -0.20494033664687        0.52282111534244
C            9.05603578493340        0.93298668214802        0.31495042409727
C            6.25301410513094       -1.39046339971456        0.27626359058240
O            6.93423690101451       -2.37494535042333        0.92587962459614
C            6.29560164110200       -3.60529348520320        1.14738872051957
C            4.94808911636628       -1.48072144956141       -0.16654118973586
C           -0.06131541200170       -1.30526150961175       -0.61571593815727
C           -3.84514333619928        3.06902003641658        0.58143582145780
C           -4.47894827867442        2.77309365085517        1.93991281262332
C           -3.36500530045542        4.51903697298181        0.54929683107030
H           -4.63080442286348        0.93997763514226       -1.31333201169330
H           -6.81997258711982        0.26361613274935       -1.81818429964357
H           -7.14321046147850       -1.18080263577193       -2.80872925267227
H           -5.63112136544305       -0.27229602449180       -3.04136700846573
H           -4.90376961826514       -3.71736984397762        2.41382534229354
H           -5.30865952644773       -4.96808252208941        1.21178810213797
H           -3.62708100945388       -4.40351845805045        1.36753131078991
H           -3.08348243102202       -2.22568457048998        2.11589972647751
H           -2.14684347309251        0.01037216908238        2.02736454682434
H           -2.95572748861728        2.37339762947733       -1.95817301557344
H           -1.61751485923458        3.22325027578986       -1.19527496561871
H           -1.81041910281446        0.22074494697223       -1.64646026906789
H           -1.03805037078955        1.37436463106524       -2.74715049670483
H           -0.67426119928299        1.61926439896999        0.68867827560634
H            0.64205058049448        1.98590420260255       -0.98196375176289
H            2.11115863299811       -0.65442955189704        0.73519859468200
H            2.27981739978140        0.99483346891417        0.11394167881008
H            2.74652806191119        0.08782122069384       -2.16476689276778
H            2.66357962971775       -1.55788221527061       -1.51567679466340
H            4.60674169743167        1.57735562886911       -1.55821989445312
H            6.91119368593353        1.76883942291766       -0.78855008617884
H            8.64065687495476        1.81516421834313        0.81399668640506
H            9.18712857936275        1.14674430449167       -0.75132470408461
H           10.02295464297258        0.69396940647923        0.75465417267329
H            7.03421640719529       -4.22956726537734        1.64801777512400
H            5.41843209642981       -3.49692806276823        1.79468008284974
H            5.99776594644604       -4.08319897840435        0.20772972345665
H            4.38257698263913       -2.38646518643537       -0.00885150093016
H           -0.20880548761883       -1.62981549348448       -1.65181104357374
H           -1.03593869338978       -1.24492911361323       -0.12339271661600
H            0.54211836099887       -2.05090620178971       -0.10369793502262
H           -4.61678813582200        2.95052052962390       -0.18745298733943
H           -3.74666641316085        2.90292786215572        2.72983395382685
H           -4.86065229280056        1.75572474344108        1.97816302353315
H           -5.30556146173816        3.45812929194660        2.11323936646680
H           -2.57288188475863        4.67324148017937        1.27558567879355
H           -3.00726727313684        4.80443565032955       -0.43663269282718
H           -4.19288602307263        5.17591242365784        0.80561395646371
H           -0.59821311262474        2.76278691255811        2.74526388314668
72
 energy: -3.809222609191 xtb: 6.6.1 (8d0f1dd)
N           -1.48107498746618        2.78570214933396        2.25623312694572
C           -1.52374611922390        2.12617509188232        1.18141204700528
C           -2.70413196796286        2.03540818268344        0.24213774760750
C           -3.28488025795025        0.63069375709425        0.34470134065806
C           -4.26742174290602        0.23373166454563       -0.56437812189775
C           -4.82733328609340       -1.02776607137298       -0.52176982629198
O           -5.78756017500700       -1.49016170005733       -1.36956603590526
C           -6.33855155969696       -0.60661154497724       -2.31167244576899
C           -4.39950433131835       -1.94901185422994        0.45969060882991
O           -5.00476049063007       -3.16945952102122        0.41926300217897
C           -4.69536889382299       -4.10513656432651        1.41930104639422
C           -3.43309520335480       -1.55427813333752        1.36398121086795
C           -2.88378089200701       -0.27704885731395        1.30762402627671
C           -2.15069209983573        2.26774443139753       -1.20961720589265
C           -1.26396227114649        1.14385112612134       -1.72228704727967
C            0.00106952337474        1.11443570159401       -0.98279108741193
N            0.59871553625165       -0.04309627175566       -0.52591848176275
C            1.97189318241993       -0.01684396005202       -0.14444307567741
C            2.90214091632450       -0.50809039540762       -1.27621718032450
C            4.32783720366117       -0.40495770406234       -0.84250477673265
C            5.04663709416509        0.75875368505695       -1.04184444896446
C            6.35824457522877        0.86474179332535       -0.60365983041403
C            6.96666788054181       -0.19083730458762        0.05112490372697
O            8.24615444412339       -0.19881766193274        0.51785140369393
C            9.04329994640950        0.93784226873056        0.31057038308054
C            6.23651140374914       -1.38050463963407        0.27221991354151
O            6.91614645819344       -2.36697555010567        0.92049330039332
C            6.27521802449548       -3.59611131869574        1.14152438824106
C            4.93143974028086       -1.46819443543652       -0.17033053028036
C           -0.07029102928216       -1.30783261175360       -0.61130057146182
C           -3.82186684405365        3.06060270198270        0.57885502300977
C           -4.46401053021544        2.77088745391403        1.93542096437686
C           -3.33692452655450        4.50900481170317        0.54936270309477
H           -4.60233958649186        0.93491118826182       -1.31076380658408
H           -6.78993365766340        0.26849898673902       -1.83211231976669
H           -7.11238541559465       -1.17613383308094       -2.82370893883074
H           -5.59371550759752       -0.27592719107005       -3.04310927302446
H           -4.92466878644818       -3.71968172249381        2.41847549563609
H           -5.32581318515577       -4.96872419127034        1.21302606913639
H           -3.64361161113389       -4.40899496279055        1.37988618229030
H           -3.09727742276253       -2.23215495693802        2.13334244309599
H           -2.14841743679238       -0.00156820109322        2.04796398880334
H           -2.88237287428493        2.36755834067861       -2.02692795941181
H           -1.58262145914686        3.19895995088687       -1.18504355219306
H           -1.81717988984987        0.20646777885837       -1.66927809923655
H           -1.06910699596976        1.36885759847509       -2.78000818449254
H           -0.66456888472907        1.58417616999598        0.74213576928565
H            0.63936310593319        1.97980090580735       -1.02413785153992
H            2.10337546307793       -0.64544810483656        0.74238039305396
H            2.25916472074743        1.00384765888571        0.12006878130902
H            2.72697377245899        0.10827590504302       -2.15935028740673
H            2.64727505951338       -1.54096822366864       -1.51877910725488
H            4.59247879045031        1.59246973621169       -1.55586077169068
H            6.89850359112125        1.77942734871083       -0.78806068160373
H            8.62993643297717        1.81982495719664        0.81153424135830
H            9.17327037361456        1.15311852218452       -0.75554895323090
H           10.01044890302716        0.69672518776122        0.74846243430202
H            7.01283720014702       -4.22258779071607        1.64098883458915
H            5.39884942497090       -3.48629647150345        1.78955677685727
H            5.97531728396898       -4.07271755325665        0.20186511191738
H            4.36432772933738       -2.37286842909143       -0.01210570272254
H           -0.19374377986684       -1.63720158523497       -1.64957035956900
H           -1.05309098968224       -1.24800541004988       -0.13706250742309
H            0.52610606349839       -2.04930605104743       -0.08497143797863
H           -4.58991922942604        2.94415835041965       -0.19338788239607
H           -3.73667803833356        2.90352941139335        2.72920646640734
H           -4.84776353218977        1.75443003506758        1.97662894964933
H           -5.29054432439073        3.45846981232953        2.10029207126346
H           -2.54663542951324        4.65904232348884        1.27818972201328
H           -2.97504640018291        4.79208517065320       -0.43542929160097
H           -4.16269101363130        5.16942092474291        0.80345933688306
H           -0.59883605828191        2.75513815723437        2.76858682867709
72
 energy: -0.904404167791 xtb: 6.6.1 (8d0f1dd)
N           -1.47398532083556        2.78962427944354        2.26714224450411
C           -1.50951133656030        2.11248067726581        1.19856687534992
C           -2.68203595482315        2.02287661690700        0.24027220460957
C           -3.26955372854003        0.62176443875176        0.35239797707544
C           -4.25027954707135        0.22714275237859       -0.55950593203631
C           -4.81714146322855       -1.03103993330912       -0.51791264315608
O           -5.77244092192430       -1.49103590057720       -1.37241498570152
C           -6.31025496552611       -0.60543956771964       -2.31996868280273
C           -4.40019291494225       -1.95262371022158        0.46734181737570
O           -5.01148071186826       -3.17058218264931        0.42353204300175
C           -4.71186035356950       -4.10775513746177        1.42480867114213
C           -3.43826637386946       -1.55961806926485        1.37710802143537
C           -2.88226247603472       -0.28494662832186        1.32185609359541
C           -2.12639317668803        2.25262079199531       -1.22624350376112
C           -1.26369017339103        1.12267985200415       -1.75178660941260
C            0.00854094715409        1.09636120427855       -1.04073035549280
N            0.58078620735553       -0.04226907198449       -0.50661816106303
C            1.95756002659711       -0.00962472978362       -0.13693293880218
C            2.88618518487057       -0.49220686589030       -1.27424402647700
C            4.31241488432716       -0.39023821719825       -0.84409433425715
C            5.03236260889128        0.77321982117557       -1.04120708956218
C            6.34444735624931        0.87635730662812       -0.60372738357664
C            6.95183457916015       -0.18172652249622        0.04794420346112
O            8.23195600266440       -0.19288756747389        0.51263409966273
C            9.03092708931553        0.94228347959512        0.30566392375096
C            6.22017881567677       -1.37035443298331        0.26819172869041
O            6.89867071495054       -2.35873799073038        0.91490259816439
C            6.25650114420403       -3.58704700462542        1.13629627931860
C            4.91486195154617       -1.45529981098335       -0.17376130837786
C           -0.08066602784256       -1.31051749926454       -0.60608267951188
C           -3.79803698607840        3.05154242925085        0.57694185087219
C           -4.44817883310727        2.76932257745002        1.93207388711363
C           -3.30818587033603        4.49820101524714        0.54957313142747
H           -4.57633113092169        0.92954218121129       -1.30852378947179
H           -6.76040542443603        0.27321720800680       -1.84569241056286
H           -7.08201908943623       -1.17125279872954       -2.83897532216052
H           -5.55685382031244       -0.27948586847828       -3.04436228814606
H           -4.94627450597402       -3.72205072731726        2.42274036146402
H           -5.34380243627522       -4.96912710208809        1.21371406639324
H           -3.66084097773799       -4.41501648511901        1.39207156504561
H           -3.11042437525556       -2.23801724323097        2.14960117937109
H           -2.15050139537677       -0.01277340948343        2.06681301702667
H           -2.80837952613781        2.36251798021786       -2.09484434138310
H           -1.54336032721625        3.17358258955415       -1.17417269442862
H           -1.82642801621902        0.19191746490643       -1.69109836943325
H           -1.09956394168347        1.36045481184210       -2.81275288680006
H           -0.65516987855719        1.54795096581123        0.79339540518329
H            0.63789141362525        1.96891195148538       -1.07158219042304
H            2.09640304198135       -0.63370350498256        0.75171660075145
H            2.24010593755728        1.01297953290094        0.12396371594157
H            2.70781082002342        0.12794379091320       -2.15394552608007
H            2.63180766100245       -1.52431412764596       -1.52100596514508
H            4.57836524545492        1.60874952565942       -1.55211039468315
H            6.88602850490608        1.79075470526179       -0.78609177263331
H            8.62005596288231        1.82426530834157        0.80865261932833
H            9.15955521423263        1.15894548355805       -0.76036209661085
H            9.99836300587158        0.69880377305697        0.74141663741441
H            6.99404297117669       -4.21489211208877        1.63429040249786
H            5.38137704820491       -3.47644786696561        1.78582013396770
H            5.95442309597122       -4.06308889995580        0.19704441627895
H            4.34610017611314       -2.35893395534851       -0.01536103189574
H           -0.18115420443389       -1.64282860771505       -1.64622969539218
H           -1.07095576786699       -1.25061407765790       -0.14926212068228
H            0.50790326621795       -2.04920661343586       -0.06762224275369
H           -4.56332347518551        2.93740400554456       -0.19786622039868
H           -3.72559220527258        2.90570234962953        2.72941539821652
H           -4.83430539336724        1.75395145392106        1.97736323443934
H           -5.27431784144062        3.45992209794083        2.08807992459067
H           -2.51984467905319        4.64398319425534        1.28103553382705
H           -2.94226394683796        4.77884524998221       -0.43414247593216
H           -4.13171927812113        5.16222243747501        0.80140195557253
H           -0.59927459016700        2.74433747722010        2.79265607036957
72
 energy: 3.122815420216 xtb: 6.6.1 (8d0f1dd)
N           -1.46412305067836        2.78484984877072        2.28137353465507
C           -1.49349672018175        2.09884039462913        1.21488484854967
C           -2.65888735571121        2.01138383016380        0.23808024181918
C           -3.25257756140175        0.61307487851171        0.36098028087291
C           -4.23107432805497        0.22049276873678       -0.55403511890458
C           -4.80569370486411       -1.03408290925043       -0.51339304905880
O           -5.75608372950806       -1.49116672278778       -1.37475795920195
C           -6.28060782587363       -0.60378183651008       -2.32793972427965
C           -4.40055626487017       -1.95613759592586        0.47591981710089
O           -5.01781883192485       -3.17160123973846        0.42867462203360
C           -4.72750571201071       -4.11047318585877        1.43090298567676
C           -3.44340018786391       -1.56501694545069        1.39148479675876
C           -2.88009328585854       -0.29302331275300        1.33740030164971
C           -2.10196875594354        2.24059556543560       -1.24793124808668
C           -1.26368167593188        1.09997467043053       -1.78073382057830
C            0.01816250851953        1.07072031668756       -1.09781372297883
N            0.56273925852982       -0.04234704527514       -0.48788842023857
C            1.94308386111855       -0.00227250809482       -0.12974628884249
C            2.86992735063075       -0.47621704419448       -1.27281499933799
C            4.29671749529409       -0.37620084384461       -0.84574309616249
C            5.01796349570994        0.78666492693153       -1.04120440002010
C            6.33046368521024        0.88724692162858       -0.60424825917354
C            6.93681883223946       -0.17291601521001        0.04502470004538
O            8.21746439394661       -0.18685399044199        0.50806179080187
C            9.01812192887146        0.94704667752423        0.30166378644357
C            6.20354247131001       -1.36043781813870        0.26462548839157
O            6.88049946739372       -2.35087583636748        0.90984521874655
C            6.23605518987230       -3.57798498372515        1.13067922287515
C            4.89798350805714       -1.44282656774836       -0.17682196743124
C           -0.08986700978054       -1.31419104967872       -0.60178329633800
C           -3.77411349712143        3.04328765825159        0.57448623736413
C           -4.43254960151630        2.76637793733011        1.92762457851824
C           -3.27987154567298        4.48854426162779        0.54953364141536
H           -4.54685756140900        0.92382453010252       -1.30646151782501
H           -6.72926186300947        0.27858882473827       -1.85913599439876
H           -7.05070232851556       -1.16571066080661       -2.85346657359414
H           -5.51885955669294       -0.28304845805926       -3.04558306188731
H           -4.96656830572940       -3.72469404729144        2.42771658439759
H           -5.36074709206693       -4.96990507921720        1.21546905204339
H           -3.67720435218346       -4.42086927340952        1.40444046721616
H           -3.12408385192527       -2.24436920879697        2.16700919360830
H           -2.15185374452934       -0.02519729245116        2.08726192282196
H           -2.73266300857823        2.36950334112311       -2.16480845622415
H           -1.50384919540741        3.14915697678201       -1.16800511683358
H           -1.83613752982507        0.17631182334643       -1.71058017368105
H           -1.12924455525048        1.34438386964503       -2.84551999884337
H           -0.64447007688610        1.51085013643765        0.84417656459524
H            0.63402881385565        1.95535566465707       -1.11393521347308
H            2.08918092887355       -0.62398064029907        0.75880834424141
H            2.21906597668012        1.02242570897539        0.12982923543249
H            2.68893913098456        0.14821343014031       -2.14883584002427
H            2.61575343435899       -1.50731075125825       -1.52476751891842
H            4.56413239673856        1.62345202116661       -1.54981173303285
H            6.87335592239532        1.80116179800127       -0.78532776062706
H            8.60935058787491        1.82889949591391        0.80656438877208
H            9.14563567271766        1.16533008892975       -0.76419023854744
H            9.98583347000299        0.70155933249946        0.73554858652397
H            6.97260309195575       -4.20809602410232        1.62741837734306
H            5.36173401179047       -3.46602153970512        1.78100434927374
H            5.93191121995770       -4.05261831593265        0.19136756236362
H            4.32769527569794       -2.34548314484092       -0.01826473082000
H           -0.16571712159299       -1.64882233120696       -1.64341787476193
H           -1.08794760894395       -1.25468941781101       -0.16395578320451
H            0.49151936295446       -2.04817586596334       -0.05013118641934
H           -4.53684107256970        2.93177053506404       -0.20288689126671
H           -3.71491400659481        2.90567572052731        2.72876678921159
H           -4.82037614437557        1.75178350705938        1.97555650580034
H           -5.25904638577013        3.45876161249208        2.07598922517155
H           -2.49337554620377        4.63012342502619        1.28352264413901
H           -2.90973135011233        4.76694524302891       -0.43301491548725
H           -4.10106072702577        5.15643055299133        0.79903640706873
H           -0.59658850911277        2.72981894063653        2.81722959695708
72
 energy: 8.087590512750 xtb: 6.6.1 (8d0f1dd)
N           -1.45116300394240        2.77315215447419        2.29261220995902
C           -1.47542553700503        2.08270551373066        1.22802099997021
C           -2.63535814625873        1.99923322137907        0.23602458559397
C           -3.23553151431513        0.60419192563338        0.36886322110606
C           -4.21230299204671        0.21408379782803       -0.54888206845272
C           -4.79469305207977       -1.03679030536112       -0.50909746869367
O           -5.74034631456108       -1.49097338108819       -1.37704835378510
C           -6.25195958240952       -0.60236282008703       -2.33604243403761
C           -4.40104453312820       -1.95918286567872        0.48418209761787
O           -5.02419220333612       -3.17205364409337        0.43366048691136
C           -4.74301029330341       -4.11251703713903        1.43677545735039
C           -3.44846381367496       -1.57001922044175        1.40542381473780
C           -2.87775499317320       -0.30093764337406        1.35228780678349
C           -2.07480014515640        2.22816350436589       -1.27051889381199
C           -1.26184700224365        1.07578375602945       -1.81008476340449
C            0.03035440092664        1.03925093559331       -1.15257879624895
N            0.54543189890036       -0.04342970141318       -0.47022532673383
C            1.92924227399270        0.00459093544133       -0.12245791632799
C            2.85377834831746       -0.46028444477348       -1.27161702974140
C            4.28114482762267       -0.36189200600064       -0.84760583760763