72
 energy: -5.892237937908 xtb: 6.6.1 (8d0f1dd)
N           -1.49231067587325        2.79233013244799        2.23590562922082
C           -1.55052174629330        2.17053477830479        1.14701492080104
C           -2.75175200058896        2.07378771086241        0.25025186700183
C           -3.31814307998562        0.66350723011967        0.33032936524692
C           -4.29873901608338        0.26136582838505       -0.57873113642404
C           -4.83760430121917       -1.00958284308306       -0.53937701282420
O           -5.80075299755019       -1.47976916945245       -1.38046582858187
C           -6.37391179638491       -0.60006097154843       -2.31305038024552
C           -4.38804051048715       -1.92955890201765        0.43439583252111
O           -4.97444385271149       -3.15812853011282        0.39477848969180
C           -4.64530966263339       -4.09051854776549        1.39212676170003
C           -3.41910039459383       -1.52899911747185        1.33333970928955
C           -2.88944009398106       -0.24462292053579        1.27969746638664
C           -2.21168386129920        2.28777472014447       -1.18808843094534
C           -1.29529359020668        1.14036273619262       -1.69048954895970
C           -0.01176276243776        1.09103903532953       -0.93768598213061
N            0.62400239036917       -0.07094594515874       -0.56469859006063
C            1.99456581517878       -0.04681461327932       -0.16460353433133
C            2.93263365387755       -0.56119263888787       -1.27905389541541
C            4.35626063426690       -0.44646482557902       -0.83871845862664
C            5.06744688328008        0.72054075924728       -1.04562161723581
C            6.37700315248595        0.83953828933630       -0.60536185180157
C            6.99239515621882       -0.20701240796500        0.05754906969467
O            8.27135754943715       -0.20221613591650        0.52815075150330
C            9.05969198283258        0.93933791615398        0.31498557705049
C            6.27093141143984       -1.40133825241657        0.28302571486954
O            6.95850786197695       -2.37939182303314        0.93626555543786
C            6.32761961161525       -3.61278508060464        1.16176060063292
C            4.96693891086962       -1.50163052647305       -0.16029553742635
C           -0.05311904910927       -1.33212759714939       -0.60919786520965
C           -3.87753045020832        3.08693876309934        0.60138613308793
C           -4.49317789556546        2.77652300968693        1.96530611284970
C           -3.41014307723787        4.54090250947349        0.57292686835362
H           -4.65003525756833        0.96014912358977       -1.32029452622460
H           -6.83458346382704        0.26512379157890       -1.82436579158905
H           -7.14504213509713       -1.17863036331636       -2.81929893865218
H           -5.64195197196582       -0.25477996887806       -3.05127052280426
H           -4.87089026346250       -3.70929328084646        2.39379087294745
H           -5.26698540628183       -4.96114605935311        1.19013737227347
H           -3.59059393034174       -4.38261239599896        1.34426605858368
H           -3.06650253614014       -2.20475685361616        2.09625614130474
H           -2.15079032213555        0.04152736709836        2.01240564045149
H           -3.04705516747650        2.42623243941339       -1.87316439393850
H           -1.63325195169015        3.21603681100707       -1.21096965463269
H           -1.81819536391922        0.18415871716315       -1.64654220080909
H           -1.05054705907938        1.34709200432834       -2.73995015528066
H           -0.68928532863166        1.66747747754857        0.64556989103092
H            0.63582880064874        1.95135130770506       -0.99730806316154
H            2.11757544505937       -0.67050396290604        0.72830914148595
H            2.28800503830189        0.97401206018288        0.09382475111263
H            2.76176465211401        0.03862951068994       -2.17431538191191
H            2.68103204625064       -1.59837999670880       -1.50447114567264
H            4.60870348521740        1.54776966965924       -1.56664053671919
H            6.90978920546468        1.75754553297671       -0.79405818417348
H            8.63907485541333        1.82118066834392        0.81019732847728
H            9.18933115256582        1.14884240888040       -0.75230021983011
H           10.02798446873928        0.70742390836801        0.75577019519358
H            7.07024572310335       -4.23017823803448        1.66497025798505
H            5.44932694175139       -3.50815279235880        1.80822231262872
H            6.03397345552781       -4.09534006553978        0.22329153088399
H            4.40658020019199       -2.41001833093702        0.00044230298868
H           -0.21733663692989       -1.66986972113712       -1.63833417708411
H           -1.02160192257779       -1.26739105450925       -0.10423888331613
H            0.55801782406621       -2.07076745124642       -0.09647899931885
H           -4.65876806375103        2.96707670645545       -0.15876033906421
H           -3.74995189382404        2.90234276470308        2.74629227613505
H           -4.86943296973717        1.75688485918464        1.99861520081652
H           -5.32137944789278        3.45532757744931        2.15620813877241
H           -2.61750932609966        4.69860490611427        1.29828309147288
H           -3.05695110303166        4.83265769521178       -0.41281678186274
H           -4.24309510193151        5.19007539130862        0.83377608602006
H           -0.59463887977715        2.79345713718100        2.71767470738362
