      -----------------------------------------------------------      
     |                   =====================                   |     
     |                           x T B                           |     
     |                   =====================                   |     
     |                         S. Grimme                         |     
     |          Mulliken Center for Theoretical Chemistry        |     
     |                    University of Bonn                     |     
      -----------------------------------------------------------      

   * xtb version 6.6.1 (8d0f1dd) compiled by 'conda@1efc2f54142f' on 2023-08-01

   xtb is free software: you can redistribute it and/or modify it under
   the terms of the GNU Lesser General Public License as published by
   the Free Software Foundation, either version 3 of the License, or
   (at your option) any later version.
   
   xtb is distributed in the hope that it will be useful,
   but WITHOUT ANY WARRANTY; without even the implied warranty of
   MERCHANTABILITY or FITNESS FOR A PARTICULAR PURPOSE.  See the
   GNU Lesser General Public License for more details.
   
   Cite this work as:
   * C. Bannwarth, E. Caldeweyher, S. Ehlert, A. Hansen, P. Pracht,
     J. Seibert, S. Spicher, S. Grimme, WIREs Comput. Mol. Sci., 2020, 11,
     e01493. DOI: 10.1002/wcms.1493
   
   for GFN2-xTB:
   * C. Bannwarth, S. Ehlert and S. Grimme., J. Chem. Theory Comput., 2019,
     15, 1652-1671. DOI: 10.1021/acs.jctc.8b01176
   for GFN1-xTB:
   * S. Grimme, C. Bannwarth, P. Shushkov, J. Chem. Theory Comput., 2017,
     13, 1989-2009. DOI: 10.1021/acs.jctc.7b00118
   for GFN0-xTB:
   * P. Pracht, E. Caldeweyher, S. Ehlert, S. Grimme, ChemRxiv, 2019, preprint.
     DOI: 10.26434/chemrxiv.8326202.v1
   for GFN-FF:
   * S. Spicher and S. Grimme, Angew. Chem. Int. Ed., 2020, 59, 15665-15673.
     DOI: 10.1002/anie.202004239
   
   for ALPB and GBSA implicit solvation:
   * S. Ehlert, M. Stahn, S. Spicher, S. Grimme, J. Chem. Theory Comput.,
     2021, 17, 4250-4261. DOI: 10.1021/acs.jctc.1c00471
   
   for DFT-D4:
   * E. Caldeweyher, C. Bannwarth and S. Grimme, J. Chem. Phys., 2017,
     147, 034112. DOI: 10.1063/1.4993215
   * E. Caldeweyher, S. Ehlert, A. Hansen, H. Neugebauer, S. Spicher,
     C. Bannwarth and S. Grimme, J. Chem. Phys., 2019, 150, 154122.
     DOI: 10.1063/1.5090222
   * E. Caldeweyher, J.-M. Mewes, S. Ehlert and S. Grimme, Phys. Chem. Chem. Phys.
     2020, 22, 8499-8512. DOI: 10.1039/D0CP00502A
   
   for sTDA-xTB:
   * S. Grimme and C. Bannwarth, J. Chem. Phys., 2016, 145, 054103.
     DOI: 10.1063/1.4959605
   
   in the mass-spec context:
   * V. Asgeirsson, C. Bauer and S. Grimme, Chem. Sci., 2017, 8, 4879.
     DOI: 10.1039/c7sc00601b
   * J. Koopman and S. Grimme, ACS Omega 2019, 4, 12, 15120-15133.
     DOI: 10.1021/acsomega.9b02011
   
   for metadynamics refer to:
   * S. Grimme, J. Chem. Theory Comput., 2019, 155, 2847-2862
     DOI: 10.1021/acs.jctc.9b00143
   
   for SPH calculations refer to:
   * S. Spicher and S. Grimme, J. Chem. Theory Comput., 2021, 17, 1701-1714
     DOI: 10.1021/acs.jctc.0c01306
   
   with help from (in alphabetical order)
   P. Atkinson, C. Bannwarth, F. Bohle, G. Brandenburg, E. Caldeweyher
   M. Checinski, S. Dohm, S. Ehlert, S. Ehrlich, I. Gerasimov, C. Hölzer
   A. Katbashev, J. Koopman, C. Lavigne, S. Lehtola, F. März, M. Müller,
   F. Musil, H. Neugebauer, J. Pisarek, C. Plett, P. Pracht, F. Pultar,
   J. Seibert, P. Shushkov, S. Spicher, M. Stahn, M. Steiner, T. Strunk,
   J. Stückrath, T. Rose, and J. Unsleber
   
 * started run on 2024/06/05 at 19:58:52.973     

           -------------------------------------------------
          |                Calculation Setup                |
           -------------------------------------------------

          program call               : xtb struc.xyz --opt loose --input .xc1 --gfn2
          hostname                   : n-62-29-9
          coordinate file            : struc.xyz
          omp threads                :                     1

   ID    Z sym.   atoms
    1    6 C      1, 3, 5-7, 10, 11, 14
    2    7 N      2, 4, 9, 13
    3    8 O      8, 12
    4    1 H      15-25
constraining bond 11 23 to    5.1400000 Å, actual value:    3.1827480 Å

           -------------------------------------------------
          |                 G F N 2 - x T B                 |
           -------------------------------------------------

        Reference                      10.1021/acs.jctc.8b01176
      * Hamiltonian:
        H0-scaling (s, p, d)           1.850000    2.230000    2.230000
        zeta-weighting                 0.500000
      * Dispersion:
        s8                             2.700000
        a1                             0.520000
        a2                             5.000000
        s9                             5.000000
      * Repulsion:
        kExp                           1.500000    1.000000
        rExp                           1.000000
      * Coulomb:
        alpha                          2.000000
        third order                    shell-resolved
        anisotropic                    true
        a3                             3.000000
        a5                             4.000000
        cn-shift                       1.200000
        cn-exp                         4.000000
        max-rad                        5.000000


          ...................................................
          :                      SETUP                      :
          :.................................................:
          :  # basis functions                  67          :
          :  # atomic orbitals                  67          :
          :  # shells                           39          :
          :  # electrons                        74          :
          :  max. iterations                   250          :
          :  Hamiltonian                  GFN2-xTB          :
          :  restarted?                      false          :
          :  GBSA solvation                  false          :
          :  PC potential                    false          :
          :  electronic temp.         7500.0000000     K    :
          :  accuracy                    1.0000000          :
          :  -> integral cutoff          0.2500000E+02      :
          :  -> integral neglect         0.1000000E-07      :
          :  -> SCF convergence          0.1000000E-05 Eh   :
          :  -> wf. convergence          0.1000000E-03 e    :
          :  Broyden damping             0.4000000          :
          ...................................................

 iter      E             dE          RMSdq      gap      omega  full diag
   1    -42.5960780 -0.425961E+02  0.440E+00    3.52       0.0  T
   2    -42.7780033 -0.181925E+00  0.248E+00    3.37       1.0  T
   3    -42.7871777 -0.917437E-02  0.149E+00    3.50       1.0  T
   4    -42.7817164  0.546128E-02  0.642E-01    3.42       1.0  T
   5    -42.7911189 -0.940247E-02  0.115E-01    3.49       1.0  T
   6    -42.7912109 -0.920486E-04  0.685E-02    3.46       1.0  T
   7    -42.7912647 -0.537856E-04  0.265E-02    3.48       1.0  T
   8    -42.7912686 -0.385526E-05  0.113E-02    3.47       1.8  T
   9    -42.7912697 -0.111307E-05  0.441E-03    3.47       4.5  T
  10    -42.7912698 -0.733569E-07  0.139E-03    3.47      14.4  T
  11    -42.7912698 -0.243437E-08  0.602E-04    3.47      33.2  T
  12    -42.7912698 -0.222032E-08  0.181E-04    3.47     110.6  T

   *** convergence criteria satisfied after 12 iterations ***

         #    Occupation            Energy/Eh            Energy/eV
      -------------------------------------------------------------
         1        2.0000           -0.9116047             -24.8060
       ...           ...                  ...                  ...
        31        1.9942           -0.6212459             -16.9050
        32        1.9930           -0.6166804             -16.7807
        33        1.9876           -0.6031136             -16.4116
        34        1.9710           -0.5827317             -15.8569
        35        1.9403           -0.5651917             -15.3796
        36        1.9387           -0.5645672             -15.3627
        37        1.9155           -0.5566412             -15.1470 (HOMO)
        38        0.1907           -0.4290919             -11.6762 (LUMO)
        39        0.0640           -0.4015676             -10.9272
        40        0.0206           -0.3740689             -10.1789
        41        0.0006           -0.2879107              -7.8344
        42        0.0000           -0.2065811              -5.6214
       ...           ...                  ...                  ...
        67                          0.5613577              15.2753
      -------------------------------------------------------------
                  HL-Gap            0.1275493 Eh            3.4708 eV
             Fermi-level           -0.4825284 Eh          -13.1303 eV

 SCC (total)                   0 d,  0 h,  0 min,  0.064 sec
 SCC setup                      ...        0 min,  0.000 sec (  0.387%)
 Dispersion                     ...        0 min,  0.000 sec (  0.512%)
 classical contributions        ...        0 min,  0.000 sec (  0.131%)
 integral evaluation            ...        0 min,  0.005 sec (  7.921%)
 iterations                     ...        0 min,  0.040 sec ( 61.908%)
 molecular gradient             ...        0 min,  0.019 sec ( 28.886%)
 printout                       ...        0 min,  0.000 sec (  0.227%)

         :::::::::::::::::::::::::::::::::::::::::::::::::::::
         ::                     SUMMARY                     ::
         :::::::::::::::::::::::::::::::::::::::::::::::::::::
         :: total energy             -35.419970582717 Eh    ::
         :: gradient norm              5.228119126998 Eh/a0 ::
         :: HOMO-LUMO gap              3.470793873671 eV    ::
         ::.................................................::
         :: SCC energy               -42.791269777655 Eh    ::
         :: -> isotropic ES            0.136760385929 Eh    ::
         :: -> anisotropic ES         -0.005341405309 Eh    ::
         :: -> anisotropic XC          0.011501049227 Eh    ::
         :: -> dispersion             -0.022650340738 Eh    ::
         :: repulsion energy           0.531105277918 Eh    ::
         :: add. restraining           6.840079758012 Eh    ::
         :: total charge               1.000000000010 e     ::
         :::::::::::::::::::::::::::::::::::::::::::::::::::::

      ----------------------------------------------------------- 
     |                   =====================                   |
     |                        A N C O P T                        |
     |                   =====================                   |
     |               Approximate Normal Coordinate               |
     |                Rational Function Optimizer                |
      ----------------------------------------------------------- 

          ...................................................
          :                      SETUP                      :
          :.................................................:
          :   optimization level             loose          :
          :   max. optcycles                   200          :
          :   ANC micro-cycles                  20          :
          :   degrees of freedom                69          :
          :.................................................:
          :   RF solver                   davidson          :
          :   write xtbopt.log                true          :
          :   linear?                        false          :
          :   energy convergence         0.5000000E-04 Eh   :
          :   grad. convergence          0.4000000E-02 Eh/α :
          :   maxmium RF displ.          1.0000000          :
          :   Hlow (freq-cutoff)         0.1000000E-01      :
          :   Hmax (freq-cutoff)         5.0000000          :
          :   S6 in model hess.         20.0000000          :
          ...................................................

generating ANC from model Hessian ...
Using Lindh-Hessian (1995)
 Shifting diagonal of input Hessian by    1.0041548154356765     
 Lowest  eigenvalues of input Hessian
    0.010000    0.174343    0.000000    0.000000    0.000000    0.000000
    0.000000    0.000000    1.007168    1.008565    1.012845    1.014132
    1.015975    1.017320    1.023022    1.026322    1.029866    1.044885
 Highest eigenvalues
    3.119461    3.174586    3.219090    3.362044    3.451368    4.105846


........................................................................
.............................. CYCLE    1 ..............................
........................................................................

 iter      E             dE          RMSdq      gap      omega  full diag
   1    -42.7912698 -0.427913E+02  0.838E-05    3.47       0.0  T
   2    -42.7912698 -0.247127E-10  0.452E-05    3.47     442.9  T
   3    -42.7912698 -0.149214E-11  0.279E-05    3.47     715.8  T
     SCC iter.                  ...        0 min,  0.005 sec
     gradient                   ...        0 min,  0.012 sec
 * total energy  :   -35.4199706 Eh     change       -0.2402061E-09 Eh
   gradient norm :     5.2281189 Eh/α   predicted     0.0000000E+00 (-100.00%)
   displ. norm   :     0.7169744 α      lambda       -0.3716829E+01
   maximum displ.:     0.5956075 α      in ANC's #69, #60, #49, ...

........................................................................
.............................. CYCLE    2 ..............................
........................................................................

 iter      E             dE          RMSdq      gap      omega  full diag
   1    -42.7339195 -0.427339E+02  0.846E-01    3.23       0.0  T
   2    -42.7403473 -0.642779E-02  0.584E-01    2.95       1.0  T
   3    -42.7413733 -0.102605E-02  0.303E-01    3.06       1.0  T
   4    -42.7412975  0.758233E-04  0.125E-01    3.00       1.0  T
   5    -42.7415807 -0.283147E-03  0.224E-02    3.02       1.0  T
   6    -42.7415875 -0.680165E-05  0.101E-02    3.02       2.0  T
   7    -42.7415878 -0.300203E-06  0.503E-03    3.02       4.0  T
   8    -42.7415881 -0.372931E-06  0.121E-03    3.02      16.6  T
   9    -42.7415882 -0.146617E-07  0.463E-04    3.02      43.2  T
  10    -42.7415882 -0.823221E-09  0.158E-04    3.02     126.9  T
     SCC iter.                  ...        0 min,  0.014 sec
     gradient                   ...        0 min,  0.012 sec
 * total energy  :   -38.5754712 Eh     change       -0.3155501E+01 Eh
   gradient norm :     3.6416899 Eh/α   predicted    -0.2814633E+01 ( -10.80%)
   displ. norm   :     0.7459571 α      lambda       -0.2703157E+01
   maximum displ.:     0.6197416 α      in ANC's #69, #60, #49, ...

........................................................................
.............................. CYCLE    3 ..............................
........................................................................

 iter      E             dE          RMSdq      gap      omega  full diag
   1    -42.6402225 -0.426402E+02  0.960E-01    2.70       0.0  T
   2    -42.6479241 -0.770158E-02  0.680E-01    2.35       1.0  T
   3    -42.6508104 -0.288636E-02  0.327E-01    2.53       1.0  T
   4    -42.6508436 -0.332062E-04  0.170E-01    2.43       1.0  T
   5    -42.6513504 -0.506805E-03  0.314E-02    2.48       1.0  T
   6    -42.6513751 -0.246386E-04  0.107E-02    2.48       1.9  T
   7    -42.6513754 -0.375328E-06  0.447E-03    2.48       4.5  T
   8    -42.6513756 -0.140428E-06  0.137E-03    2.48      14.6  T
   9    -42.6513756 -0.189185E-07  0.700E-04    2.48      28.6  T
  10    -42.6513756 -0.416673E-08  0.384E-04    2.48      52.1  T
     SCC iter.                  ...        0 min,  0.014 sec
     gradient                   ...        0 min,  0.012 sec
 * total energy  :   -40.6995850 Eh     change       -0.2124114E+01 Eh
   gradient norm :     2.1034157 Eh/α   predicted    -0.2103668E+01 (  -0.96%)
   displ. norm   :     0.6724927 α      lambda       -0.1386981E+01
   maximum displ.:     0.4860379 α      in ANC's #69, #49, #60, ...

........................................................................
.............................. CYCLE    4 ..............................
........................................................................

 iter      E             dE          RMSdq      gap      omega  full diag
   1    -42.5596028 -0.425596E+02  0.839E-01    2.15       0.0  T
   2    -42.5664561 -0.685331E-02  0.479E-01    1.89       1.0  T
   3    -42.5677556 -0.129954E-02  0.239E-01    1.98       1.0  T
   4    -42.5677385  0.170825E-04  0.833E-02    1.95       1.0  T
   5    -42.5678476 -0.109026E-03  0.238E-02    1.98       1.0  T
   6    -42.5678558 -0.825564E-05  0.135E-02    1.97       1.5  T
   7    -42.5678584 -0.258184E-05  0.592E-03    1.97       3.4  T
   8    -42.5678590 -0.626164E-06  0.196E-03    1.97      10.2  T
   9    -42.5678590 -0.248828E-07  0.105E-03    1.97      19.1  T
  10    -42.5678591 -0.335488E-08  0.392E-04    1.97      51.0  T
  11    -42.5678591 -0.261334E-08  0.188E-04    1.97     106.2  T
     SCC iter.                  ...        0 min,  0.016 sec
     gradient                   ...        0 min,  0.011 sec
 * total energy  :   -41.7119218 Eh     change       -0.1012337E+01 Eh
   gradient norm :     0.9592447 Eh/α   predicted    -0.1007137E+01 (  -0.51%)
   displ. norm   :     0.4786178 α      lambda       -0.4416642E+00
   maximum displ.:     0.3323137 α      in ANC's #69, #2, #40, ...

........................................................................
.............................. CYCLE    5 ..............................
........................................................................

 iter      E             dE          RMSdq      gap      omega  full diag
   1    -42.5271793 -0.425272E+02  0.572E-01    1.62       0.0  T
   2    -42.5298324 -0.265307E-02  0.320E-01    1.59       1.0  T
   3    -42.5305653 -0.732950E-03  0.220E-01    1.56       1.0  T
   4    -42.5302283  0.336995E-03  0.127E-01    1.64       1.0  T
   5    -42.5309669 -0.738509E-03  0.224E-02    1.59       1.0  T
   6    -42.5309750 -0.819374E-05  0.838E-03    1.59       2.4  T
   7    -42.5309757 -0.666550E-06  0.543E-03    1.59       3.7  T
   8    -42.5309761 -0.419319E-06  0.206E-03    1.59       9.7  T
   9    -42.5309762 -0.955996E-07  0.761E-04    1.59      26.3  T
  10    -42.5309762 -0.695862E-08  0.352E-04    1.59      56.9  T
     SCC iter.                  ...        0 min,  0.014 sec
     gradient                   ...        0 min,  0.011 sec
 * total energy  :   -41.9808961 Eh     change       -0.2689743E+00 Eh
   gradient norm :     0.2244275 Eh/α   predicted    -0.2714225E+00 (   0.91%)
   displ. norm   :     0.2124601 α      lambda       -0.3931369E-01
   maximum displ.:     0.1220977 α      in ANC's #2, #69, #40, ...

........................................................................
.............................. CYCLE    6 ..............................
........................................................................

 iter      E             dE          RMSdq      gap      omega  full diag
   1    -42.5368601 -0.425369E+02  0.384E-01    1.65       0.0  T
   2    -42.5381554 -0.129532E-02  0.329E-01    1.44       1.0  T
   3    -42.5408895 -0.273414E-02  0.116E-01    1.55       1.0  T
   4    -42.5409662 -0.766646E-04  0.690E-02    1.53       1.0  T
   5    -42.5409915 -0.252987E-04  0.199E-02    1.54       1.0  T
   6    -42.5410019 -0.104047E-04  0.571E-03    1.54       3.5  T
   7    -42.5410023 -0.364223E-06  0.378E-03    1.54       5.3  T
   8    -42.5410026 -0.305949E-06  0.133E-03    1.54      15.0  T
   9    -42.5410026 -0.210744E-07  0.454E-04    1.54      44.1  T
  10    -42.5410026 -0.227970E-08  0.211E-04    1.54      94.9  T
     SCC iter.                  ...        0 min,  0.014 sec
     gradient                   ...        0 min,  0.011 sec
 * total energy  :   -42.0050637 Eh     change       -0.2416759E-01 Eh
   gradient norm :     0.1221015 Eh/α   predicted    -0.2054536E-01 ( -14.99%)
   displ. norm   :     0.1556910 α      lambda       -0.1287377E-01
   maximum displ.:     0.0873609 α      in ANC's #1, #40, #12, ...

........................................................................
.............................. CYCLE    7 ..............................
........................................................................

 iter      E             dE          RMSdq      gap      omega  full diag
   1    -42.5454074 -0.425454E+02  0.255E-01    1.36       0.0  T
   2    -42.5447707  0.636703E-03  0.284E-01    1.56       1.0  T
   3    -42.5471890 -0.241828E-02  0.900E-02    1.44       1.0  T
   4    -42.5471570  0.319742E-04  0.577E-02    1.47       1.0  T
   5    -42.5472181 -0.610634E-04  0.133E-02    1.45       1.5  T
   6    -42.5472227 -0.466955E-05  0.606E-03    1.46       3.3  T
   7    -42.5472231 -0.343385E-06  0.318E-03    1.46       6.3  T
   8    -42.5472233 -0.190498E-06  0.144E-03    1.46      13.9  T
   9    -42.5472233 -0.478964E-07  0.438E-04    1.46      45.6  T
  10    -42.5472233  0.192344E-10  0.274E-04    1.46      72.9  T
     SCC iter.                  ...        0 min,  0.014 sec
     gradient                   ...        0 min,  0.011 sec
 * total energy  :   -42.0157193 Eh     change       -0.1065556E-01 Eh
   gradient norm :     0.1200958 Eh/α   predicted    -0.6593007E-02 ( -38.13%)
   displ. norm   :     0.3768897 α      lambda       -0.2977316E-01
   maximum displ.:     0.1469267 α      in ANC's #1, #40, #12, ...

........................................................................
.............................. CYCLE    8 ..............................
........................................................................

 iter      E             dE          RMSdq      gap      omega  full diag
   1    -42.5823168 -0.425823E+02  0.625E-01    1.49       0.0  T
   2    -42.5824929 -0.176130E-03  0.504E-01    1.36       1.0  T
   3    -42.5886452 -0.615234E-02  0.222E-01    1.43       1.0  T
   4    -42.5888487 -0.203484E-03  0.914E-02    1.43       1.0  T
   5    -42.5889995 -0.150783E-03  0.217E-02    1.43       1.0  T
   6    -42.5890077 -0.816480E-05  0.980E-03    1.43       2.0  T
   7    -42.5890080 -0.324321E-06  0.372E-03    1.43       5.4  T
   8    -42.5890081 -0.127241E-06  0.248E-03    1.43       8.1  T
   9    -42.5890083 -0.185854E-06  0.855E-04    1.43      23.4  T
  10    -42.5890083 -0.547404E-08  0.326E-04    1.43      61.4  T
     SCC iter.                  ...        0 min,  0.014 sec
     gradient                   ...        0 min,  0.011 sec
 * total energy  :   -42.0358754 Eh     change       -0.2015613E-01 Eh
   gradient norm :     0.1261708 Eh/α   predicted    -0.1700138E-01 ( -15.65%)
   displ. norm   :     0.2701366 α      lambda       -0.1572927E-01
   maximum displ.:     0.1148894 α      in ANC's #12, #13, #40, ...

........................................................................
.............................. CYCLE    9 ..............................
........................................................................

 iter      E             dE          RMSdq      gap      omega  full diag
   1    -42.5958870 -0.425959E+02  0.388E-01    1.26       0.0  T
   2    -42.5956239  0.263141E-03  0.403E-01    1.46       1.0  T
   3    -42.5997032 -0.407940E-02  0.144E-01    1.34       1.0  T
   4    -42.5995229  0.180371E-03  0.107E-01    1.39       1.0  T
   5    -42.5997326 -0.209687E-03  0.311E-02    1.35       1.0  T
   6    -42.5997691 -0.364948E-04  0.701E-03    1.36       2.9  T
   7    -42.5997689  0.130528E-06  0.529E-03    1.36       3.8  T
   8    -42.5997694 -0.498451E-06  0.229E-03    1.36       8.7  T
   9    -42.5997695 -0.120904E-06  0.614E-04    1.36      32.6  T
  10    -42.5997695 -0.588983E-09  0.416E-04    1.36      48.0  T
     SCC iter.                  ...        0 min,  0.014 sec
     gradient                   ...        0 min,  0.012 sec
 * total energy  :   -42.0464787 Eh     change       -0.1060325E-01 Eh
   gradient norm :     0.1041672 Eh/α   predicted    -0.8439104E-02 ( -20.41%)
   displ. norm   :     0.5164135 α      lambda       -0.1517444E-01
   maximum displ.:     0.4222059 α      in ANC's #1, #12, #13, ...

........................................................................
.............................. CYCLE   10 ..............................
........................................................................

 iter      E             dE          RMSdq      gap      omega  full diag
   1    -42.6236324 -0.426236E+02  0.493E-01    1.40       0.0  T
   2    -42.6236013  0.310913E-04  0.287E-01    1.30       1.0  T
   3    -42.6234398  0.161495E-03  0.253E-01    1.42       1.0  T
   4    -42.6245427 -0.110292E-02  0.462E-02    1.35       1.0  T
   5    -42.6246079 -0.651428E-04  0.170E-02    1.37       1.2  T
   6    -42.6246179 -0.100407E-04  0.719E-03    1.36       2.8  T
   7    -42.6246184 -0.468081E-06  0.355E-03    1.36       5.6  T
   8    -42.6246186 -0.189563E-06  0.102E-03    1.36      19.5  T
   9    -42.6246186 -0.104037E-07  0.527E-04    1.36      37.9  T
  10    -42.6246186 -0.141990E-08  0.183E-04    1.36     109.5  T
     SCC iter.                  ...        0 min,  0.014 sec
     gradient                   ...        0 min,  0.011 sec
 * total energy  :   -42.0581840 Eh     change       -0.1170536E-01 Eh
   gradient norm :     0.1128366 Eh/α   predicted    -0.9610877E-02 ( -17.89%)
   displ. norm   :     0.3999699 α      lambda       -0.1641360E-01
   maximum displ.:     0.1859065 α      in ANC's #1, #12, #13, ...

........................................................................
.............................. CYCLE   11 ..............................
........................................................................

 iter      E             dE          RMSdq      gap      omega  full diag
   1    -42.6124665 -0.426125E+02  0.387E-01    1.32       0.0  T
   2    -42.6121339  0.332586E-03  0.402E-01    1.41       1.0  T
   3    -42.6158295 -0.369561E-02  0.160E-01    1.35       1.0  T
   4    -42.6157541  0.754174E-04  0.699E-02    1.38       1.0  T
   5    -42.6158017 -0.476647E-04  0.342E-02    1.34       1.0  T
   6    -42.6158511 -0.493823E-04  0.770E-03    1.36       2.6  T
   7    -42.6158518 -0.704509E-06  0.525E-03    1.36       3.8  T
   8    -42.6158522 -0.371590E-06  0.133E-03    1.36      15.0  T
   9    -42.6158522 -0.304104E-07  0.538E-04    1.36      37.2  T
  10    -42.6158522  0.106979E-09  0.313E-04    1.36      63.9  T
     SCC iter.                  ...        0 min,  0.014 sec
     gradient                   ...        0 min,  0.011 sec
 * total energy  :   -42.0679297 Eh     change       -0.9745692E-02 Eh
   gradient norm :     0.1012964 Eh/α   predicted    -0.9519894E-02 (  -2.32%)
   displ. norm   :     0.3096061 α      lambda       -0.7056504E-02
   maximum displ.:     0.2792784 α      in ANC's #1, #12, #10, ...

........................................................................
.............................. CYCLE   12 ..............................
........................................................................

 iter      E             dE          RMSdq      gap      omega  full diag
   1    -42.6079425 -0.426079E+02  0.182E-01    1.33       0.0  T
   2    -42.6079234  0.191028E-04  0.138E-01    1.34       1.0  T
   3    -42.6080299 -0.106510E-03  0.841E-02    1.33       1.0  T
   4    -42.6081323 -0.102387E-03  0.192E-02    1.34       1.0  T
   5    -42.6081411 -0.885709E-05  0.832E-03    1.33       2.4  T
   6    -42.6081432 -0.209980E-05  0.351E-03    1.34       5.7  T
   7    -42.6081433 -0.923182E-07  0.159E-03    1.34      12.6  T
   8    -42.6081434 -0.495400E-07  0.446E-04    1.34      44.9  T
   9    -42.6081434 -0.280681E-08  0.201E-04    1.34      99.4  T
     SCC iter.                  ...        0 min,  0.013 sec
     gradient                   ...        0 min,  0.011 sec
 * total energy  :   -42.0719341 Eh     change       -0.4004338E-02 Eh
   gradient norm :     0.0800215 Eh/α   predicted    -0.3866518E-02 (  -3.44%)
   displ. norm   :     0.1915302 α      lambda       -0.9386766E-02
   maximum displ.:     0.1185217 α      in ANC's #1, #12, #60, ...

........................................................................
.............................. CYCLE   13 ..............................
........................................................................

 iter      E             dE          RMSdq      gap      omega  full diag
   1    -42.6117268 -0.426117E+02  0.293E-01    1.40       0.0  T
   2    -42.6123879 -0.661086E-03  0.253E-01    1.35       1.0  T
   3    -42.6136581 -0.127017E-02  0.984E-02    1.39       1.0  T
   4    -42.6136040  0.540175E-04  0.780E-02    1.36       1.0  T
   5    -42.6137168 -0.112755E-03  0.254E-02    1.38       1.0  T
   6    -42.6137378 -0.210182E-04  0.664E-03    1.37       3.0  T
   7    -42.6137383 -0.447740E-06  0.339E-03    1.37       5.9  T
   8    -42.6137385 -0.193463E-06  0.187E-03    1.37      10.7  T
   9    -42.6137385 -0.548819E-07  0.481E-04    1.37      41.6  T
  10    -42.6137385 -0.242360E-08  0.267E-04    1.37      75.0  T
     SCC iter.                  ...        0 min,  0.014 sec
     gradient                   ...        0 min,  0.011 sec
 * total energy  :   -42.0773549 Eh     change       -0.5420809E-02 Eh
   gradient norm :     0.0707597 Eh/α   predicted    -0.4865588E-02 ( -10.24%)
   displ. norm   :     0.1236144 α      lambda       -0.3747149E-02
   maximum displ.:     0.0507605 α      in ANC's #12, #10, #2, ...

........................................................................
.............................. CYCLE   14 ..............................
........................................................................

 iter      E             dE          RMSdq      gap      omega  full diag
   1    -42.6144792 -0.426145E+02  0.147E-01    1.34       0.0  T
   2    -42.6144962 -0.170092E-04  0.888E-02    1.38       1.0  T
   3    -42.6145432 -0.469903E-04  0.693E-02    1.34       1.0  T
   4    -42.6146176 -0.744332E-04  0.236E-02    1.36       1.0  T
   5    -42.6146330 -0.154004E-04  0.714E-03    1.36       2.8  T
   6    -42.6146347 -0.168821E-05  0.231E-03    1.36       8.7  T
   7    -42.6146348 -0.660450E-07  0.133E-03    1.36      15.1  T
   8    -42.6146348 -0.193131E-07  0.498E-04    1.36      40.1  T
   9    -42.6146348 -0.444855E-08  0.154E-04    1.36     129.7  T
     SCC iter.                  ...        0 min,  0.013 sec
     gradient                   ...        0 min,  0.011 sec
 * total energy  :   -42.0805670 Eh     change       -0.3212098E-02 Eh
   gradient norm :     0.0628377 Eh/α   predicted    -0.1902662E-02 ( -40.77%)
   displ. norm   :     0.3120084 α      lambda       -0.8840383E-02
   maximum displ.:     0.1296562 α      in ANC's #2, #12, #10, ...

........................................................................
.............................. CYCLE   15 ..............................
........................................................................

 iter      E             dE          RMSdq      gap      omega  full diag
   1    -42.6119754 -0.426120E+02  0.447E-01    1.21       0.0  T
   2    -42.6118872  0.882031E-04  0.312E-01    1.37       1.0  T
   3    -42.6140897 -0.220249E-02  0.181E-01    1.25       1.0  T
   4    -42.6145647 -0.474984E-03  0.810E-02    1.30       1.0  T
   5    -42.6146794 -0.114716E-03  0.268E-02    1.28       1.0  T
   6    -42.6147083 -0.289628E-04  0.668E-03    1.29       3.0  T
   7    -42.6147088 -0.507894E-06  0.405E-03    1.29       4.9  T
   8    -42.6147091 -0.238212E-06  0.146E-03    1.29      13.7  T
   9    -42.6147091 -0.276230E-07  0.538E-04    1.29      37.1  T
  10    -42.6147091 -0.364664E-08  0.256E-04    1.29      78.1  T
     SCC iter.                  ...        0 min,  0.014 sec
     gradient                   ...        0 min,  0.011 sec
 * total energy  :   -42.0860988 Eh     change       -0.5531857E-02 Eh
   gradient norm :     0.0458204 Eh/α   predicted    -0.4850509E-02 ( -12.32%)
   displ. norm   :     0.1241272 α      lambda       -0.2081092E-02
   maximum displ.:     0.0474568 α      in ANC's #12, #10, #2, ...

........................................................................
.............................. CYCLE   16 ..............................
........................................................................

 iter      E             dE          RMSdq      gap      omega  full diag
   1    -42.6139929 -0.426140E+02  0.182E-01    1.22       0.0  T
   2    -42.6139513  0.415565E-04  0.133E-01    1.29       1.0  T
   3    -42.6143732 -0.421880E-03  0.734E-02    1.24       1.0  T
   4    -42.6144531 -0.799137E-04  0.348E-02    1.26       1.0  T
   5    -42.6144746 -0.215109E-04  0.111E-02    1.25       1.8  T
   6    -42.6144794 -0.479446E-05  0.280E-03    1.25       7.1  T
   7    -42.6144795 -0.751878E-07  0.163E-03    1.25      12.3  T
   8    -42.6144796 -0.388509E-07  0.544E-04    1.25      36.8  T
   9    -42.6144796 -0.503332E-08  0.227E-04    1.25      88.3  T
     SCC iter.                  ...        0 min,  0.013 sec
     gradient                   ...        0 min,  0.011 sec
 * total energy  :   -42.0877004 Eh     change       -0.1601582E-02 Eh
   gradient norm :     0.0444256 Eh/α   predicted    -0.1056760E-02 ( -34.02%)
   displ. norm   :     0.1527926 α      lambda       -0.2958906E-02
   maximum displ.:     0.0546397 α      in ANC's #10, #5, #35, ...

........................................................................
.............................. CYCLE   17 ..............................
........................................................................

 iter      E             dE          RMSdq      gap      omega  full diag
   1    -42.6164944 -0.426165E+02  0.190E-01    1.20       0.0  T
   2    -42.6165892 -0.948095E-04  0.108E-01    1.24       1.0  T
   3    -42.6166497 -0.605577E-04  0.830E-02    1.20       1.0  T
   4    -42.6167308 -0.810874E-04  0.407E-02    1.23       1.0  T
   5    -42.6167810 -0.501605E-04  0.920E-03    1.22       2.2  T
   6    -42.6167838 -0.283266E-05  0.318E-03    1.22       6.3  T
   7    -42.6167838  0.112415E-07  0.202E-03    1.22       9.9  T
   8    -42.6167839 -0.108903E-06  0.599E-04    1.22      33.4  T
   9    -42.6167839 -0.517131E-08  0.287E-04    1.22      69.8  T
     SCC iter.                  ...        0 min,  0.013 sec
     gradient                   ...        0 min,  0.011 sec
 * total energy  :   -42.0898157 Eh     change       -0.2115275E-02 Eh
   gradient norm :     0.0395047 Eh/α   predicted    -0.1514030E-02 ( -28.42%)
   displ. norm   :     0.1319685 α      lambda       -0.2245308E-02
   maximum displ.:     0.0545948 α      in ANC's #1, #5, #10, ...

........................................................................
.............................. CYCLE   18 ..............................
........................................................................

 iter      E             dE          RMSdq      gap      omega  full diag
   1    -42.6190697 -0.426191E+02  0.130E-01    1.21       0.0  T
   2    -42.6191030 -0.332792E-04  0.710E-02    1.21       1.0  T
   3    -42.6190867  0.162641E-04  0.509E-02    1.21       1.0  T
   4    -42.6191065 -0.197351E-04  0.259E-02    1.20       1.0  T
   5    -42.6191334 -0.269726E-04  0.422E-03    1.21       4.7  T
   6    -42.6191337 -0.280573E-06  0.251E-03    1.21       8.0  T
   7    -42.6191337 -0.213546E-07  0.121E-03    1.21      16.5  T
   8    -42.6191338 -0.320530E-07  0.405E-04    1.21      49.4  T
   9    -42.6191338 -0.251343E-08  0.199E-04    1.21     100.7  T
     SCC iter.                  ...        0 min,  0.013 sec
     gradient                   ...        0 min,  0.011 sec
 * total energy  :   -42.0913974 Eh     change       -0.1581754E-02 Eh
   gradient norm :     0.0333387 Eh/α   predicted    -0.1142221E-02 ( -27.79%)
   displ. norm   :     0.1054947 α      lambda       -0.1530267E-02
   maximum displ.:     0.0547508 α      in ANC's #1, #5, #32, ...

........................................................................
.............................. CYCLE   19 ..............................
........................................................................

 iter      E             dE          RMSdq      gap      omega  full diag
   1    -42.6209045 -0.426209E+02  0.940E-02    1.21       0.0  T
   2    -42.6208816  0.229521E-04  0.692E-02    1.20       1.0  T
   3    -42.6209440 -0.624103E-04  0.431E-02    1.22       1.0  T
   4    -42.6209697 -0.257240E-04  0.209E-02    1.21       1.0  T
   5    -42.6209827 -0.130284E-04  0.377E-03    1.21       5.3  T
   6    -42.6209830 -0.308576E-06  0.157E-03    1.21      12.8  T
   7    -42.6209830 -0.196003E-07  0.781E-04    1.21      25.6  T
   8    -42.6209830 -0.338606E-08  0.299E-04    1.21      66.9  T
     SCC iter.                  ...        0 min,  0.011 sec
     gradient                   ...        0 min,  0.011 sec
 * total energy  :   -42.0925001 Eh     change       -0.1102659E-02 Eh
   gradient norm :     0.0318568 Eh/α   predicted    -0.7736553E-03 ( -29.84%)
   displ. norm   :     0.1016602 α      lambda       -0.1366675E-02
   maximum displ.:     0.0399372 α      in ANC's #1, #5, #2, ...

........................................................................
.............................. CYCLE   20 ..............................
........................................................................

 iter      E             dE          RMSdq      gap      omega  full diag
   1    -42.6210259 -0.426210E+02  0.876E-02    1.20       0.0  T
   2    -42.6210247  0.115703E-05  0.605E-02    1.19       1.0  T
   3    -42.6210486 -0.238593E-04  0.400E-02    1.20       1.0  T
   4    -42.6210708 -0.222218E-04  0.192E-02    1.19       1.0  T
   5    -42.6210829 -0.120656E-04  0.454E-03    1.20       4.4  T
   6    -42.6210834 -0.513412E-06  0.146E-03    1.20      13.7  T
   7    -42.6210834 -0.181301E-07  0.770E-04    1.20      26.0  T
   8    -42.6210834 -0.477382E-08  0.307E-04    1.20      65.1  T
     SCC iter.                  ...        0 min,  0.012 sec
     gradient                   ...        0 min,  0.011 sec
 * total energy  :   -42.0935355 Eh     change       -0.1035445E-02 Eh
   gradient norm :     0.0349842 Eh/α   predicted    -0.6904742E-03 ( -33.32%)
   displ. norm   :     0.1386133 α      lambda       -0.1795801E-02
   maximum displ.:     0.0489809 α      in ANC's #5, #32, #28, ...
 * RMSD in coord.:     0.7342130 α      energy gain  -0.6673565E+01 Eh

generating ANC from model Hessian ...
Using Lindh-Hessian (1995)
 Shifting diagonal of input Hessian by    1.1576017209168626E-002
 Lowest  eigenvalues of input Hessian
    0.010000    0.010134    0.000000    0.000000    0.000000    0.000000
    0.000000    0.000000    0.013611    0.013687    0.015053    0.017847
    0.019596    0.021465    0.022601    0.023127    0.027376    0.030401
 Highest eigenvalues
    2.082009    2.141687    2.288261    2.336607    2.379984    2.866800


........................................................................
.............................. CYCLE   21 ..............................
........................................................................

 iter      E             dE          RMSdq      gap      omega  full diag
   1    -42.6198536 -0.426199E+02  0.120E-01    1.16       0.0  T
   2    -42.6198780 -0.243928E-04  0.785E-02    1.16       1.0  T
   3    -42.6198916 -0.136162E-04  0.515E-02    1.16       1.0  T
   4    -42.6199182 -0.266179E-04  0.278E-02    1.16       1.0  T
   5    -42.6199453 -0.270873E-04  0.524E-03    1.16       3.8  T
   6    -42.6199460 -0.660323E-06  0.228E-03    1.16       8.8  T
   7    -42.6199460 -0.717039E-07  0.123E-03    1.16      16.3  T
   8    -42.6199460 -0.132059E-07  0.442E-04    1.16      45.3  T
   9    -42.6199461 -0.518511E-08  0.149E-04    1.16     134.3  T
     SCC iter.                  ...        0 min,  0.013 sec
     gradient                   ...        0 min,  0.011 sec
 * total energy  :   -42.0948942 Eh     change       -0.1358639E-02 Eh
   gradient norm :     0.0407678 Eh/α   predicted     0.0000000E+00 (-100.00%)
   displ. norm   :     0.3282367 α      lambda       -0.5995419E-02
   maximum displ.:     0.2435002 α      in ANC's #14, #9, #1, ...

........................................................................
.............................. CYCLE   22 ..............................
........................................................................

 iter      E             dE          RMSdq      gap      omega  full diag
   1    -42.6262857 -0.426263E+02  0.248E-01    1.01       0.0  T
   2    -42.6266499 -0.364107E-03  0.161E-01    0.99       1.0  T
   3    -42.6269126 -0.262759E-03  0.102E-01    1.02       1.0  T
   4    -42.6269752 -0.625540E-04  0.511E-02    1.00       1.0  T
   5    -42.6270116 -0.364374E-04  0.926E-03    1.01       2.2  T
   6    -42.6270133 -0.170361E-05  0.325E-03    1.01       6.1  T
   7    -42.6270132  0.878289E-07  0.282E-03    1.01       7.1  T
   8    -42.6270134 -0.204984E-06  0.806E-04    1.01      24.8  T
   9    -42.6270134 -0.167442E-07  0.346E-04    1.01      57.8  T
     SCC iter.                  ...        0 min,  0.013 sec
     gradient                   ...        0 min,  0.011 sec
 * total energy  :   -42.1002326 Eh     change       -0.5338409E-02 Eh
   gradient norm :     0.0290351 Eh/α   predicted    -0.3322773E-02 ( -37.76%)
   displ. norm   :     0.7944797 α      lambda       -0.1296049E-01
   maximum displ.:     0.5707744 α      in ANC's #14, #9, #24, ...

........................................................................
.............................. CYCLE   23 ..............................
........................................................................

 iter      E             dE          RMSdq      gap      omega  full diag
   1    -42.6317327 -0.426317E+02  0.699E-01    0.66       0.0  T
   2    -42.6362711 -0.453840E-02  0.409E-01    0.59       1.0  T
   3    -42.6371245 -0.853428E-03  0.294E-01    0.70       1.0  T
   4    -42.6378287 -0.704242E-03  0.163E-01    0.60       1.0  T
   5    -42.6381781 -0.349380E-03  0.417E-02    0.63       1.0  T
   6    -42.6382132 -0.350664E-04  0.132E-02    0.64       1.5  T
   7    -42.6382164 -0.325688E-05  0.913E-03    0.63       2.2  T
   8    -42.6382183 -0.188430E-05  0.283E-03    0.64       7.1  T
   9    -42.6382184 -0.510607E-07  0.110E-03    0.64      18.2  T
  10    -42.6382184 -0.145833E-07  0.567E-04    0.64      35.2  T
  11    -42.6382184 -0.915563E-09  0.275E-04    0.64      72.8  T
     SCC iter.                  ...        0 min,  0.016 sec
     gradient                   ...        0 min,  0.011 sec
 * total energy  :   -42.1105357 Eh     change       -0.1030314E-01 Eh
   gradient norm :     0.0790166 Eh/α   predicted    -0.1057084E-01 (   2.60%)
   displ. norm   :     0.6116222 α      lambda       -0.9581593E-02
   maximum displ.:     0.3988157 α      in ANC's #14, #9, #6, ...

........................................................................
.............................. CYCLE   24 ..............................
........................................................................

 iter      E             dE          RMSdq      gap      omega  full diag
   1    -42.6401330 -0.426401E+02  0.544E-01    0.44       0.0  T
   2    -42.6442835 -0.415048E-02  0.288E-01    0.45       1.0  T
   3    -42.6445592 -0.275693E-03  0.157E-01    0.45       1.0  T
   4    -42.6442034  0.355763E-03  0.126E-01    0.43       1.0  T
   5    -42.6445719 -0.368467E-03  0.451E-02    0.46       1.0  T
   6    -42.6446303 -0.584576E-04  0.101E-02    0.45       2.0  T
   7    -42.6446303 -0.128254E-07  0.633E-03    0.45       3.2  T
   8    -42.6446310 -0.688409E-06  0.365E-03    0.45       5.5  T
   9    -42.6446313 -0.309456E-06  0.124E-03    0.45      16.1  T
  10    -42.6446313 -0.156849E-07  0.633E-04    0.45      31.6  T
  11    -42.6446314 -0.218704E-08  0.291E-04    0.45      68.7  T
     SCC iter.                  ...        0 min,  0.016 sec
     gradient                   ...        0 min,  0.011 sec
 * total energy  :   -42.1170452 Eh     change       -0.6509502E-02 Eh
   gradient norm :     0.1035737 Eh/α   predicted    -0.6582956E-02 (   1.13%)
   displ. norm   :     0.3343358 α      lambda       -0.1271290E-01
   maximum displ.:     0.1440653 α      in ANC's #9, #6, #4, ...

........................................................................
.............................. CYCLE   25 ..............................
........................................................................

 iter      E             dE          RMSdq      gap      omega  full diag
   1    -42.6486130 -0.426486E+02  0.360E-01    0.36       0.0  T
   2    -42.6481573  0.455706E-03  0.285E-01    0.48       1.0  T
   3    -42.6496176 -0.146028E-02  0.221E-01    0.36       1.0  T
   4    -42.6503620 -0.744428E-03  0.725E-02    0.39       1.0  T
   5    -42.6503772 -0.151388E-04  0.187E-02    0.39       1.1  T
   6    -42.6503844 -0.722191E-05  0.723E-03    0.40       2.8  T
   7    -42.6503853 -0.873496E-06  0.458E-03    0.39       4.4  T
   8    -42.6503856 -0.317036E-06  0.190E-03    0.39      10.5  T
   9    -42.6503857 -0.920079E-07  0.511E-04    0.39      39.1  T
  10    -42.6503857 -0.232566E-08  0.279E-04    0.39      71.6  T
     SCC iter.                  ...        0 min,  0.014 sec
     gradient                   ...        0 min,  0.012 sec
 * total energy  :   -42.1257423 Eh     change       -0.8697038E-02 Eh
   gradient norm :     0.0660196 Eh/α   predicted    -0.7066973E-02 ( -18.74%)
   displ. norm   :     0.3993608 α      lambda       -0.1102634E-01
   maximum displ.:     0.2208513 α      in ANC's #7, #12, #14, ...

........................................................................
.............................. CYCLE   26 ..............................
........................................................................

 iter      E             dE          RMSdq      gap      omega  full diag
   1    -42.6451156 -0.426451E+02  0.329E-01    0.39       0.0  T
   2    -42.6446457  0.469936E-03  0.276E-01    0.44       1.0  T
   3    -42.6450809 -0.435244E-03  0.188E-01    0.38       1.0  T
   4    -42.6456575 -0.576602E-03  0.568E-02    0.42       1.0  T
   5    -42.6457037 -0.461764E-04  0.244E-02    0.40       1.0  T
   6    -42.6457251 -0.214093E-04  0.687E-03    0.41       2.9  T
   7    -42.6457257 -0.631756E-06  0.324E-03    0.40       6.2  T
   8    -42.6457258 -0.539844E-07  0.102E-03    0.40      19.7  T
   9    -42.6457258 -0.173491E-07  0.412E-04    0.40      48.5  T
  10    -42.6457258 -0.121162E-08  0.178E-04    0.40     112.1  T
     SCC iter.                  ...        0 min,  0.014 sec
     gradient                   ...        0 min,  0.012 sec
 * total energy  :   -42.1317334 Eh     change       -0.5991152E-02 Eh
   gradient norm :     0.0404429 Eh/α   predicted    -0.6392456E-02 (   6.70%)
   displ. norm   :     0.3887888 α      lambda       -0.4416260E-02
   maximum displ.:     0.1970822 α      in ANC's #7, #9, #6, ...

........................................................................
.............................. CYCLE   27 ..............................
........................................................................

 iter      E             dE          RMSdq      gap      omega  full diag
   1    -42.6417877 -0.426418E+02  0.282E-01    0.36       0.0  T
   2    -42.6419305 -0.142842E-03  0.173E-01    0.31       1.0  T
   3    -42.6415596  0.370868E-03  0.173E-01    0.40       1.0  T
   4    -42.6420300 -0.470380E-03  0.591E-02    0.32       1.0  T
   5    -42.6420949 -0.648369E-04  0.228E-02    0.34       1.0  T
   6    -42.6421107 -0.158535E-04  0.705E-03    0.34       2.8  T
   7    -42.6421121 -0.141434E-05  0.331E-03    0.34       6.0  T
   8    -42.6421122 -0.908578E-07  0.115E-03    0.34      17.5  T
   9    -42.6421122 -0.222352E-07  0.428E-04    0.34      46.7  T
  10    -42.6421122 -0.882764E-09  0.243E-04    0.34      82.4  T
     SCC iter.                  ...        0 min,  0.014 sec
     gradient                   ...        0 min,  0.012 sec
 * total energy  :   -42.1333251 Eh     change       -0.1591692E-02 Eh
   gradient norm :     0.0457105 Eh/α   predicted    -0.2541906E-02 (  59.70%)
   displ. norm   :     0.2484944 α      lambda       -0.3747701E-02
   maximum displ.:     0.1205127 α      in ANC's #14, #6, #2, ...

........................................................................
.............................. CYCLE   28 ..............................
........................................................................

 iter      E             dE          RMSdq      gap      omega  full diag
   1    -42.6451003 -0.426451E+02  0.222E-01    0.40       0.0  T
   2    -42.6451520 -0.516663E-04  0.159E-01    0.31       1.0  T
   3    -42.6453902 -0.238216E-03  0.127E-01    0.41       1.0  T
   4    -42.6456519 -0.261697E-03  0.454E-02    0.36       1.0  T
   5    -42.6456455  0.635625E-05  0.241E-02    0.36       1.0  T
   6    -42.6456684 -0.228632E-04  0.601E-03    0.36       3.3  T
   7    -42.6456694 -0.982834E-06  0.226E-03    0.36       8.9  T
   8    -42.6456694 -0.140354E-07  0.893E-04    0.36      22.4  T
   9    -42.6456694 -0.704739E-08  0.324E-04    0.36      61.7  T
     SCC iter.                  ...        0 min,  0.013 sec
     gradient                   ...        0 min,  0.012 sec
 * total energy  :   -42.1348455 Eh     change       -0.1520362E-02 Eh
   gradient norm :     0.0263284 Eh/α   predicted    -0.1989569E-02 (  30.86%)
   displ. norm   :     0.1975707 α      lambda       -0.1706709E-02
   maximum displ.:     0.1365177 α      in ANC's #2, #15, #7, ...

........................................................................
.............................. CYCLE   29 ..............................
........................................................................

 iter      E             dE          RMSdq      gap      omega  full diag
   1    -42.6515916 -0.426516E+02  0.135E-01    0.41       0.0  T
   2    -42.6513253  0.266270E-03  0.147E-01    0.31       1.0  T
   3    -42.6517794 -0.454086E-03  0.616E-02    0.38       1.0  T
   4    -42.6517917 -0.122441E-04  0.255E-02    0.37       1.0  T
   5    -42.6518053 -0.135811E-04  0.125E-02    0.36       1.6  T
   6    -42.6518117 -0.645135E-05  0.338E-03    0.36       5.9  T
   7    -42.6518118 -0.127244E-06  0.162E-03    0.36      12.4  T
   8    -42.6518119 -0.193651E-07  0.334E-04    0.36      59.9  T
   9    -42.6518119 -0.516827E-09  0.205E-04    0.36      97.5  T
     SCC iter.                  ...        0 min,  0.013 sec
     gradient                   ...        0 min,  0.012 sec
 * total energy  :   -42.1358701 Eh     change       -0.1024606E-02 Eh
   gradient norm :     0.0184881 Eh/α   predicted    -0.8866676E-03 ( -13.46%)
   displ. norm   :     0.3807578 α      lambda       -0.1762564E-02
   maximum displ.:     0.2642215 α      in ANC's #2, #7, #9, ...

........................................................................
.............................. CYCLE   30 ..............................
........................................................................

 iter      E             dE          RMSdq      gap      omega  full diag
   1    -42.6488045 -0.426488E+02  0.272E-01    0.44       0.0  T
   2    -42.6480441  0.760420E-03  0.240E-01    0.25       1.0  T
   3    -42.6491617 -0.111763E-02  0.149E-01    0.41       1.0  T
   4    -42.6493132 -0.151426E-03  0.530E-02    0.36       1.0  T
   5    -42.6494123 -0.991918E-04  0.192E-02    0.36       1.0  T
   6    -42.6494246 -0.122688E-04  0.279E-03    0.36       7.2  T
   7    -42.6494247 -0.968095E-07  0.169E-03    0.36      11.8  T
   8    -42.6494247 -0.262319E-07  0.605E-04    0.36      33.1  T
   9    -42.6494247 -0.470774E-08  0.245E-04    0.36      81.6  T
     SCC iter.                  ...        0 min,  0.013 sec
     gradient                   ...        0 min,  0.011 sec
 * total energy  :   -42.1368801 Eh     change       -0.1010057E-02 Eh
   gradient norm :     0.0251189 Eh/α   predicted    -0.1009050E-02 (  -0.10%)
   displ. norm   :     0.4050037 α      lambda       -0.1801788E-02
   maximum displ.:     0.3273781 α      in ANC's #2, #1, #6, ...

........................................................................
.............................. CYCLE   31 ..............................
........................................................................

 iter      E             dE          RMSdq      gap      omega  full diag
   1    -42.6528538 -0.426529E+02  0.212E-01    0.46       0.0  T
   2    -42.6522335  0.620290E-03  0.228E-01    0.24       1.0  T
   3    -42.6535036 -0.127004E-02  0.830E-02    0.39       1.0  T
   4    -42.6534766  0.269715E-04  0.536E-02    0.36       1.0  T
   5    -42.6535415 -0.648742E-04  0.190E-02    0.36       1.1  T
   6    -42.6535547 -0.132069E-04  0.394E-03    0.36       5.1  T
   7    -42.6535549 -0.208897E-06  0.215E-03    0.36       9.3  T
   8    -42.6535550 -0.529441E-07  0.754E-04    0.36      26.5  T
   9    -42.6535550 -0.952410E-08  0.191E-04    0.36     104.8  T
     SCC iter.                  ...        0 min,  0.013 sec
     gradient                   ...        0 min,  0.012 sec
 * total energy  :   -42.1381730 Eh     change       -0.1292914E-02 Eh
   gradient norm :     0.0296046 Eh/α   predicted    -0.1048678E-02 ( -18.89%)
   displ. norm   :     0.5006331 α      lambda       -0.2397872E-02
   maximum displ.:     0.4209913 α      in ANC's #2, #7, #5, ...

........................................................................
.............................. CYCLE   32 ..............................
........................................................................

 iter      E             dE          RMSdq      gap      omega  full diag
   1    -42.6551816 -0.426552E+02  0.318E-01    0.56       0.0  T
   2    -42.6535915  0.159010E-02  0.339E-01    0.20       1.0  T
   3    -42.6565776 -0.298614E-02  0.127E-01    0.44       1.0  T
   4    -42.6564721  0.105489E-03  0.837E-02    0.41       1.0  T
   5    -42.6567141 -0.242003E-03  0.109E-02    0.40       1.8  T
   6    -42.6567183 -0.415986E-05  0.331E-03    0.40       6.0  T
   7    -42.6567184 -0.137732E-06  0.153E-03    0.40      13.0  T
   8    -42.6567184 -0.240196E-07  0.558E-04    0.40      35.9  T
   9    -42.6567184 -0.391124E-08  0.213E-04    0.40      94.0  T
     SCC iter.                  ...        0 min,  0.013 sec
     gradient                   ...        0 min,  0.012 sec
 * total energy  :   -42.1402966 Eh     change       -0.2123593E-02 Eh
   gradient norm :     0.0356084 Eh/α   predicted    -0.1499432E-02 ( -29.39%)
   displ. norm   :     0.6640790 α      lambda       -0.4732160E-02
   maximum displ.:     0.5665866 α      in ANC's #2, #4, #7, ...

........................................................................
.............................. CYCLE   33 ..............................
........................................................................

 iter      E             dE          RMSdq      gap      omega  full diag
   1    -42.6604027 -0.426604E+02  0.403E-01    0.70       0.0  T
   2    -42.6588178  0.158491E-02  0.396E-01    0.24       1.0  T
   3    -42.6626561 -0.383835E-02  0.162E-01    0.54       1.0  T
   4    -42.6625179  0.138186E-03  0.110E-01    0.48       1.0  T
   5    -42.6628685 -0.350572E-03  0.217E-02    0.48       1.0  T
   6    -42.6628849 -0.163911E-04  0.643E-03    0.49       3.1  T
   7    -42.6628856 -0.647625E-06  0.270E-03    0.49       7.4  T
   8    -42.6628856 -0.587383E-07  0.100E-03    0.49      20.0  T
   9    -42.6628856 -0.130604E-07  0.354E-04    0.49      56.5  T
  10    -42.6628856 -0.847869E-09  0.134E-04    0.49     149.4  T
     SCC iter.                  ...        0 min,  0.014 sec
     gradient                   ...        0 min,  0.012 sec
 * total energy  :   -42.1440916 Eh     change       -0.3794963E-02 Eh
   gradient norm :     0.0294877 Eh/α   predicted    -0.3409524E-02 ( -10.16%)
   displ. norm   :     0.8286090 α      lambda       -0.5076751E-02
   maximum displ.:     0.7275510 α      in ANC's #2, #1, #7, ...

........................................................................
.............................. CYCLE   34 ..............................
........................................................................

 iter      E             dE          RMSdq      gap      omega  full diag
   1    -42.6606059 -0.426606E+02  0.451E-01    0.79       0.0  T
   2    -42.6594179  0.118805E-02  0.397E-01    0.35       1.0  T
   3    -42.6623856 -0.296779E-02  0.213E-01    0.67       1.0  T
   4    -42.6623246  0.610654E-04  0.131E-01    0.59       1.0  T
   5    -42.6628487 -0.524142E-03  0.240E-02    0.59       1.0  T
   6    -42.6628659 -0.171432E-04  0.803E-03    0.59       2.5  T
   7    -42.6628665 -0.638102E-06  0.384E-03    0.59       5.2  T
   8    -42.6628666 -0.114570E-06  0.127E-03    0.59      15.8  T
   9    -42.6628666 -0.255520E-07  0.504E-04    0.59      39.7  T
  10    -42.6628666 -0.154656E-08  0.170E-04    0.59     117.7  T
     SCC iter.                  ...        0 min,  0.014 sec
     gradient                   ...        0 min,  0.012 sec
 * total energy  :   -42.1459652 Eh     change       -0.1873607E-02 Eh
   gradient norm :     0.1206575 Eh/α   predicted    -0.4281211E-02 ( 128.50%)
   displ. norm   :     0.3918995 α      lambda       -0.1143085E-01
   maximum displ.:     0.2067888 α      in ANC's #6, #1, #18, ...

........................................................................
.............................. CYCLE   35 ..............................
........................................................................

 iter      E             dE          RMSdq      gap      omega  full diag
   1    -42.6576045 -0.426576E+02  0.295E-01    0.70       0.0  T
   2    -42.6578240 -0.219547E-03  0.182E-01    0.61       1.0  T
   3    -42.6577088  0.115258E-03  0.122E-01    0.73       1.0  T
   4    -42.6579173 -0.208583E-03  0.635E-02    0.62       1.0  T
   5    -42.6579952 -0.778858E-04  0.233E-02    0.66       1.0  T
   6    -42.6580100 -0.147583E-04  0.875E-03    0.66       2.3  T
   7    -42.6580117 -0.168858E-05  0.344E-03    0.66       5.8  T
   8    -42.6580118 -0.105705E-06  0.990E-04    0.66      20.2  T
   9    -42.6580118 -0.154164E-07  0.415E-04    0.66      48.2  T
     SCC iter.                  ...        0 min,  0.013 sec
     gradient                   ...        0 min,  0.012 sec
 * total energy  :   -42.1499944 Eh     change       -0.4029177E-02 Eh
   gradient norm :     0.0463818 Eh/α   predicted    -0.6593234E-02 (  63.64%)
   displ. norm   :     0.3483590 α      lambda       -0.4214331E-02
   maximum displ.:     0.2479915 α      in ANC's #2, #4, #1, ...

........................................................................
.............................. CYCLE   36 ..............................
........................................................................

 iter      E             dE          RMSdq      gap      omega  full diag
   1    -42.6610359 -0.426610E+02  0.218E-01    0.74       0.0  T
   2    -42.6610458 -0.986278E-05  0.167E-01    0.62       1.0  T
   3    -42.6611641 -0.118335E-03  0.109E-01    0.75       1.0  T
   4    -42.6612927 -0.128599E-03  0.580E-02    0.68       1.0  T
   5    -42.6613513 -0.586560E-04  0.218E-02    0.69       1.0  T
   6    -42.6613693 -0.179397E-04  0.530E-03    0.69       3.8  T
   7    -42.6613696 -0.271278E-06  0.275E-03    0.69       7.3  T
   8    -42.6613697 -0.995160E-07  0.588E-04    0.69      34.0  T
   9    -42.6613697 -0.272043E-08  0.316E-04    0.69      63.3  T
     SCC iter.                  ...        0 min,  0.013 sec
     gradient                   ...        0 min,  0.012 sec
 * total energy  :   -42.1525795 Eh     change       -0.2585163E-02 Eh
   gradient norm :     0.0412608 Eh/α   predicted    -0.2362894E-02 (  -8.60%)
   displ. norm   :     0.2927845 α      lambda       -0.4511819E-02
   maximum displ.:     0.1410256 α      in ANC's #1, #6, #7, ...

........................................................................
.............................. CYCLE   37 ..............................
........................................................................

 iter      E             dE          RMSdq      gap      omega  full diag
   1    -42.6740565 -0.426741E+02  0.223E-01    0.77       0.0  T
   2    -42.6741276 -0.711009E-04  0.189E-01    0.64       1.0  T
   3    -42.6743615 -0.233900E-03  0.104E-01    0.75       1.0  T
   4    -42.6743926 -0.310657E-04  0.771E-02    0.68       1.0  T
   5    -42.6744828 -0.902487E-04  0.216E-02    0.70       1.0  T
   6    -42.6745005 -0.177237E-04  0.703E-03    0.71       2.8  T
   7    -42.6745013 -0.813735E-06  0.330E-03    0.71       6.1  T
   8    -42.6745015 -0.129458E-06  0.665E-04    0.71      30.1  T
   9    -42.6745015 -0.387654E-08  0.324E-04    0.71      61.6  T
     SCC iter.                  ...        0 min,  0.013 sec
     gradient                   ...        0 min,  0.012 sec
 * total energy  :   -42.1542793 Eh     change       -0.1699744E-02 Eh
   gradient norm :     0.0473338 Eh/α   predicted    -0.2449298E-02 (  44.10%)
   displ. norm   :     0.2965915 α      lambda       -0.3956581E-02
   maximum displ.:     0.1366914 α      in ANC's #1, #2, #4, ...

........................................................................
.............................. CYCLE   38 ..............................
........................................................................

 iter      E             dE          RMSdq      gap      omega  full diag
   1    -42.6709010 -0.426709E+02  0.269E-01    0.90       0.0  T
   2    -42.6703965  0.504473E-03  0.250E-01    0.66       1.0  T
   3    -42.6714952 -0.109869E-02  0.132E-01    0.85       1.0  T
   4    -42.6715321 -0.369284E-04  0.639E-02    0.81       1.0  T
   5    -42.6716768 -0.144638E-03  0.218E-02    0.81       1.0  T
   6    -42.6716883 -0.114878E-04  0.838E-03    0.81       2.4  T
   7    -42.6716890 -0.720615E-06  0.266E-03    0.81       7.5  T
   8    -42.6716891 -0.614469E-07  0.845E-04    0.81      23.7  T
   9    -42.6716891 -0.635881E-08  0.442E-04    0.81      45.3  T
     SCC iter.                  ...        0 min,  0.013 sec
     gradient                   ...        0 min,  0.012 sec
 * total energy  :   -42.1571215 Eh     change       -0.2842258E-02 Eh
   gradient norm :     0.0436927 Eh/α   predicted    -0.2152316E-02 ( -24.27%)
   displ. norm   :     0.4423063 α      lambda       -0.8931034E-02
   maximum displ.:     0.1452803 α      in ANC's #4, #2, #39, ...

........................................................................
.............................. CYCLE   39 ..............................
........................................................................

 iter      E             dE          RMSdq      gap      omega  full diag
   1    -42.6754436 -0.426754E+02  0.510E-01    1.35       0.0  T
   2    -42.6739712  0.147239E-02  0.507E-01    0.76       1.0  T
   3    -42.6800709 -0.609962E-02  0.217E-01    1.13       1.0  T
   4    -42.6795885  0.482330E-03  0.169E-01    1.05       1.0  T
   5    -42.6804425 -0.853934E-03  0.444E-02    1.06       1.0  T
   6    -42.6804962 -0.537736E-04  0.163E-02    1.07       1.2  T
   7    -42.6804972 -0.916592E-06  0.418E-03    1.07       4.8  T
   8    -42.6804975 -0.319210E-06  0.154E-03    1.07      13.0  T
   9    -42.6804975 -0.155213E-07  0.723E-04    1.07      27.7  T
  10    -42.6804975 -0.197742E-08  0.265E-04    1.07      75.4  T
     SCC iter.                  ...        0 min,  0.014 sec
     gradient                   ...        0 min,  0.012 sec
 * total energy  :   -42.1595728 Eh     change       -0.2451293E-02 Eh
   gradient norm :     0.0946621 Eh/α   predicted    -0.5339150E-02 ( 117.81%)
   displ. norm   :     0.3681824 α      lambda       -0.9356200E-02
   maximum displ.:     0.2558114 α      in ANC's #2, #1, #46, ...

........................................................................
.............................. CYCLE   40 ..............................
........................................................................

 iter      E             dE          RMSdq      gap      omega  full diag
   1    -42.6718040 -0.426718E+02  0.289E-01    1.10       0.0  T
   2    -42.6717929  0.111138E-04  0.176E-01    1.01       1.0  T
   3    -42.6709710  0.821954E-03  0.195E-01    1.16       1.0  T
   4    -42.6718960 -0.925011E-03  0.293E-02    1.05       1.0  T
   5    -42.6719195 -0.235435E-04  0.104E-02    1.04       1.9  T
   6    -42.6719232 -0.363560E-05  0.496E-03    1.05       4.0  T
   7    -42.6719237 -0.489288E-06  0.204E-03    1.05       9.8  T
   8    -42.6719237 -0.345404E-07  0.513E-04    1.05      39.0  T
   9    -42.6719237 -0.263135E-08  0.261E-04    1.05      76.7  T
     SCC iter.                  ...        0 min,  0.013 sec
     gradient                   ...        0 min,  0.012 sec
 * total energy  :   -42.1627328 Eh     change       -0.3159917E-02 Eh
   gradient norm :     0.0917795 Eh/α   predicted    -0.5312203E-02 (  68.11%)
   displ. norm   :     0.4619073 α      lambda       -0.1832966E-01
   maximum displ.:     0.2127049 α      in ANC's #2, #16, #20, ...

........................................................................
.............................. CYCLE   41 ..............................
........................................................................

 iter      E             dE          RMSdq      gap      omega  full diag
   1    -42.6828340 -0.426828E+02  0.461E-01    1.41       0.0  T
   2    -42.6828551 -0.210563E-04  0.342E-01    1.04       1.0  T
   3    -42.6842801 -0.142502E-02  0.243E-01    1.34       1.0  T
   4    -42.6847165 -0.436393E-03  0.119E-01    1.23       1.0  T
   5    -42.6850892 -0.372700E-03  0.408E-02    1.22       1.0  T
   6    -42.6851502 -0.610073E-04  0.107E-02    1.23       1.9  T
   7    -42.6851513 -0.109623E-05  0.484E-03    1.23       4.1  T
   8    -42.6851515 -0.224404E-06  0.108E-03    1.23      18.4  T
   9    -42.6851515 -0.117711E-07  0.561E-04    1.23      35.6  T
  10    -42.6851516 -0.747256E-09  0.211E-04    1.23      94.7  T
     SCC iter.                  ...        0 min,  0.014 sec
     gradient                   ...        0 min,  0.012 sec
 * total energy  :   -42.1557737 Eh     change        0.6959062E-02 Eh
   gradient norm :     0.1712779 Eh/α   predicted    -0.1112018E-01 (-259.79%)
   displ. norm   :     0.2892327 α      lambda       -0.2510562E-01
   maximum displ.:     0.1352777 α      in ANC's #2, #24, #20, ...

........................................................................
.............................. CYCLE   42 ..............................
........................................................................

 iter      E             dE          RMSdq      gap      omega  full diag
   1    -42.6926207 -0.426926E+02  0.302E-01    1.45       0.0  T
   2    -42.6926750 -0.542119E-04  0.243E-01    1.20       1.0  T
   3    -42.6933179 -0.642957E-03  0.147E-01    1.38       1.0  T
   4    -42.6934076 -0.897095E-04  0.835E-02    1.31       1.0  T
   5    -42.6935633 -0.155665E-03  0.275E-02    1.31       1.0  T
   6    -42.6935931 -0.297962E-04  0.786E-03    1.32       2.5  T
   7    -42.6935940 -0.958454E-06  0.320E-03    1.32       6.2  T
   8    -42.6935941 -0.768951E-07  0.619E-04    1.32      32.3  T
   9    -42.6935941 -0.167716E-08  0.318E-04    1.32      62.8  T
     SCC iter.                  ...        0 min,  0.013 sec
     gradient                   ...        0 min,  0.012 sec
 * total energy  :   -42.1703272 Eh     change       -0.1455347E-01 Eh
   gradient norm :     0.0361991 Eh/α   predicted    -0.1360297E-01 (  -6.53%)
   displ. norm   :     0.3083506 α      lambda       -0.4730720E-02
   maximum displ.:     0.1598845 α      in ANC's #2, #9, #4, ...
 * RMSD in coord.:     0.8848590 α      energy gain  -0.7679164E-01 Eh

generating ANC from model Hessian ...
Using Lindh-Hessian (1995)
 Shifting diagonal of input Hessian by    9.3884569848641866E-003
 Lowest  eigenvalues of input Hessian
    0.000000    0.000000    0.000000    0.000000    0.000000    0.000000
    0.010000    0.011431    0.013496    0.014358    0.015627    0.018271
    0.020066    0.022275    0.024037    0.024828    0.025623    0.031125
 Highest eigenvalues
    2.098390    2.153837    2.182923    2.327143    2.489252    3.177260


........................................................................
.............................. CYCLE   43 ..............................
........................................................................

 iter      E             dE          RMSdq      gap      omega  full diag
   1    -42.6968291 -0.426968E+02  0.257E-01    1.42       0.0  T
   2    -42.6968632 -0.341621E-04  0.164E-01    1.31       1.0  T
   3    -42.6965460  0.317205E-03  0.123E-01    1.45       1.0  T
   4    -42.6969608 -0.414739E-03  0.375E-02    1.35       1.0  T
   5    -42.6969976 -0.368100E-04  0.825E-03    1.36       2.4  T
   6    -42.6969987 -0.109935E-05  0.550E-03    1.36       3.6  T
   7    -42.6969992 -0.546902E-06  0.115E-03    1.36      17.5  T
   8    -42.6969993 -0.118673E-07  0.338E-04    1.36      59.2  T
   9    -42.6969993 -0.691337E-09  0.156E-04    1.36     128.6  T
     SCC iter.                  ...        0 min,  0.013 sec
     gradient                   ...        0 min,  0.012 sec
 * total energy  :   -42.1730965 Eh     change       -0.2769352E-02 Eh
   gradient norm :     0.0277439 Eh/α   predicted     0.0000000E+00 (-100.00%)
   displ. norm   :     0.2402177 α      lambda       -0.3115366E-02
   maximum displ.:     0.1556239 α      in ANC's #11, #14, #10, ...

........................................................................
.............................. CYCLE   44 ..............................
........................................................................

 iter      E             dE          RMSdq      gap      omega  full diag
   1    -42.7012210 -0.427012E+02  0.154E-01    1.56       0.0  T
   2    -42.7013066 -0.855783E-04  0.140E-01    1.37       1.0  T
   3    -42.7017332 -0.426582E-03  0.612E-02    1.47       1.0  T
   4    -42.7016808  0.524269E-04  0.500E-02    1.45       1.0  T
   5    -42.7017512 -0.704295E-04  0.127E-02    1.45       1.6  T
   6    -42.7017546 -0.342289E-05  0.551E-03    1.45       3.6  T
   7    -42.7017549 -0.251153E-06  0.825E-04    1.45      24.2  T
   8    -42.7017549 -0.714238E-08  0.352E-04    1.45      56.9  T
     SCC iter.                  ...        0 min,  0.011 sec
     gradient                   ...        0 min,  0.012 sec
 * total energy  :   -42.1756336 Eh     change       -0.2537111E-02 Eh
   gradient norm :     0.0181379 Eh/α   predicted    -0.1648989E-02 ( -35.01%)
   displ. norm   :     0.4436929 α      lambda       -0.3853376E-02
   maximum displ.:     0.2767694 α      in ANC's #11, #14, #10, ...

........................................................................
.............................. CYCLE   45 ..............................
........................................................................

 iter      E             dE          RMSdq      gap      omega  full diag
   1    -42.7073140 -0.427073E+02  0.254E-01    1.83       0.0  T
   2    -42.7076523 -0.338273E-03  0.206E-01    1.53       1.0  T
   3    -42.7084427 -0.790344E-03  0.102E-01    1.68       1.0  T
   4    -42.7083520  0.906297E-04  0.775E-02    1.63       1.0  T
   5    -42.7085228 -0.170786E-03  0.190E-02    1.64       1.1  T
   6    -42.7085297 -0.690098E-05  0.918E-03    1.64       2.2  T
   7    -42.7085307 -0.935772E-06  0.162E-03    1.64      12.3  T
   8    -42.7085307 -0.178188E-07  0.594E-04    1.64      33.7  T
   9    -42.7085307 -0.603413E-08  0.271E-04    1.64      73.9  T
     SCC iter.                  ...        0 min,  0.013 sec
     gradient                   ...        0 min,  0.012 sec
 * total energy  :   -42.1782584 Eh     change       -0.2624737E-02 Eh
   gradient norm :     0.0137297 Eh/α   predicted    -0.2305983E-02 ( -12.14%)
   displ. norm   :     0.3365050 α      lambda       -0.1400109E-02
   maximum displ.:     0.1836689 α      in ANC's #11, #14, #10, ...

........................................................................
.............................. CYCLE   46 ..............................
........................................................................

 iter      E             dE          RMSdq      gap      omega  full diag
   1    -42.7107562 -0.427108E+02  0.189E-01    1.87       0.0  T
   2    -42.7108625 -0.106313E-03  0.130E-01    1.71       1.0  T
   3    -42.7109830 -0.120510E-03  0.882E-02    1.81       1.0  T
   4    -42.7110152 -0.322433E-04  0.504E-02    1.76       1.0  T
   5    -42.7110909 -0.756668E-04  0.106E-02    1.77       1.9  T
   6    -42.7110922 -0.132799E-05  0.605E-03    1.77       3.3  T
   7    -42.7110929 -0.638010E-06  0.114E-03    1.77      17.5  T
   8    -42.7110929 -0.782816E-08  0.336E-04    1.77      59.6  T
   9    -42.7110929 -0.164584E-08  0.166E-04    1.77     120.7  T
     SCC iter.                  ...        0 min,  0.013 sec
     gradient                   ...        0 min,  0.011 sec
 * total energy  :   -42.1792553 Eh     change       -0.9969723E-03 Eh
   gradient norm :     0.0124329 Eh/α   predicted    -0.7793283E-03 ( -21.83%)
   displ. norm   :     0.3004550 α      lambda       -0.7389980E-03
   maximum displ.:     0.1464468 α      in ANC's #14, #11, #10, ...

........................................................................
.............................. CYCLE   47 ..............................
........................................................................

 iter      E             dE          RMSdq      gap      omega  full diag
   1    -42.7135660 -0.427136E+02  0.144E-01    1.95       0.0  T
   2    -42.7136204 -0.543964E-04  0.945E-02    1.84       1.0  T
   3    -42.7136437 -0.233641E-04  0.703E-02    1.91       1.0  T
   4    -42.7136863 -0.426064E-04  0.355E-02    1.87       1.0  T
   5    -42.7137238 -0.374962E-04  0.730E-03    1.87       2.7  T
   6    -42.7137244 -0.580587E-06  0.429E-03    1.88       4.7  T
   7    -42.7137248 -0.349863E-06  0.962E-04    1.88      20.8  T
   8    -42.7137248 -0.431672E-08  0.268E-04    1.88      74.7  T
     SCC iter.                  ...        0 min,  0.012 sec
     gradient                   ...        0 min,  0.012 sec
 * total energy  :   -42.1797543 Eh     change       -0.4989532E-03 Eh
   gradient norm :     0.0067058 Eh/α   predicted    -0.4028601E-03 ( -19.26%)
   displ. norm   :     0.3030513 α      lambda       -0.4119683E-03
   maximum displ.:     0.1541642 α      in ANC's #14, #1, #10, ...

........................................................................
.............................. CYCLE   48 ..............................
........................................................................

 iter      E             dE          RMSdq      gap      omega  full diag
   1    -42.7122993 -0.427123E+02  0.162E-01    1.98       0.0  T
   2    -42.7123188 -0.195088E-04  0.985E-02    1.92       1.0  T
   3    -42.7121919  0.126950E-03  0.803E-02    1.99       1.0  T
   4    -42.7123341 -0.142288E-03  0.247E-02    1.94       1.0  T
   5    -42.7123522 -0.180095E-04  0.483E-03    1.94       4.1  T
   6    -42.7123524 -0.220047E-06  0.302E-03    1.94       6.6  T
   7    -42.7123526 -0.183645E-06  0.626E-04    1.94      32.0  T
   8    -42.7123526 -0.354697E-08  0.224E-04    1.94      89.4  T
     SCC iter.                  ...        0 min,  0.012 sec
     gradient                   ...        0 min,  0.012 sec
 * total energy  :   -42.1799911 Eh     change       -0.2368283E-03 Eh
   gradient norm :     0.0101031 Eh/α   predicted    -0.2249055E-03 (  -5.03%)
   displ. norm   :     0.2447325 α      lambda       -0.2784983E-03
   maximum displ.:     0.1333046 α      in ANC's #1, #2, #10, ...

........................................................................
.............................. CYCLE   49 ..............................
........................................................................

 iter      E             dE          RMSdq      gap      omega  full diag
   1    -42.7145945 -0.427146E+02  0.925E-02    2.03       0.0  T
   2    -42.7146099 -0.154176E-04  0.565E-02    1.98       1.0  T
   3    -42.7145807  0.292367E-04  0.456E-02    2.02       1.0  T
   4    -42.7146182 -0.375474E-04  0.174E-02    1.99       1.2  T
   5    -42.7146267 -0.847805E-05  0.370E-03    1.99       5.4  T
   6    -42.7146270 -0.238508E-06  0.205E-03    1.99       9.8  T
   7    -42.7146271 -0.889847E-07  0.572E-04    1.99      35.0  T
   8    -42.7146271 -0.151708E-08  0.176E-04    1.99     113.6  T
     SCC iter.                  ...        0 min,  0.012 sec
     gradient                   ...        0 min,  0.012 sec
 * total energy  :   -42.1801915 Eh     change       -0.2003520E-03 Eh
   gradient norm :     0.0049157 Eh/α   predicted    -0.1475936E-03 ( -26.33%)
   displ. norm   :     0.3196368 α      lambda       -0.2110945E-03
   maximum displ.:     0.2097560 α      in ANC's #1, #2, #14, ...

........................................................................
.............................. CYCLE   50 ..............................
........................................................................

 iter      E             dE          RMSdq      gap      omega  full diag
   1    -42.7151762 -0.427152E+02  0.127E-01    2.07       0.0  T
   2    -42.7151862 -0.994101E-05  0.769E-02    2.02       1.0  T
   3    -42.7151035  0.826546E-04  0.600E-02    2.08       1.0  T
   4    -42.7151919 -0.883921E-04  0.164E-02    2.04       1.2  T
   5    -42.7152000 -0.805907E-05  0.325E-03    2.04       6.2  T
   6    -42.7152001 -0.170494E-06  0.184E-03    2.04      10.9  T
   7    -42.7152002 -0.665324E-07  0.524E-04    2.04      38.2  T
   8    -42.7152002 -0.153238E-08  0.176E-04    2.04     113.9  T
     SCC iter.                  ...        0 min,  0.011 sec
     gradient                   ...        0 min,  0.012 sec
 * total energy  :   -42.1803527 Eh     change       -0.1611913E-03 Eh
   gradient norm :     0.0060041 Eh/α   predicted    -0.1163343E-03 ( -27.83%)
   displ. norm   :     0.3389719 α      lambda       -0.2145601E-03
   maximum displ.:     0.2413016 α      in ANC's #1, #2, #4, ...

........................................................................
.............................. CYCLE   51 ..............................
........................................................................

 iter      E             dE          RMSdq      gap      omega  full diag
   1    -42.7162425 -0.427162E+02  0.111E-01    2.09       0.0  T
   2    -42.7162479 -0.533257E-05  0.679E-02    2.06       1.0  T
   3    -42.7161753  0.725997E-04  0.553E-02    2.10       1.0  T
   4    -42.7162528 -0.775055E-04  0.134E-02    2.07       1.5  T
   5    -42.7162584 -0.562204E-05  0.258E-03    2.07       7.8  T
   6    -42.7162585 -0.136919E-06  0.136E-03    2.07      14.7  T
[...]
C           -2.22725550681216        2.35174738198582       -0.10030527133114
C           -1.94584425621668       -0.00760225710431        0.10025312495884
O           -3.14086615360293       -0.13481091669257        0.08543521060882
N           -1.10991698978903       -1.17537305061285        0.23612617191637
C           -1.68546335411202       -2.36153328585510        0.39161828163351
H            3.78854248029315        1.08589736779543        0.94924155794255
H            3.87426046208419        0.86537413591561       -0.80679959562275
H            2.73657227442218        2.04839678885854       -0.11235714919098
H            3.31410698228777       -1.74474734930930        0.20399461074247
H           -1.62808866471130        3.26120259258064       -0.12228236045470
H           -2.82237204780698        2.27212567643152       -1.01162350190913
H           -2.91080025921807        2.36989047888097        0.75037301727142
H           -1.06130896125113       -3.22873108906083        0.50653777700737
H            0.57724131242222       -4.23455155304349       -1.38383819527085
H           -2.76131835308626       -2.40541031957574        0.40212883842588
H            0.92987206029978       -3.70231134641527       -0.89001485047418

 Bond Distances (Angstroems)
 ---------------------------
C1-N2=1.4347         C1-H15=1.0924        C1-H16=1.0915        C1-H17=1.0903        N2-C1=1.4347         N2-C3=1.3531         
N2-C6=1.3677         C3-N2=1.3531         C3-N4=1.3158         C3-H18=1.0726        N4-C3=1.3158         N4-C5=1.3478         
C5-N4=1.3478         C5-C6=1.3978         C5-N13=1.3698        C6-N2=1.3677         C6-C5=1.3978         C6-C7=1.4380         
C7-C6=1.4380         C7-O8=1.2122         C7-N9=1.4059         O8-C7=1.2122         N9-C7=1.4059         N9-C10=1.4535        
N9-C11=1.3746        C10-N9=1.4535        C10-H19=1.0893       C10-H20=1.0913       C10-H21=1.0914       C11-N9=1.3746        
C11-O12=1.2019       C11-N13=1.4425       O12-C11=1.2019       N13-C5=1.3698        N13-C11=1.4425       N13-C14=1.3276       
C14-N13=1.3276       C14-H22=1.0746       C14-H24=1.0768       H15-C1=1.0924        H16-C1=1.0915        H17-C1=1.0903        
H18-C3=1.0726        H19-C10=1.0893       H20-C10=1.0913       H21-C10=1.0914       H22-C14=1.0746       H23-H25=0.8071       
H24-C14=1.0768       H25-H23=0.8071       
 H  H  Rav=0.8071 sigma=0.0000  Rmin=0.8071  Rmax=0.8071     1
 C  H  Rav=1.0856 sigma=0.0078  Rmin=1.0726  Rmax=1.0924     9
 C  C  Rav=1.4179 sigma=0.0201  Rmin=1.3978  Rmax=1.4380     2
 N  C  Rav=1.3812 sigma=0.0446  Rmin=1.3158  Rmax=1.4535    11
 O  C  Rav=1.2070 sigma=0.0052  Rmin=1.2019  Rmax=1.2122     2

 selected bond angles (degree)
 --------------------
H15-C1-N2=110.32               H16-C1-N2=110.26               H16-C1-H15=108.46              H17-C1-N2=109.18               
H17-C1-H15=109.06              H17-C1-H16=109.54              C3-N2-C1=127.19                C6-N2-C1=126.62                
C6-N2-C3=106.19                N4-C3-N2=112.67                H18-C3-N2=123.60               H18-C3-N4=123.74               
C5-N4-C3=105.81                C6-C5-N4=109.59                N13-C5-N4=127.87               N13-C5-C6=122.54               
C5-C6-N2=105.74                C7-C6-N2=131.44                C7-C6-C5=122.80                O8-C7-C6=126.49                
N9-C7-C6=111.52                N9-C7-O8=121.99                C10-N9-C7=117.22               C11-N9-C7=127.86               
C11-N9-C10=114.92              H19-C10-N9=108.24              H20-C10-N9=110.11              H20-C10-H19=110.12             
H21-C10-N9=110.02              H21-C10-H19=110.26             H21-C10-H20=108.09             

 selected dihedral angles (degree)
 ---------------------------------
C3-N2-C1-H15=295.35           C3-N2-C1-H16= 55.13           C3-N2-C1-H17=175.52           C6-N2-C1-H15=115.14           
C6-N2-C1-H16=234.92           C6-N2-C1-H17=355.31           N4-C3-N2-C1=179.60            N4-C3-N2-C6=359.77            
H18-C3-N2-C1=359.56           H18-C3-N2-C6=179.73           C5-N4-C3-N2=  0.16            C5-N4-C3-H18=180.20           
C6-C5-N4-C3=359.97            N13-C5-N4-C3=180.12           C5-C6-N2-C1=180.37            C5-C6-N2-C3=  0.19            
C7-C6-N2-C1=  1.47            C7-C6-N2-C3=181.29            N2-C6-C5-N4=359.89            N2-C6-C5-N13=179.76           
C7-C6-C5-N4=178.91            C7-C6-C5-N13=358.78           O8-C7-C6-N2=358.22            O8-C7-C6-C5=179.48            
N9-C7-C6-N2=177.90            N9-C7-C6-C5=359.16            C10-N9-C7-C6=180.81           C10-N9-C7-O8=  0.50           
C11-N9-C7-C6=  0.89           C11-N9-C7-O8=180.58           H19-C10-N9-C7=357.68          H19-C10-N9-C11=177.61         
H20-C10-N9-C7=118.10          H20-C10-N9-C11=298.02         H21-C10-N9-C7=237.13          H21-C10-N9-C11= 57.06         
           -------------------------------------------------
          |                Final Singlepoint                |
           -------------------------------------------------

          ...................................................
          :                      SETUP                      :
          :.................................................:
          :  # basis functions                  67          :
          :  # atomic orbitals                  67          :
          :  # shells                           39          :
          :  # electrons                        74          :
          :  max. iterations                   250          :
          :  Hamiltonian                  GFN2-xTB          :
          :  restarted?                      false          :
          :  GBSA solvation                  false          :
          :  PC potential                    false          :
          :  electronic temp.         7500.0000000     K    :
          :  accuracy                    1.0000000          :
          :  -> integral cutoff          0.2500000E+02      :
          :  -> integral neglect         0.1000000E-07      :
          :  -> SCF convergence          0.1000000E-05 Eh   :
          :  -> wf. convergence          0.1000000E-03 e    :
          :  Broyden damping             0.4000000          :
          ...................................................

 iter      E             dE          RMSdq      gap      omega  full diag
   1    -42.7156357 -0.427156E+02  0.131E-04    2.04       0.0  T
   2    -42.7156357  0.821174E-10  0.111E-04    2.04     179.7  T
   3    -42.7156357 -0.253387E-09  0.666E-05    2.04     300.2  T

   *** convergence criteria satisfied after 3 iterations ***

         #    Occupation            Energy/Eh            Energy/eV
      -------------------------------------------------------------
         1        2.0000           -0.9042616             -24.6062
       ...           ...                  ...                  ...
        31        1.9675           -0.6135652             -16.6960
        32        1.9601           -0.6086501             -16.5622
        33        1.9458           -0.6011773             -16.3589
        34        1.9095           -0.5885500             -16.0153
        35        1.9022           -0.5866261             -15.9629
        36        1.8804           -0.5815812             -15.8256
        37        1.8220           -0.5713880             -15.5483 (HOMO)
        38        0.6053           -0.4963125             -13.5053 (LUMO)
        39        0.0507           -0.4294796             -11.6867
        40        0.0124           -0.3956141             -10.7652
        41        0.0054           -0.3756061             -10.2208
        42        0.0002           -0.2979929              -8.1088
       ...           ...                  ...                  ...
        67                          0.5284133              14.3789
      -------------------------------------------------------------
                  HL-Gap            0.0750755 Eh            2.0429 eV
             Fermi-level           -0.5161385 Eh          -14.0448 eV

 SCC (total)                   0 d,  0 h,  0 min,  0.021 sec
 SCC setup                      ...        0 min,  0.000 sec (  0.878%)
 Dispersion                     ...        0 min,  0.000 sec (  0.870%)
 classical contributions        ...        0 min,  0.000 sec (  0.323%)
 integral evaluation            ...        0 min,  0.004 sec ( 20.830%)
 iterations                     ...        0 min,  0.005 sec ( 22.430%)
 molecular gradient             ...        0 min,  0.011 sec ( 53.960%)
 printout                       ...        0 min,  0.000 sec (  0.650%)

         :::::::::::::::::::::::::::::::::::::::::::::::::::::
         ::                     SUMMARY                     ::
         :::::::::::::::::::::::::::::::::::::::::::::::::::::
         :: total energy             -42.181088719834 Eh    ::
         :: gradient norm              0.003702589917 Eh/a0 ::
         :: HOMO-LUMO gap              2.042908812115 eV    ::
         ::.................................................::
         :: SCC energy               -42.715635711832 Eh    ::
         :: -> isotropic ES            0.132097170118 Eh    ::
         :: -> anisotropic ES         -0.002480804253 Eh    ::
         :: -> anisotropic XC          0.023244639425 Eh    ::
         :: -> dispersion             -0.022663228376 Eh    ::
         :: repulsion energy           0.534432815426 Eh    ::
         :: add. restraining           0.000004320308 Eh    ::
         :: total charge               1.000000000000 e     ::
         :::::::::::::::::::::::::::::::::::::::::::::::::::::

           -------------------------------------------------
          |                Property Printout                |
           -------------------------------------------------

    * Orbital Energies and Occupations

         #    Occupation            Energy/Eh            Energy/eV
      -------------------------------------------------------------
         1        2.0000           -0.9042616             -24.6062
       ...           ...                  ...                  ...
        25        1.9970           -0.6703792             -18.2419
        26        1.9952           -0.6591792             -17.9372
        27        1.9930           -0.6504241             -17.6989
        28        1.9924           -0.6484065             -17.6440
        29        1.9903           -0.6426519             -17.4874
        30        1.9783           -0.6232818             -16.9604
        31        1.9675           -0.6135652             -16.6960
        32        1.9601           -0.6086501             -16.5622
        33        1.9458           -0.6011773             -16.3589
        34        1.9095           -0.5885500             -16.0153
        35        1.9022           -0.5866261             -15.9629
        36        1.8804           -0.5815812             -15.8256
        37        1.8220           -0.5713880             -15.5483 (HOMO)
        38        0.6053           -0.4963125             -13.5053 (LUMO)
        39        0.0507           -0.4294796             -11.6867
        40        0.0124           -0.3956141             -10.7652
        41        0.0054           -0.3756061             -10.2208
        42        0.0002           -0.2979929              -8.1088
        43        0.0000           -0.2146668              -5.8414
        44        0.0000           -0.1675197              -4.5584
        45        0.0000           -0.1454845              -3.9588
        46                         -0.0816807              -2.2226
        47                         -0.0550385              -1.4977
        48                         -0.0487787              -1.3273
       ...                                ...                  ...
        67                          0.5284133              14.3789
      -------------------------------------------------------------
                  HL-Gap            0.0750755 Eh            2.0429 eV
             Fermi-level           -0.5161385 Eh          -14.0448 eV

     #   Z          covCN         q      C6AA      α(0)
     1   6 C        3.689    -0.082    22.262     6.753
     2   7 N        2.833     0.049    20.390     6.707
     3   6 C        3.172     0.093    25.574     8.260
     4   7 N        1.902    -0.190    25.929     7.549
     5   6 C        3.164     0.112    25.222     8.208
     6   6 C        3.111    -0.005    28.000     8.669
     7   6 C        2.763     0.268    22.482     7.765
     8   8 O        0.858    -0.329    20.315     6.043
     9   7 N        2.744    -0.064    22.474     7.041
    10   6 C        3.710    -0.064    21.861     6.682
    11   6 C        2.733     0.310    21.738     7.633
    12   8 O        0.859    -0.319    20.118     6.014
    13   7 N        2.736     0.033    20.662     6.751
    14   6 C        2.804    -0.021    28.505     8.747
    15   1 H        0.924     0.112     1.677     2.025
    16   1 H        0.924     0.110     1.693     2.035
    17   1 H        0.924     0.129     1.543     1.943
    18   1 H        0.926     0.113     1.670     2.021
    19   1 H        0.925     0.130     1.538     1.939
    20   1 H        0.924     0.117     1.640     2.003
    21   1 H        0.924     0.117     1.635     2.000
    22   1 H        0.926     0.138     1.478     1.901
    23   1 H        0.703     0.048     2.499     2.511
    24   1 H        0.926     0.149     1.395     1.847
    25   1 H        0.703     0.044     2.553     2.538

 Mol. C6AA /au·bohr⁶  :       6678.225028
 Mol. C8AA /au·bohr⁸  :     153061.324164
 Mol. α(0) /au        :        125.584002


Wiberg/Mayer (AO) data.
largest (>0.10) Wiberg bond orders for each atom

 ---------------------------------------------------------------------------
     #   Z sym  total        # sym  WBO       # sym  WBO       # sym  WBO
 ---------------------------------------------------------------------------
     1   6 C    3.890 --     2 N    0.996    17 H    0.954    16 H    0.950
                            15 H    0.946
     2   7 N    3.623 --     3 C    1.279     6 C    1.195     1 C    0.996
     3   6 C    3.865 --     4 N    1.464     2 N    1.279    18 H    0.952
     4   7 N    2.966 --     3 C    1.464     5 C    1.280
     5   6 C    3.869 --     6 C    1.295     4 N    1.280    13 N    1.104
     6   6 C    3.824 --     5 C    1.295     2 N    1.195     7 C    1.083
     7   6 C    3.895 --     8 O    1.663     6 C    1.083     9 N    1.066
     8   8 O    1.932 --     7 C    1.663     9 N    0.113
     9   7 N    3.502 --    11 C    1.152     7 C    1.066    10 C    0.975
                            12 O    0.132     8 O    0.113
    10   6 C    3.856 --     9 N    0.975    19 H    0.951    21 H    0.944
                            20 H    0.942
    11   6 C    3.901 --    12 O    1.702     9 N    1.152    13 N    0.963
    12   8 O    1.984 --    11 C    1.702     9 N    0.132
    13   7 N    3.619 --    14 C    1.384     5 C    1.104    11 C    0.963
    14   6 C    3.400 --    13 N    1.384    22 H    0.954    24 H    0.951
    15   1 H    0.970 --     1 C    0.946
    16   1 H    0.972 --     1 C    0.950
    17   1 H    0.973 --     1 C    0.954
    18   1 H    0.983 --     3 C    0.952
    19   1 H    0.970 --    10 C    0.951
    20   1 H    0.960 --    10 C    0.942
    21   1 H    0.961 --    10 C    0.944
    22   1 H    0.977 --    14 C    0.954
    23   1 H    0.892 --    25 H    0.880
    24   1 H    0.973 --    14 C    0.951
    25   1 H    0.915 --    23 H    0.880
 ---------------------------------------------------------------------------

Topologies differ in total number of bonds
Writing topology from bond orders to xtbtopo.mol

molecular dipole:
                 x           y           z       tot (Debye)
 q only:        1.022      -0.964       0.062
   full:        1.236      -0.927       0.063       3.930
molecular quadrupole (traceless):
                xx          xy          yy          xz          yz          zz
 q only:       12.742      -2.234       4.984      -0.522       0.254     -17.725
  q+dip:       12.739      -2.565       1.415      -0.104       1.335     -14.155
   full:       11.515      -2.677       0.150      -0.322       1.349     -11.665

           -------------------------------------------------
          |                Geometry Summary                 |
           -------------------------------------------------

      molecular mass/u    :      195.1988581
   center of mass at/Å    :       -0.0775617       0.0902885       0.0938428
  moments of inertia/u·Å² :        0.4928021E+03   0.7151840E+03   0.1191643E+04
rotational constants/cm⁻¹ :        0.3420771E-01   0.2357104E-01   0.1414655E-01

 * 23 selected distances

     #   Z          #   Z                                           value/Å
     1   6 C        2   7 N                                       1.4346973
     2   7 N        3   6 C                                       1.3531093
     3   6 C        4   7 N                                       1.3158074
     4   7 N        5   6 C                                       1.3478199
     2   7 N        6   6 C                                       1.3677316
     5   6 C        6   6 C                                       1.3978285
     6   6 C        7   6 C                                       1.4380083
     7   6 C        8   8 O                                       1.2122123
     7   6 C        9   7 N                                       1.4059156
     9   7 N       10   6 C                                       1.4535471 (max)
     9   7 N       11   6 C                                       1.3745956
    11   6 C       12   8 O                                       1.2018649
     5   6 C       13   7 N                                       1.3698259
    13   7 N       14   6 C                                       1.3275571
     1   6 C       15   1 H                                       1.0923625
     1   6 C       16   1 H                                       1.0914898
     1   6 C       17   1 H                                       1.0902976
     3   6 C       18   1 H                                       1.0725652 (min)
    10   6 C       19   1 H                                       1.0893084
    10   6 C       20   1 H                                       1.0913315
    10   6 C       21   1 H                                       1.0914286
    14   6 C       22   1 H                                       1.0746197
    14   6 C       24   1 H                                       1.0768008

 * 4 distinct bonds (by element types)

   Z      Z             #   av. dist./Å        max./Å        min./Å
   1 H    6 C           9     1.0855782     1.0923625     1.0725652
   6 C    6 C           2     1.4179184     1.4380083     1.3978285
   6 C    7 N          10     1.3750607     1.4535471     1.3158074
   6 C    8 O           2     1.2070386     1.2122123     1.2018649


optimized geometry written to: xtbopt.xyz


           -------------------------------------------------
          | TOTAL ENERGY              -42.181088719834 Eh   |
          | GRADIENT NORM               0.003702589917 Eh/α |
          | HOMO-LUMO GAP               2.042908812115 eV   |
           -------------------------------------------------

------------------------------------------------------------------------
 * finished run on 2024/06/05 at 19:58:54.851     
------------------------------------------------------------------------
 total:
 * wall-time:     0 d,  0 h,  0 min,  1.877 sec
 *  cpu-time:     0 d,  0 h,  0 min,  1.827 sec
 * ratio c/w:     0.973 speedup
 SCF:
 * wall-time:     0 d,  0 h,  0 min,  0.064 sec
 *  cpu-time:     0 d,  0 h,  0 min,  0.036 sec
 * ratio c/w:     0.554 speedup
 ANC optimizer:
 * wall-time:     0 d,  0 h,  0 min,  1.786 sec
 *  cpu-time:     0 d,  0 h,  0 min,  1.780 sec
 * ratio c/w:     0.997 speedup

