25
 energy: -42.181093040203 gnorm: 0.003326195065 xtb: 6.6.1 (8d0f1dd)
C            3.20201349123060        1.07245129481444        0.02779777068354
N            2.17938274180316        0.06898495456133        0.10288145869801
C            2.35231673038420       -1.27027414101007        0.18880739984821
N            1.21307405852216       -1.92573929060735        0.25077905829454
C            0.24653147778221       -0.98770260669742        0.20077182879988
C            0.82801120152317        0.27987938475153        0.10568612971235
C            0.05296576144398        1.48747846993939        0.01147097957233
O            0.48529915748012        2.61741282232178       -0.06465124569638
N           -1.32652413126831        1.21618439874166        0.00914057173417
C           -2.22725550681216        2.35174738198582       -0.10030527133114
C           -1.94584425621668       -0.00760225710431        0.10025312495884
O           -3.14086615360293       -0.13481091669257        0.08543521060882
N           -1.10991698978903       -1.17537305061285        0.23612617191637
C           -1.68546335411202       -2.36153328585510        0.39161828163351
H            3.78854248029315        1.08589736779543        0.94924155794255
H            3.87426046208419        0.86537413591561       -0.80679959562275
H            2.73657227442218        2.04839678885854       -0.11235714919098
H            3.31410698228777       -1.74474734930930        0.20399461074247
H           -1.62808866471130        3.26120259258064       -0.12228236045470
H           -2.82237204780698        2.27212567643152       -1.01162350190913
H           -2.91080025921807        2.36989047888097        0.75037301727142
H           -1.06130896125113       -3.22873108906083        0.50653777700737
H            0.57724131242222       -4.23455155304349       -1.38383819527085
H           -2.76131835308626       -2.40541031957574        0.40212883842588
H            0.92987206029978       -3.70231134641527       -0.89001485047418
