25
 energy: -42.110689999558 gnorm: 0.010869552287 xtb: 6.6.1 (8d0f1dd)
C            3.20957693025496        1.02042286961210       -0.29843689651197
N            2.32385869033102        0.02313572406367       -0.24346464079728
C            2.56729813722616       -1.30526428506811       -0.26790622045266
N            1.40008130892063       -1.99395139824521       -0.17024852832150
C            0.38296155710961       -1.09423195747824       -0.08062467605863
C            0.94476618347211        0.16955101665676       -0.12237660062115
C            0.13924934000683        1.36849582439949       -0.07631819857604
O            0.55670019528885        2.50136796995586       -0.11171156420522
N           -1.21825054596149        1.06074969424423        0.01413424895042
C           -2.15682571881672        2.17393690323213        0.04829795248327
C           -1.80429234826023       -0.19086313221278        0.06268100360500
O           -2.99054705507824       -0.34340926344698        0.13949160864456
N           -0.93869171526079       -1.30784062403090        0.01878008319171
C           -1.51050491729218       -2.63825150820060        0.06995760203077
H            2.49503084733323        1.87813038299231        2.00865674104199
H            4.23705373971342        0.77549284876800       -0.53869815274632
H            2.84516728075532        2.03234772599973       -0.33086152572603
H            3.53645169750823       -1.75478693355321       -0.34341087090173
H           -1.58520091924547        3.09873333896913        0.02698042166740
H           -2.82350918680302        2.12108148778635       -0.81250178874111
H           -2.76093121110945        2.12026870411518        0.95346350231014
H           -1.11478620397863       -3.19182548545193        0.92172708029540
H           -1.31032203279623       -3.17874869171450       -0.85564919902444
H           -2.58814562952925       -2.52572850784804        0.18707381679906
H            1.32424309031125       -3.00057416194425       -0.16786358043542
25
 energy: -42.117817289741 gnorm: 0.027722638625 xtb: 6.6.1 (8d0f1dd)
C            3.19103228400653        1.03550065944825       -0.26163362136501
N            2.31476983811416        0.02949789178438       -0.23081821810194
C            2.56518063436182       -1.29770985063000       -0.25777636566172
N            1.39849318460088       -1.99090373220372       -0.17063272768364
C            0.37802016093255       -1.09418963055671       -0.08477698630958
C            0.93589400793104        0.17103956907295       -0.12531376339365
C            0.13144703995889        1.36969375871707       -0.07803909710345
O            0.54873122013705        2.50277797483608       -0.10888344064829
N           -1.22553283603672        1.06019037895681        0.01157035543860
C           -2.16258140475099        2.17387055753504        0.04904273711993
C           -1.80950304047250       -0.19247992509240        0.06031064352095
O           -2.99541899829382       -0.34619485004303        0.13864548222302
N           -0.94311083315963       -1.30910070394523        0.01504333526049
C           -1.51245035632506       -2.64030750569788        0.06820205898831
H            2.63044993057180        1.80448170907470        1.82692297533474
H            4.23375452747443        0.80280426580204       -0.42274751172545
H            2.82050395778154        2.04290844962889       -0.31948529372087
H            3.53614572757354       -1.74387282980419       -0.33135467932904
H           -1.58975349005433        3.09809672751949        0.02843121757014
H           -2.83023707331200        2.12321208102424       -0.81103915564709
H           -2.76530696451458        2.11948465683927        0.95513222285532
H           -1.11540193167975       -3.19149879209907        0.92087159084516
H           -1.31021077398355       -3.18134839815069       -0.85671798460216
H           -2.59012864929413       -2.52978303230762        0.18521953022387
H            1.32564535253298       -2.99793088810969       -0.16900168618862
25
 energy: -42.146547083096 gnorm: 0.089103371016 xtb: 6.6.1 (8d0f1dd)
C            3.17356139451871        1.06233517149108       -0.15323436453261
N            2.30523565912093        0.03903332101346       -0.19163580213055
C            2.56301993486729       -1.28529844880303       -0.24013167164625
N            1.39775549546893       -1.98535440225305       -0.17356912618383
C            0.37243254473890       -1.09367138746892       -0.09063653749767
C            0.92558950542709        0.17290870097150       -0.12295847365922
C            0.12239360858761        1.37109023223135       -0.07668960146876
O            0.54023374833471        2.50422531447235       -0.10198286283987
N           -1.23366101235562        1.05980033688553        0.00931923969330
C           -2.16932318296784        2.17393977226350        0.04926752529409
C           -1.81544969832647       -0.19404270220087        0.05713063157333
O           -3.00096236950393       -0.34909679816649        0.13726087313916
N           -0.94814940442222       -1.31034985167143        0.00860860220879
C           -1.51485936873549       -2.64233919445707        0.06542118771143
H            2.79711971543764        1.68525535788567        1.55956787370140
H            4.21712360904816        0.83929260155109       -0.30986691652725
H            2.78584022566978        2.05827089934895       -0.32626997088104
H            3.53611546484515       -1.72790169203448       -0.31115239968304
H           -1.59474763128868        3.09721800843657        0.02950380460872
H           -2.83704950434370        2.12532300336667       -0.81067464564412
H           -2.77079593464667        2.11914683222245        0.95604299641096
H           -1.11616251232171       -3.19066094430157        0.91930119952067
H           -1.31147718049697       -3.18469086041157       -0.85836045296013
H           -2.59249105462951       -2.53328109426444        0.18311303672011
H            1.32913946207480       -2.99291363451059       -0.17620252702764
25
 energy: -42.219968195149 gnorm: 0.125358612450 xtb: 6.6.1 (8d0f1dd)
C            3.15912066319596        1.10450941081828        0.03975271108370
N            2.29346486819821        0.04697543476837       -0.14346920203431
C            2.56002411863484       -1.27072917598985       -0.22739533597191
N            1.39834707395142       -1.97946646463570       -0.18070982796470
C            0.36743103353412       -1.09393653391772       -0.09845270690912
C            0.91611784882435        0.17304646482881       -0.11962642630393
C            0.11551178653064        1.37218467800860       -0.07305747898265
O            0.53595454095880        2.50480261868424       -0.09657989590100
N           -1.23901853990199        1.05988350519457        0.00790099007306
C           -2.17366159095625        2.17452064469292        0.04889130639933
C           -1.81955699845134       -0.19476611179154        0.05543113250625
O           -3.00453865312036       -0.35047667250212        0.13771715064110
N           -0.95217955235661       -1.31153068432946        0.00281147868801
C           -1.51680614149145       -2.64396604812486        0.06416980237366
H            2.94954944755020        1.53808695407218        1.25888413732239
H            4.18488583981022        0.88229798594920       -0.21710055425660
H            2.75240904035983        2.07533166433235       -0.36714854283630
H            3.53519280217012       -1.71176797039983       -0.29472539616703
H           -1.59749433080480        3.09678931323961        0.02929195586245
H           -2.84082367546432        2.12672013967438       -0.81107429955659
H           -2.77369836997342        2.11975949998909        0.95629367627774
H           -1.11647128580384       -3.18956153458006        0.91919900777310
H           -1.31327286572700       -3.18753773373881       -0.85859547963334
H           -2.59416023196521       -2.53506176022954        0.18307982560641
H            1.33410468640004       -2.98786908241977       -0.18431641018938
25
 energy: -42.080969967956 gnorm: 1.046807412266 xtb: 6.6.1 (8d0f1dd)
C            3.13929500998015        1.15617796238713        0.23004470394553
N            2.27918961745062        0.05606115903589       -0.10197415782656
C            2.55713274005760       -1.25197640493889       -0.21122727056203
N            1.40111038302154       -1.97111524359739       -0.18650924024146
C            0.36296097684392       -1.09312531641188       -0.10427999572516
C            0.90846614026457        0.17459044596291       -0.10846191222246
C            0.10820625752061        1.37444344674240       -0.06761389399980
O            0.53085779467150        2.50638419224372       -0.09399176082530
N           -1.24429670338736        1.06039754873944        0.00594190887969
C           -2.17830053892630        2.17541866820606        0.04596319439369
C           -1.82366302458891       -0.19513282770245        0.05388968559327
O           -3.00807537317944       -0.35169979381038        0.13806595983305
N           -0.95587835637814       -1.31235333542227       -0.00229236631910
C           -1.51862988293829       -2.64531102829205        0.06454504616684
H            3.09644236877525        1.36126335250837        0.94668958774106
H            4.14798015359554        0.93119856994746       -0.13848651288070
H            2.73164538029707        2.08561018575665       -0.38648178517199
H            3.53408266381541       -1.69227827431357       -0.27631499722429
H           -1.60034877306249        3.09653237941780        0.02574737631565
H           -2.84437518360489        2.12742118129742       -0.81428949633893
H           -2.77699480509523        2.12158348851178        0.95391595140515
H           -1.11693125818341       -3.18727088119564        0.92148393714411
H           -1.31514152788343       -3.19139091823266       -0.85645307460564
H           -2.59576876161949       -2.53648309967594        0.18468106643643
H            1.34146621665782       -2.98070691557539       -0.19142033600998
25
 energy: -42.241128315852 gnorm: 0.067340798526 xtb: 6.6.1 (8d0f1dd)
C            3.13148727555422        1.13296208016599        0.05304866059131
N            2.27622745557986        0.04763863308605       -0.11722370433140
C            2.55653207237159       -1.25340133401167       -0.20297243240132
N            1.40158511106604       -1.97093357947047       -0.18257895472583
C            0.36252007113428       -1.09316639499112       -0.10251690821353
C            0.90874182730451        0.17439919334002       -0.10379158587647
C            0.10737165857556        1.37473842003636       -0.06783805873775
O            0.52991456086974        2.50658321413089       -0.09506081958175
N           -1.24505074489118        1.06028237035379        0.00377508585016
C           -2.17935239456805        2.17519276990030        0.04212844548408
C           -1.82429253948663       -0.19539844686886        0.05179497784337
O           -3.00868142188285       -0.35226291355011        0.13503712169305
N           -0.95630181537743       -1.31255554660280       -0.00329132991144
C           -1.51859995687149       -2.64570441595887        0.06409297594999
H            3.09574369728733        1.40788130455657        1.14295482025606
H            4.16075787103206        0.92800067833643       -0.13836937627144
H            2.73677211560622        2.07594617966990       -0.38898895465224
H            3.53429261999052       -1.69034440354164       -0.27138192966223
H           -1.60130679461431        3.09625293051350        0.02197816999632
H           -2.84442643393872        2.12668012665841       -0.81880966291851
H           -2.77880704545041        2.12185542653035        0.94956954542587
H           -1.11747565962850       -3.18668253997936        0.92197500967123
H           -1.31404737422156       -3.19258447346246       -0.85617161516606
H           -2.59583848481529       -2.53704663147246        0.18323991221647
H            1.34266584347900       -2.98009410578087       -0.18942777462670
25
 energy: -42.240766857304 gnorm: 0.055632779067 xtb: 6.6.1 (8d0f1dd)
C            3.14516077954683        1.15673533048943        0.15375277571034
N            2.27119955741617        0.04296103930403       -0.12381979586119
C            2.55347490028746       -1.24718208967263       -0.19864749234985
N            1.40257316708342       -1.96746787574835       -0.18631690025409
C            0.35970029135321       -1.09272275161009       -0.10954203885746
C            0.90985633772986        0.17499982448560       -0.09775869925018
C            0.10259027511328        1.37635489495055       -0.05831891697121
O            0.52365893358910        2.50824935436416       -0.09402788497009
N           -1.24987764724613        1.06012318207548        0.00116006573012
C           -2.18791689940707        2.17383807739247        0.03365168964534
C           -1.82884621540470       -0.19615303739288        0.04744897169614
O           -3.01289226540617       -0.35441019956318        0.13150512642245
N           -0.95966158249340       -1.31308001989901       -0.01095248321381
C           -1.52136592208328       -2.64700707220368        0.06285835433048
H            3.16095367897648        1.38861564526830        1.25656487627460
H            4.14414070413952        0.93695221543859       -0.23784033380692
H            2.75623144384632        2.05636890850374       -0.47564239606685
H            3.53285861602511       -1.68282656410839       -0.24858671953164
H           -1.61142249092880        3.09561443118502        0.01252299809905
H           -2.85125863388643        2.12383577239891       -0.82843745776623
H           -2.78930698163767        2.12310905736371        0.93982825639403
H           -1.11930815520842       -3.18178726011042        0.92432268437907
H           -1.31693186235352       -3.20038028722855       -0.85351688930806
H           -2.59878063909488       -2.53984958441160        0.18235425802354
H            1.34560212414947       -2.97665244968628       -0.19139043059577
25
 energy: -42.244352170630 gnorm: 0.031605715070 xtb: 6.6.1 (8d0f1dd)
C            3.16097691602619        1.14894427286971        0.11632706210937
N            2.27383612193108        0.04120604042968       -0.13594630812948
C            2.55217059837161       -1.24785011913537       -0.19850440457946
N            1.40163610447840       -1.96557546471982       -0.18435757490033
C            0.35892283233657       -1.08980808496670       -0.10482778364730
C            0.91207492394774        0.17879537359163       -0.08506975750140
C            0.09788292934065        1.37895135970950       -0.05072656769602
O            0.51423340424227        2.51182157681641       -0.09218333411722
N           -1.25491521361928        1.05997049210236        0.00326144072000
C           -2.19625422243550        2.17212784923605        0.03157873820259
C           -1.83259270708364       -0.19694548699000        0.04843764571459
O           -3.01649920390231       -0.35739137420012        0.13132673525100
N           -0.96125539006216       -1.31227943262018       -0.01176458780617
C           -1.52232723428728       -2.64714453349902        0.06238549958160
H            3.15251900690913        1.41695349972567        1.19587983592293
H            4.16208247658681        0.92770560941636       -0.27696005386233
H            2.80002828990741        2.04152668950773       -0.34501378023378
H            3.53158343036471       -1.68179543040795       -0.24511967124689
H           -1.62172049213646        3.09507560136820        0.00913122247861
H           -2.85896621099835        2.11998005942671       -0.83106017472191
H           -2.79912592276400        2.12306984754819        0.93699720694970
H           -1.12003060602681       -3.17926026932617        0.92533389495450
H           -1.31786573932732       -3.20374896138660       -0.85215396278411
H           -2.60008558329253       -2.54184926403401        0.18163088540522
H            1.34412300559762       -2.97424130887486       -0.19743058816255
25
 energy: -42.241736275561 gnorm: 0.055969967353 xtb: 6.6.1 (8d0f1dd)
C            3.15028349153425        1.15978440328649        0.04155089420828
N            2.27273747288172        0.05978415874044       -0.11872670918752
C            2.55516384764669       -1.23495346995554       -0.16192330569115
N            1.40387379366899       -1.95494955212423       -0.16480832444633
C            0.35809625851549       -1.08081902551936       -0.09182235700407
C            0.90604309993927        0.19029584607287       -0.07555825400951
C            0.08696221963910        1.38635557543905       -0.05741476780158
O            0.49950450083179        2.52038664895892       -0.08890767883092
N           -1.26412529293824        1.06182056267059        0.00026528735742
C           -2.20716123364732        2.17189345014684        0.03057968575772
C           -1.83780505526631       -0.19676089482866        0.04478095397830
O           -3.02126796123031       -0.36125297620743        0.12617432521298
N           -0.96235327744834       -1.30898662506782       -0.01281858932930
C           -1.52103096592354       -2.64526560283159        0.05874726660369
H            3.25141611201432        1.27685942836953        1.16258496297105
H            4.17721536687827        0.93106619298075       -0.18774254844117
H            2.77805505269608        2.05901779998740       -0.41010657400235
H            3.53472685151491       -1.66603324110618       -0.22299808860763
H           -1.63402992921356        3.09590335923506        0.00762445895029
H           -2.86971111112245        2.11739962840456       -0.83203372820371
H           -2.80937712852217        2.12121160137500        0.93647288823677
H           -1.12111812520166       -3.17721890997571        0.92275031032850
H           -1.31396480674930       -3.20190878544829       -0.85522534326729
H           -2.59947126403139       -2.54153683705387        0.17435792412115
H            1.34776959764164       -2.96385419396866       -0.19463107100086
25
 energy: -42.246397397955 gnorm: 0.023460703858 xtb: 6.6.1 (8d0f1dd)
C            3.17599292665096        1.13985684720086        0.08755250344060
N            2.28017902936877        0.05009738026677       -0.10187862618053
C            2.55429808473796       -1.24431394365004       -0.16459588095330
N            1.40124026278906       -1.95885674026330       -0.16912639810484
C            0.35936237699433       -1.08095074005594       -0.09260515388790
C            0.91164311270777        0.18882862650939       -0.06932782423825
C            0.09057681415583        1.38573172883345       -0.05071147792158
O            0.50274120483170        2.51997111539925       -0.07738863476681
N           -1.26167191729159        1.06149788419142        0.00489560442200
C           -2.20769179097830        2.16980476931365        0.03916920709131
C           -1.83635499494346       -0.19656328318191        0.04539993817119
O           -3.01984206464623       -0.36118782727494        0.12646669342072
N           -0.96113544198472       -1.30834885906790       -0.01660504353627
C           -1.52009762225528       -2.64466164148733        0.05100634028151
H            3.19045288362965        1.39075837630499        1.16343396414033
H            4.18113316191037        0.90093967807594       -0.23396510243116
H            2.79702232720797        2.04157399359538       -0.43419618338527
H            3.53290464852666       -1.67719783101497       -0.22627385244354
H           -1.63828744205001        3.09600138009258        0.01837617588703
H           -2.87170660076969        2.11587590432848       -0.82246794948471
H           -2.80978128350386        2.11519913706591        0.94509492090264
H           -1.12043410732801       -3.17940635210606        0.91329733351099
H           -1.31285782840917       -3.19819963289516       -0.86467982643404
H           -2.59855167167190       -2.54110284635580        0.16653605977226
H            1.34129744642601       -2.96710858223806       -0.20623516937115
25
 energy: -42.246178297938 gnorm: 0.022165618310 xtb: 6.6.1 (8d0f1dd)
C            3.17730300887026        1.14383029984098        0.10528568595382
N            2.27163388649027        0.04815572388015       -0.10552597458326
C            2.54731961649506       -1.24314098105470       -0.16723143751790
N            1.39734714806228       -1.95811950303974       -0.16380703531800
C            0.35510266099119       -1.08016162643903       -0.08979924081315
C            0.90722204375574        0.18916762767268       -0.06063356958726
C            0.08513279556272        1.38634332291906       -0.03786819253908
O            0.49648703246854        2.52059454270298       -0.07102131858293
N           -1.26748273026629        1.06028778945364        0.00574668739340
C           -2.21704282008010        2.16634188924356        0.03288153160389
C           -1.84146569219314       -0.19820949789603        0.04240131927755
O           -3.02501798087603       -0.36436013354024        0.11785411773496
N           -0.96482049172693       -1.30897216438133       -0.01884733388416
C           -1.52103331647957       -2.64637933752312        0.04583726164773
H            3.29189414940282        1.42458309109704        1.17323331808253
H            4.17372453808107        0.89698525676064       -0.27376666119273
H            2.81121855503579        2.03052986808740       -0.40113372875120
H            3.52822301946822       -1.67379552346220       -0.21761227766147
H           -1.65124881022783        3.09463968009280        0.01291171186887
H           -2.87795588150494        2.10859149081050       -0.83097356150766
H           -2.82237249449154        2.11097306852482        0.93656619126677
H           -1.12284752084396       -3.18048785144554        0.90923604672993
H           -1.30908038266157       -3.19853858541945       -0.86966646800486
H           -2.60002777425997       -2.54461516540470        0.15739337674288
H            1.33821895503160       -2.96600473989189       -0.20028883045830
25
 energy: -42.246551809482 gnorm: 0.021502841511 xtb: 6.6.1 (8d0f1dd)
C            3.19234511069672        1.14701722858711        0.08894845498034
N            2.27594858058651        0.05432559942144       -0.09348981817083
C            2.54919205608215       -1.23773443837296       -0.15428425129110
N            1.39972962330707       -1.95175488378725       -0.15049230466238
C            0.35824682887516       -1.07291624528330       -0.07788164808593
C            0.91139801972377        0.19641206357808       -0.04361549810712
C            0.08539641530843        1.39205796645162       -0.02660258220222
O            0.49423210273830        2.52682883364795       -0.06320978139696
N           -1.26752265903695        1.06319002822048        0.00930186095642
C           -2.22134515140365        2.16610799283665        0.03184448691871
C           -1.84057557287346       -0.19558564801762        0.04365857909573
O           -3.02423021193798       -0.36365823847359        0.11395719668354
N           -0.96194994853855       -1.30447896879922       -0.01623366400661
C           -1.51755905594295       -2.64266830574334        0.04366371698829
H            3.24020868295057        1.36158481261800        1.16523195311942
H            4.17802379944915        0.88508121036667       -0.32531605796506
H            2.83146010331103        2.02574623473030       -0.41260957426160
H            3.52994258124121       -1.66856548819865       -0.20637739080851
H           -1.65982152296039        3.09685671115419        0.01142139034605
H           -2.88100342227213        2.10370385878274       -0.83278906373759
H           -2.82830196740028        2.10948035800626        0.93447489149640
H           -1.12263159795315       -3.17836749501628        0.90748929597954
H           -1.30277694118718       -3.19329397330810       -0.87218445327358
H           -2.59715008436110       -2.54176402189575        0.15140396182649
H            1.33917574570318       -2.95936664992043       -0.19513808251994
25
 energy: -42.247020032750 gnorm: 0.019122972988 xtb: 6.6.1 (8d0f1dd)
C            3.19700143412312        1.13584746551456        0.06727169456503
N            2.27978370052469        0.05454435378567       -0.07387094015470
C            2.55074393508911       -1.24154538022773       -0.13757780095820
N            1.39777912945021       -1.95340733734932       -0.14753494955623
C            0.35811025470029       -1.07251023926149       -0.07393946000130
C            0.91114424852321        0.19671143503707       -0.03976911049091
C            0.08503132783985        1.39186703754658       -0.02772409517735
O            0.49401034693076        2.52680699688964       -0.05018960169768
N           -1.26757144143267        1.06260988472613        0.01303025820496
C           -2.22144457838583        2.16492136185706        0.04295433040754
C           -1.84083328861566       -0.19602774887688        0.04311483603396
O           -3.02453286601234       -0.36414957326754        0.11298315145015
N           -0.96226458785735       -1.30450932068353       -0.01891916679755
C           -1.51769478502329       -2.64286100502602        0.03395597592066
H            3.24073830613299        1.40970366176229        1.12449659314561
H            4.18872394081416        0.86741254336798       -0.26838396567228
H            2.82025105410545        2.02555834368564       -0.46794946291742
H            3.53040581462770       -1.67277825997354       -0.19852777108965
H           -1.66109312871432        3.09641404000993        0.02427317091025
H           -2.88255989747146        2.10392103374720       -0.82061900045097
H           -2.82716199323941        2.10447876817679        0.94637728912903
H           -1.12401487312248       -3.18298185331669        0.89542978900632
H           -1.30139453956759       -3.18847903677883       -0.88449908719600
H           -2.59745145002254       -2.54253003980529        0.14039780707773
H            1.33472545070713       -2.96077858995117       -0.20360886579048
25
 energy: -42.247433708435 gnorm: 0.007208933504 xtb: 6.6.1 (8d0f1dd)
C            3.19906535296339        1.13889802268617        0.07208004410005
N            2.27556703291453        0.05455468353332       -0.07221656747061
C            2.54764012960850       -1.23983922131222       -0.13594330025818
N            1.39639005146743       -1.95214985238477       -0.14025066951759
C            0.35647346259371       -1.07135574315092       -0.06894823127924
C            0.90917635151597        0.19762361976989       -0.03224174807414
C            0.08257656947902        1.39286500062344       -0.01818145035224
O            0.49102104467728        2.52788728572046       -0.04275546798551
N           -1.27009535915088        1.06248223045475        0.01515032857828
C           -2.22590596435160        2.16345240514632        0.04039352045563
C           -1.84302806921138       -0.19642840779050        0.04185137177991
O           -3.02692446022834       -0.36531993938013        0.10645893304198
N           -0.96362517986509       -1.30425700696669       -0.01836159521412
C           -1.51747790915822       -2.64336252469878        0.02932569118951
H            3.28330607471257        1.41679790573028        1.12787047403559
H            4.18350945457224        0.86287967336354       -0.30052199635604
H            2.82727513319873        2.01932505220599       -0.45975586027024
H            3.52853469068224       -1.66980411044847       -0.19013271764434
H           -1.66745034292981        3.09598600811935        0.02214913311720
H           -2.88468706049146        2.09991695498171       -0.82484587383705
H           -2.83397283180050        2.10292610057418        0.94222016303246
H           -1.12620677265623       -3.18501610109792        0.89093139806143
H           -1.29674799205033       -3.18618947215208       -0.88984483283043
H           -2.59775618146729       -2.54450567249821        0.13168353746171
H            1.33377428907894       -2.95912834943987       -0.19494266586376
