72
 energy: 28.991706068771 xtb: 6.6.1 (8d0f1dd)
N           -1.83099397904592        3.12016393481088        2.14645100497027
C           -1.66305372700253        2.52982101581196        1.04192259111462
C           -2.73696150715561        2.14367635644563        0.05396334155175
C           -3.17492158196748        0.69714696358906        0.15064896978332
C           -4.18637806172855        0.30135403204311       -0.72958730067941
C           -4.84108918251283       -0.90164009727541       -0.60142110932800
O           -5.84822149298383       -1.34609524306608       -1.40757161205211
C           -6.32626974166445       -0.49479986604709       -2.40240564944774
C           -4.48875185817036       -1.77268355212139        0.45567245612266
O           -5.18685872366919       -2.95167505933749        0.51943403991841
C           -4.88179365190134       -3.83968001576543        1.56607469580649
C           -3.48270037300438       -1.38747439723674        1.32203482696844
C           -2.82867158856630       -0.16496156726018        1.17206006715367
C           -2.10538717952439        2.37142316891346       -1.40328310473793
C           -1.15376730735947        1.24054470240405       -1.92468571670566
C            0.15509144560395        1.15010691291727       -1.21363395781619
N            0.73707182809508       -0.04586435533618       -0.74665935219088
C            2.08948334658651       -0.06239868934766       -0.27982406620509
C            3.04848898541594       -0.63638606524858       -1.34391641747484
C            4.46498243044115       -0.51013443901001       -0.88272845539023
C            5.18470809893120        0.64984219032680       -1.10279737331972
C            6.48924306531690        0.77495306937699       -0.64262753776253
C            7.09346860749354       -0.25334966968029        0.05788638453662
O            8.36653637666823       -0.23136077924779        0.54586375522444
C            9.15753398404507        0.90348164506211        0.29745941482057
C            6.36473970302278       -1.43735014657574        0.30455694095236
O            7.03565996890364       -2.39959623153829        1.00260343282037
C            6.38570005326743       -3.61407207648419        1.27113587922002
C            5.06725903410518       -1.54464133521335       -0.16459559367367
C            0.01011017299111       -1.28952140841843       -0.67312943176066
C           -4.23424709134676        2.72427955472786        0.83395313719956
C           -4.45989406371778        2.21272762803971        2.24456057489118
C           -4.07668521789095        4.28671568678027        0.87350442557647
H           -4.48724711833038        0.98360332469560       -1.50091443508893
H           -6.70878860480716        0.43814169469271       -1.97531101917110
H           -7.13569308011316       -1.04284088043859       -2.88508519550390
H           -5.54949235667967       -0.26029045760244       -3.13235677226434
H           -5.05824140187595       -3.37947508113118        2.54064833552948
H           -5.55467961868453       -4.68851569597204        1.45032002736215
H           -3.84206802173465       -4.18973381531047        1.52295352178649
H           -3.19342289825110       -2.03632852449543        2.13592707876711
H           -2.06868437983119        0.11630717288982        1.88478970266659
H           -2.90803207386654        2.49504427532447       -2.12265547115959
H           -1.48039800369722        3.26825943554221       -1.45222823253910
H           -1.64235146306053        0.27265903685902       -1.85766613867595
H           -1.05677476970040        1.48232807895920       -3.00443858457255
H           -0.65928001832000        2.36282423796937        0.63847335242416
H            0.83048388459522        1.96977263145125       -1.28300092044827
H            2.21297151374965       -0.65706338450845        0.63739398476853
H            2.39875928974222        0.95886850076145       -0.05838546703540
H            2.90075323266416       -0.08429021039853       -2.27195481842894
H            2.79513118341565       -1.68344244487230       -1.52730616877331
H            4.73625611209200        1.46094349581981       -1.65422896014252
H            7.03704680199698        1.68233760030810       -0.84205732879152
H            8.72816388305553        1.80092376612511        0.75282074638673
H            9.29990846433292        1.07264334033999       -0.77609734874878
H           10.12300727321260        0.70520101276065        0.75623565904169
H            7.10438156550563       -4.23305090884479        1.80885885422898
H            5.50208304027352       -3.46654517794513        1.90192438087280
H            6.09691650531311       -4.12305604915966        0.34664691320472
H            4.50475127000000       -2.44734368555684        0.01766825641584
H           -0.14749476412516       -1.72425438568529       -1.66744962154391
H           -0.97088927048310       -1.15515681268251       -0.20809979300604
H            0.57124743131423       -2.00079760088367       -0.06305652905981
H           -5.08258377967009        2.44875439754219        0.20134901339000
H           -3.49719702713112        2.17277993872973        2.76792442987247
H           -4.88837281920125        1.22475602652687        2.26541847231000
H           -5.18036385171942        2.89319002731487        2.72188071177965
H           -3.37263749824707        4.57359317732070        1.65604422517940
H           -3.70299985335652        4.69221642569048       -0.05417145936349
H           -4.99104924386831        4.83333515732699        1.04101214501031
H           -0.97059543025624        3.31950479775867        2.64596908800724
