25
 energy: -47.207355804314 gnorm: 4.454498679202 xtb: 6.6.1 (8d0f1dd)
C            3.21786164340000        1.13591514650000        0.01837059260000
N            2.27034809790000        0.05199982890000        0.00038279530000
C            2.54167221030000       -1.23971668410000       -0.00834188300000
N            1.39367826450000       -1.95088267900000       -0.00850347120000
C            0.35269634020000       -1.06748964300000        0.00059917290000
C            0.90759959010000        0.20069750900000        0.00663590170000
C            0.07590235260000        1.39864294500000       -0.00284827040000
O            0.48715076820000        2.53168346660000       -0.01725767220000
N           -1.27221500230000        1.06666939660000        0.00165480230000
C           -2.23229981500000        2.16656245330000       -0.00245172030000
C           -1.84872931540000       -0.19179276200000        0.00496135950000
O           -3.03273030250000       -0.36103538130000        0.00858583760000
N           -0.96599111670000       -1.30060631840000        0.00174701630000
C           -1.52030655580000       -2.64076660390000       -0.00239033190000
H            3.71480285180000        1.18589984860000        0.98803183970000
H            3.97079415090000        0.99383197990000       -0.75543416370000
H            2.68321036910000        2.07051068580000       -0.15067179540000
H            3.52469367910000       -1.66989040330000       -0.01523639120000
H           -1.67672429040000        3.10039111610000        0.00486339690000
H           -2.85755792270000        2.10547813320000       -0.89185337000000
H           -2.87119733260000        2.09858159720000        0.87661144540000
H           -1.20589108080000       -3.18768007210000        0.88663215920000
H           -1.21982032550000       -3.17678505510000       -0.90288069810000
H           -2.60531402170000       -2.54255916880000        0.00649952960000
H            1.32879827740000       -2.95942079410000       -0.01653446370000
25
 energy: -52.470784067551 gnorm: 6.265743605703 xtb: 6.6.1 (8d0f1dd)
C            3.21787326259208        1.13561323139390        0.01841318761716
N            2.26926956723265        0.05075112659235        0.00028530495983
C            2.51720936648139       -1.25452069412516       -0.00952018647307
N            1.10304852738762       -2.08532515710220       -0.12292615599440
C            0.33674391518630       -1.06866926287989       -0.00080787803768
C            0.90790215329089        0.20008355611080        0.00654260886834
C            0.07652736037949        1.39767945240969       -0.00278518829562
O            0.48728001810831        2.53237643449767       -0.01730675966194
N           -1.27267956393356        1.06674924010438        0.00166148139333
C           -2.23217268087171        2.16643234275163       -0.00244078144301
C           -1.84835588129958       -0.19171596593536        0.00498516473642
O           -3.03328643804826       -0.36105097448130        0.00863921637243
N           -0.96909006891222       -1.29805156501397        0.00335614790252
C           -1.51766431958961       -2.63682487320593        0.00246740708642
H            3.71484526786398        1.18593264807679        0.98798069275685
H            3.97078453742766        0.99383270702823       -0.75553275887422
H            2.68322752396956        2.07049413922725       -0.15074987784415
H            3.52315564145180       -1.67031670541582       -0.01508845683422
H           -1.67669963774235        3.10043405184747        0.00484816235819
H           -2.85763891672720        2.10545712797731       -0.89186432383758
H           -2.87124849659959        2.09858671903350        0.87666285067182
H           -1.20597298489442       -3.18733231426710        0.88712481825945
H           -0.87481624566496       -3.01740680356788       -0.78973681350542
H           -2.60532722055466       -2.54359185318561        0.00481030214737
H            1.31751682756640       -2.97137806627075       -0.01784654642879
25
 energy: -59.644070791663 gnorm: 8.279166706227 xtb: 6.6.1 (8d0f1dd)
C            3.21776809788887        1.13509449572585        0.01838725284823
N            2.26776637923584        0.04818598030839        0.00016402913697
C            2.49504557858080       -1.26827177031056       -0.01113751430083
N            0.80976110664561       -2.21923744449206       -0.23774255792679
C            0.32020118023311       -1.06822684484038       -0.00184335357916
C            0.90802327272730        0.19971169656482        0.00650542006493
C            0.07701442775109        1.39675535048037       -0.00272529955276
O            0.48736029199444        2.53280065149403       -0.01737792666610
N           -1.27310407719933        1.06688527409371        0.00164348355422
C           -2.23207167502747        2.16633068659830       -0.00243027678046
C           -1.84824219539871       -0.19157649557819        0.00518314083435
O           -3.03390145422534       -0.36100122707158        0.00874719969482
N           -0.97348645046831       -1.29368095120457        0.00560394551149
C           -1.51409594106938       -2.63322486203570        0.00653094822448
H            3.71489651541480        1.18595601613177        0.98788011890511
H            3.97077468229632        0.99380672826374       -0.75568397153085
H            2.68317218816448        2.07044078856630       -0.15087178833647
H            3.52114561866311       -1.67081581886387       -0.01511758899365
H           -1.67668971496413        3.10047185675981        0.00482732130418
H           -2.85773026438988        2.10542360738116       -0.89185274092762
H           -2.87128651935656        2.09859281025570        0.87672685346783
H           -1.20620680822850       -3.18694281170849        0.88811538856773
H           -0.52986992174060       -2.85750671965414       -0.67706080737931
H           -2.60487811175561       -2.54486023394176        0.00265756731174
H            1.30906530832806       -2.98687222132264       -0.01795722555210
25
 energy: -68.787165389276 gnorm: 9.775431550763 xtb: 6.6.1 (8d0f1dd)
C            3.21765162190534        1.13479889390052        0.01813236180513
N            2.26694906116405        0.04522675701688       -0.00007372080183
C            2.47956267123521       -1.27761890464503       -0.01224785788096
N            0.50997137654534       -2.36136462434769       -0.35015143528901
C            0.30706518554601       -1.06833005466475       -0.00240055464232
C            0.90804620389338        0.19930865711910        0.00647881299231
C            0.07740795970487        1.39584672785872       -0.00271602665520
O            0.48736076199165        2.53311139308556       -0.01755605050572
N           -1.27353696245331        1.06707007743868        0.00161381102041
C           -2.23200909956996        2.16619418758919       -0.00242806882120
C           -1.84826975603482       -0.19147911017988        0.00549225470143
O           -3.03463437398692       -0.36094404768694        0.00896826456272
N           -0.97940588822080       -1.28851546577129        0.00823874959516
C           -1.51008337208002       -2.62999647723709        0.00941739780618
H            3.71493739460362        1.18606801125312        0.98760755392399
H            3.97072447443089        0.99382954408714       -0.75600175154661
H            2.68305890316921        2.07044679402931       -0.15116408611224
H            3.51971010112709       -1.67090076236121       -0.01528397530992
H           -1.67674877833092        3.10048021637299        0.00474838487999
H           -2.85789551674916        2.10529665229206       -0.89182363260411
H           -2.87133905180849        2.09856984137698        0.87680872604107
H           -1.20635665048914       -3.18666114386900        0.88913975301356
H           -0.19088271101608       -2.69880803803718       -0.56699339051660
H           -2.60433185400888       -2.54601250884134        0.00083984004397
H            1.30347981353182       -2.99737807417885       -0.01747374180022
25
 energy: -38.585765043364 gnorm: 506.665515919774 xtb: 6.6.1 (8d0f1dd)
C            3.21744690306334        1.13471883500482        0.01741410859390
N            2.26710628295579        0.04265363656513       -0.00053207326002
C            2.46722074112234       -1.28467008276252       -0.01280904668120
N            0.20927167055639       -2.50909429671896       -0.45594315670363
C            0.29690738191809       -1.07026821487731       -0.00354486660331
C            0.90796008586457        0.19809296395906        0.00627198779583
C            0.07766250032048        1.39510369948212       -0.00277118177510
O            0.48725044106639        2.53327028501490       -0.01801521652605
N           -1.27397286962343        1.06718231411678        0.00163512480336
C           -2.23202218889768        2.16599510054600       -0.00237544879079
C           -1.84862807047288       -0.19133922913816        0.00589379841227
O           -3.03544476527348       -0.36089602761697        0.00953797984958
N           -0.98596365354081       -1.28438901333179        0.01066604358653
C           -1.51047506801655       -2.62605141908926        0.01405277745311
H            3.71503988043225        1.18636398394264        0.98684413028690
H            3.97056430933599        0.99390195818399       -0.75680729861078
H            2.68290284550701        2.07053713931671       -0.15191792516268
H            3.51875194600171       -1.67054686011118       -0.01560083080559
H           -1.67690173417478        3.10043373107204        0.00457596109311
H           -2.85821330830681        2.10500401970237       -0.89167594493615
H           -2.87136192188731        2.09853645348464        0.87700541910784
H           -1.20603455236278       -3.18662819443507        0.88988669186237
H            0.14896264621246       -2.53923577385571       -0.46220989000835
H           -2.60415646138033       -2.54687906370775        0.00015153131995
H            1.29655847368001       -3.00355740314652       -0.01856105640108
