      -----------------------------------------------------------      
     |                   =====================                   |     
     |                           x T B                           |     
     |                   =====================                   |     
     |                         S. Grimme                         |     
     |          Mulliken Center for Theoretical Chemistry        |     
     |                    University of Bonn                     |     
      -----------------------------------------------------------      

   * xtb version 6.6.1 (8d0f1dd) compiled by 'conda@1efc2f54142f' on 2023-08-01

   xtb is free software: you can redistribute it and/or modify it under
   the terms of the GNU Lesser General Public License as published by
   the Free Software Foundation, either version 3 of the License, or
   (at your option) any later version.
   
   xtb is distributed in the hope that it will be useful,
   but WITHOUT ANY WARRANTY; without even the implied warranty of
   MERCHANTABILITY or FITNESS FOR A PARTICULAR PURPOSE.  See the
   GNU Lesser General Public License for more details.
   
   Cite this work as:
   * C. Bannwarth, E. Caldeweyher, S. Ehlert, A. Hansen, P. Pracht,
     J. Seibert, S. Spicher, S. Grimme, WIREs Comput. Mol. Sci., 2020, 11,
     e01493. DOI: 10.1002/wcms.1493
   
   for GFN2-xTB:
   * C. Bannwarth, S. Ehlert and S. Grimme., J. Chem. Theory Comput., 2019,
     15, 1652-1671. DOI: 10.1021/acs.jctc.8b01176
   for GFN1-xTB:
   * S. Grimme, C. Bannwarth, P. Shushkov, J. Chem. Theory Comput., 2017,
     13, 1989-2009. DOI: 10.1021/acs.jctc.7b00118
   for GFN0-xTB:
   * P. Pracht, E. Caldeweyher, S. Ehlert, S. Grimme, ChemRxiv, 2019, preprint.
     DOI: 10.26434/chemrxiv.8326202.v1
   for GFN-FF:
   * S. Spicher and S. Grimme, Angew. Chem. Int. Ed., 2020, 59, 15665-15673.
     DOI: 10.1002/anie.202004239
   
   for ALPB and GBSA implicit solvation:
   * S. Ehlert, M. Stahn, S. Spicher, S. Grimme, J. Chem. Theory Comput.,
     2021, 17, 4250-4261. DOI: 10.1021/acs.jctc.1c00471
   
   for DFT-D4:
   * E. Caldeweyher, C. Bannwarth and S. Grimme, J. Chem. Phys., 2017,
     147, 034112. DOI: 10.1063/1.4993215
   * E. Caldeweyher, S. Ehlert, A. Hansen, H. Neugebauer, S. Spicher,
     C. Bannwarth and S. Grimme, J. Chem. Phys., 2019, 150, 154122.
     DOI: 10.1063/1.5090222
   * E. Caldeweyher, J.-M. Mewes, S. Ehlert and S. Grimme, Phys. Chem. Chem. Phys.
     2020, 22, 8499-8512. DOI: 10.1039/D0CP00502A
   
   for sTDA-xTB:
   * S. Grimme and C. Bannwarth, J. Chem. Phys., 2016, 145, 054103.
     DOI: 10.1063/1.4959605
   
   in the mass-spec context:
   * V. Asgeirsson, C. Bauer and S. Grimme, Chem. Sci., 2017, 8, 4879.
     DOI: 10.1039/c7sc00601b
   * J. Koopman and S. Grimme, ACS Omega 2019, 4, 12, 15120-15133.
     DOI: 10.1021/acsomega.9b02011
   
   for metadynamics refer to:
   * S. Grimme, J. Chem. Theory Comput., 2019, 155, 2847-2862
     DOI: 10.1021/acs.jctc.9b00143
   
   for SPH calculations refer to:
   * S. Spicher and S. Grimme, J. Chem. Theory Comput., 2021, 17, 1701-1714
     DOI: 10.1021/acs.jctc.0c01306
   
   with help from (in alphabetical order)
   P. Atkinson, C. Bannwarth, F. Bohle, G. Brandenburg, E. Caldeweyher
   M. Checinski, S. Dohm, S. Ehlert, S. Ehrlich, I. Gerasimov, C. Hölzer
   A. Katbashev, J. Koopman, C. Lavigne, S. Lehtola, F. März, M. Müller,
   F. Musil, H. Neugebauer, J. Pisarek, C. Plett, P. Pracht, F. Pultar,
   J. Seibert, P. Shushkov, S. Spicher, M. Stahn, M. Steiner, T. Strunk,
   J. Stückrath, T. Rose, and J. Unsleber
   
 * started run on 2024/04/06 at 11:13:32.546     

           -------------------------------------------------
          |                Calculation Setup                |
           -------------------------------------------------

          program call               : xtb struc.xyz --opt loose --input .xc1 --gfn2
          hostname                   : n-62-30-23
          coordinate file            : struc.xyz
          omp threads                :                     1

   ID    Z sym.   atoms
    1    7 N      1, 17
    2    6 C      2-6, 8, 9, 11-16, 18-23, 25, 26, 28-33
    3    8 O      7, 10, 24, 27
    4    1 H      34-72
constraining bond 18 21 to    6.0000000 Å, actual value:    3.2847275 Å

           -------------------------------------------------
          |                 G F N 2 - x T B                 |
           -------------------------------------------------

        Reference                      10.1021/acs.jctc.8b01176
      * Hamiltonian:
        H0-scaling (s, p, d)           1.850000    2.230000    2.230000
        zeta-weighting                 0.500000
      * Dispersion:
        s8                             2.700000
        a1                             0.520000
        a2                             5.000000
        s9                             5.000000
      * Repulsion:
        kExp                           1.500000    1.000000
        rExp                           1.000000
      * Coulomb:
        alpha                          2.000000
        third order                    shell-resolved
        anisotropic                    true
        a3                             3.000000
        a5                             4.000000
        cn-shift                       1.200000
        cn-exp                         4.000000
        max-rad                        5.000000


          ...................................................
          :                      SETUP                      :
          :.................................................:
          :  # basis functions                 171          :
          :  # atomic orbitals                 171          :
          :  # shells                          105          :
          :  # electrons                       180          :
          :  max. iterations                   250          :
          :  Hamiltonian                  GFN2-xTB          :
          :  restarted?                      false          :
          :  GBSA solvation                  false          :
          :  PC potential                    false          :
          :  electronic temp.         5000.0000000     K    :
          :  accuracy                    1.0000000          :
          :  -> integral cutoff          0.2500000E+02      :
          :  -> integral neglect         0.1000000E-07      :
          :  -> SCF convergence          0.1000000E-05 Eh   :
          :  -> wf. convergence          0.1000000E-03 e    :
          :  Broyden damping             0.4000000          :
          ...................................................

 iter      E             dE          RMSdq      gap      omega  full diag
   1   -100.5973919 -0.100597E+03  0.374E+00    3.20       0.0  T
   2   -100.7362642 -0.138872E+00  0.221E+00    1.08       1.0  T
   3   -100.7049001  0.313641E-01  0.141E+00    3.29       1.0  T
   4   -100.7721690 -0.672689E-01  0.526E-01    1.50       1.0  T
   5   -100.7894292 -0.172602E-01  0.190E-01    1.98       1.0  T
   6   -100.7911978 -0.176856E-02  0.792E-02    1.77       1.0  T
   7   -100.7914750 -0.277198E-03  0.375E-02    1.83       1.0  T
   8   -100.7914914 -0.164582E-04  0.140E-02    1.83       1.0  T
   9   -100.7914976 -0.616739E-05  0.474E-03    1.82       2.5  T
  10   -100.7914988 -0.118227E-05  0.172E-03    1.82       6.8  T
  11   -100.7914989 -0.139928E-06  0.766E-04    1.82      15.4  T
  12   -100.7914989 -0.773143E-08  0.318E-04    1.82      37.0  T

   *** convergence criteria satisfied after 12 iterations ***

         #    Occupation            Energy/Eh            Energy/eV
      -------------------------------------------------------------
         1        2.0000           -0.8078051             -21.9815
       ...           ...                  ...                  ...
        84        1.9966           -0.5157491             -14.0342
        85        1.9959           -0.5128261             -13.9547
        86        1.9840           -0.4911498             -13.3649
        87        1.9795           -0.4872543             -13.2589
        88        1.9640           -0.4782114             -13.0128
        89        1.8920           -0.4602041             -12.5228
        90        1.8557           -0.4553147             -12.3897 (HOMO)
        91        0.3166           -0.3884132             -10.5693 (LUMO)
        92        0.0218           -0.3434697              -9.3463
        93        0.0041           -0.3169887              -8.6257
        94        0.0034           -0.3139726              -8.5436
        95        0.0029           -0.3112618              -8.4699
       ...           ...                  ...                  ...
       171                          0.5822580              15.8440
      -------------------------------------------------------------
                  HL-Gap            0.0669015 Eh            1.8205 eV
             Fermi-level           -0.4148687 Eh          -11.2892 eV

 SCC (total)                   0 d,  0 h,  0 min,  0.189 sec
 SCC setup                      ...        0 min,  0.001 sec (  0.508%)
 Dispersion                     ...        0 min,  0.002 sec (  0.919%)
 classical contributions        ...        0 min,  0.000 sec (  0.227%)
 integral evaluation            ...        0 min,  0.018 sec (  9.502%)
 iterations                     ...        0 min,  0.097 sec ( 51.390%)
 molecular gradient             ...        0 min,  0.070 sec ( 37.114%)
 printout                       ...        0 min,  0.001 sec (  0.333%)

         :::::::::::::::::::::::::::::::::::::::::::::::::::::
         ::                     SUMMARY                     ::
         :::::::::::::::::::::::::::::::::::::::::::::::::::::
         :: total energy             -98.087710868593 Eh    ::
         :: gradient norm              0.728520346934 Eh/a0 ::
         :: HOMO-LUMO gap              1.820481192090 eV    ::
         ::.................................................::
         :: SCC energy              -100.791498925389 Eh    ::
         :: -> isotropic ES            0.109302908418 Eh    ::
         :: -> anisotropic ES          0.005415138735 Eh    ::
         :: -> anisotropic XC          0.042392697176 Eh    ::
         :: -> dispersion             -0.075527661009 Eh    ::
         :: repulsion energy           1.386151658689 Eh    ::
         :: add. restraining           1.316420045601 Eh    ::
         :: total charge               1.000000000108 e     ::
         :::::::::::::::::::::::::::::::::::::::::::::::::::::

      ----------------------------------------------------------- 
     |                   =====================                   |
     |                        A N C O P T                        |
     |                   =====================                   |
     |               Approximate Normal Coordinate               |
     |                Rational Function Optimizer                |
      ----------------------------------------------------------- 

          ...................................................
          :                      SETUP                      :
          :.................................................:
          :   optimization level             loose          :
          :   max. optcycles                   200          :
          :   ANC micro-cycles                  20          :
          :   degrees of freedom               210          :
          :.................................................:
          :   RF solver                   davidson          :
          :   write xtbopt.log                true          :
          :   linear?                        false          :
          :   energy convergence         0.5000000E-04 Eh   :
          :   grad. convergence          0.4000000E-02 Eh/α :
          :   maxmium RF displ.          1.0000000          :
          :   Hlow (freq-cutoff)         0.1000000E-01      :
          :   Hmax (freq-cutoff)         5.0000000          :
          :   S6 in model hess.         20.0000000          :
          ...................................................

generating ANC from model Hessian ...
Using Lindh-Hessian (1995)
 Shifting diagonal of input Hessian by    4.9967733246257445E-002
 Lowest  eigenvalues of input Hessian
    0.010000    0.034734    0.000000    0.000000    0.000000    0.000000
    0.000000    0.000000    0.050067    0.050111    0.050276    0.050299
    0.050504    0.050682    0.051011    0.051290    0.051452    0.052293
 Highest eigenvalues
    2.074625    2.085926    2.102726    2.219411    2.226194    2.227023


........................................................................
.............................. CYCLE    1 ..............................
........................................................................

 iter      E             dE          RMSdq      gap      omega  full diag
   1   -100.7914989 -0.100791E+03  0.114E-04    1.82       0.0  T
   2   -100.7914989 -0.678995E-10  0.713E-05    1.82     165.2  T
   3   -100.7914989  0.665210E-10  0.496E-05    1.82     237.5  T
     SCC iter.                  ...        0 min,  0.026 sec
     gradient                   ...        0 min,  0.071 sec
 * total energy  :   -98.0877109 Eh     change       -0.4035485E-08 Eh
   gradient norm :     0.7285214 Eh/α   predicted     0.0000000E+00 (-100.00%)
   displ. norm   :     0.6812209 α      lambda       -0.4324389E+00
   maximum displ.:     0.1804554 α      in ANC's #149, #146, #122, ...

........................................................................
.............................. CYCLE    2 ..............................
........................................................................

 iter      E             dE          RMSdq      gap      omega  full diag
   1   -100.7490870 -0.100749E+03  0.489E-01    1.69       0.0  T
   2   -100.7502860 -0.119900E-02  0.328E-01    1.72       1.0  T
   3   -100.7495498  0.736271E-03  0.180E-01    1.68       1.0  T
   4   -100.7511545 -0.160477E-02  0.410E-02    1.72       1.0  T
   5   -100.7512597 -0.105187E-03  0.136E-02    1.69       1.0  T
   6   -100.7512725 -0.127678E-04  0.644E-03    1.71       1.8  T
   7   -100.7512747 -0.223069E-05  0.293E-03    1.70       4.0  T
   8   -100.7512749 -0.193267E-06  0.802E-04    1.70      14.7  T
   9   -100.7512749 -0.335001E-07  0.371E-04    1.70      31.8  T
     SCC iter.                  ...        0 min,  0.073 sec
     gradient                   ...        0 min,  0.069 sec
 * total energy  :   -98.4409406 Eh     change       -0.3532297E+00 Eh
   gradient norm :     0.4303286 Eh/α   predicted    -0.3165996E+00 ( -10.37%)
   displ. norm   :     0.7310202 α      lambda       -0.2797666E+00
   maximum displ.:     0.1996429 α      in ANC's #42, #1, #57, ...

........................................................................
.............................. CYCLE    3 ..............................
........................................................................

 iter      E             dE          RMSdq      gap      omega  full diag
   1   -100.6418840 -0.100642E+03  0.453E-01    1.49       0.0  T
   2   -100.6423706 -0.486532E-03  0.300E-01    1.62       1.0  T
   3   -100.6400578  0.231278E-02  0.211E-01    1.40       1.0  T
   4   -100.6430403 -0.298249E-02  0.771E-02    1.63       1.0  T
   5   -100.6436474 -0.607145E-03  0.245E-02    1.53       1.0  T
   6   -100.6436988 -0.513324E-04  0.770E-03    1.55       1.5  T
   7   -100.6437012 -0.243106E-05  0.383E-03    1.55       3.1  T
   8   -100.6437014 -0.157516E-06  0.176E-03    1.55       6.7  T
   9   -100.6437015 -0.173472E-06  0.441E-04    1.55      26.7  T
  10   -100.6437015 -0.315062E-08  0.217E-04    1.55      54.3  T
     SCC iter.                  ...        0 min,  0.081 sec
     gradient                   ...        0 min,  0.069 sec
 * total energy  :   -98.6629497 Eh     change       -0.2220091E+00 Eh
   gradient norm :     0.2470042 Eh/α   predicted    -0.2146383E+00 (  -3.32%)
   displ. norm   :     0.7777893 α      lambda       -0.1728131E+00
   maximum displ.:     0.2973752 α      in ANC's #42, #1, #57, ...

........................................................................
.............................. CYCLE    4 ..............................
........................................................................

 iter      E             dE          RMSdq      gap      omega  full diag
   1   -100.5351831 -0.100535E+03  0.359E-01    1.28       0.0  T
   2   -100.5351897 -0.654921E-05  0.250E-01    1.43       1.0  T
   3   -100.5354944 -0.304736E-03  0.178E-01    1.28       1.0  T
   4   -100.5368301 -0.133568E-02  0.540E-02    1.40       1.0  T
   5   -100.5371336 -0.303566E-03  0.237E-02    1.34       1.0  T
   6   -100.5371965 -0.628995E-04  0.704E-03    1.36       1.7  T
   7   -100.5371972 -0.692032E-06  0.488E-03    1.35       2.4  T
   8   -100.5371981 -0.844871E-06  0.215E-03    1.36       5.5  T
   9   -100.5371984 -0.364055E-06  0.640E-04    1.36      18.4  T
  10   -100.5371985 -0.175219E-07  0.323E-04    1.36      36.5  T
     SCC iter.                  ...        0 min,  0.081 sec
     gradient                   ...        0 min,  0.069 sec
 * total energy  :   -98.8069803 Eh     change       -0.1440307E+00 Eh
   gradient norm :     0.1834707 Eh/α   predicted    -0.1386790E+00 (  -3.72%)
   displ. norm   :     0.7977876 α      lambda       -0.1289664E+00
   maximum displ.:     0.3429502 α      in ANC's #42, #54, #36, ...

........................................................................
.............................. CYCLE    5 ..............................
........................................................................

 iter      E             dE          RMSdq      gap      omega  full diag
   1   -100.4786167 -0.100479E+03  0.301E-01    0.92       0.0  T
   2   -100.4741971  0.441964E-02  0.318E-01    1.28       1.0  T
   3   -100.4833575 -0.916042E-02  0.140E-01    1.02       1.0  T
   4   -100.4828684  0.489081E-03  0.998E-02    1.10       1.0  T
   5   -100.4837268 -0.858390E-03  0.356E-02    1.06       1.0  T
   6   -100.4838497 -0.122859E-03  0.133E-02    1.07       1.0  T
   7   -100.4838617 -0.119887E-04  0.611E-03    1.06       1.9  T
   8   -100.4838623 -0.688137E-06  0.413E-03    1.07       2.9  T
   9   -100.4838637 -0.135811E-05  0.116E-03    1.07      10.1  T
  10   -100.4838638 -0.561550E-07  0.525E-04    1.07      22.5  T
  11   -100.4838638 -0.576927E-08  0.238E-04    1.07      49.6  T
     SCC iter.                  ...        0 min,  0.088 sec
     gradient                   ...        0 min,  0.070 sec
 * total energy  :   -98.9177315 Eh     change       -0.1107512E+00 Eh
   gradient norm :     0.1529196 Eh/α   predicted    -0.1055245E+00 (  -4.72%)
   displ. norm   :     0.8147900 α      lambda       -0.1042747E+00
   maximum displ.:     0.3401963 α      in ANC's #42, #36, #1, ...

........................................................................
.............................. CYCLE    6 ..............................
........................................................................

 iter      E             dE          RMSdq      gap      omega  full diag
   1   -100.4496114 -0.100450E+03  0.339E-01    0.67       0.0  T
   2   -100.4398626  0.974888E-02  0.403E-01    0.88       1.0  T
   3   -100.4552761 -0.154135E-01  0.159E-01    0.73       1.0  T
   4   -100.4507006  0.457551E-02  0.190E-01    0.81       1.0  T
   5   -100.4559751 -0.527452E-02  0.323E-02    0.77       1.0  T
   6   -100.4560538 -0.787138E-04  0.167E-02    0.75       1.0  T
   7   -100.4560669 -0.130229E-04  0.594E-03    0.75       2.0  T
   8   -100.4560655  0.139638E-05  0.589E-03    0.75       2.0  T
   9   -100.4560693 -0.384319E-05  0.201E-03    0.75       5.9  T
  10   -100.4560696 -0.341370E-06  0.623E-04    0.75      18.9  T
  11   -100.4560697 -0.104760E-07  0.379E-04    0.75      31.1  T
     SCC iter.                  ...        0 min,  0.089 sec
     gradient                   ...        0 min,  0.069 sec
 * total energy  :   -99.0083732 Eh     change       -0.9064169E-01 Eh
   gradient norm :     0.1453324 Eh/α   predicted    -0.8675086E-01 (  -4.29%)
   displ. norm   :     0.8051674 α      lambda       -0.8930574E-01
   maximum displ.:     0.3137205 α      in ANC's #42, #36, #57, ...

........................................................................
.............................. CYCLE    7 ..............................
........................................................................

 iter      E             dE          RMSdq      gap      omega  full diag
   1   -100.4717970 -0.100472E+03  0.437E-01    0.75       0.0  T
   2   -100.4270715  0.447255E-01  0.685E-01    0.48       1.0  T
   3   -100.4820932 -0.550218E-01  0.191E-01    0.64       1.0  T
   4   -100.4799225  0.217078E-02  0.185E-01    0.54       1.0  T
   5   -100.4839291 -0.400663E-02  0.202E-02    0.57       1.0  T
   6   -100.4839407 -0.116125E-04  0.116E-02    0.57       1.0  T
   7   -100.4839468 -0.607375E-05  0.626E-03    0.57       1.9  T
   8   -100.4839495 -0.277199E-05  0.334E-03    0.58       3.5  T
   9   -100.4839504 -0.878020E-06  0.137E-03    0.58       8.6  T
  10   -100.4839505 -0.747693E-07  0.863E-04    0.58      13.6  T
  11   -100.4839505 -0.401545E-07  0.475E-04    0.58      24.8  T
     SCC iter.                  ...        0 min,  0.089 sec
     gradient                   ...        0 min,  0.075 sec
 * total energy  :   -99.0812310 Eh     change       -0.7285781E-01 Eh
   gradient norm :     0.1418370 Eh/α   predicted    -0.7360151E-01 (   1.02%)
   displ. norm   :     0.7211297 α      lambda       -0.6654029E-01
   maximum displ.:     0.2395791 α      in ANC's #42, #36, #35, ...

........................................................................
.............................. CYCLE    8 ..............................
........................................................................

 iter      E             dE          RMSdq      gap      omega  full diag
   1   -100.4983467 -0.100498E+03  0.446E-01    0.79       0.0  T
   2   -100.4768413  0.215054E-01  0.536E-01    0.24       1.0  T
   3   -100.5027104 -0.258692E-01  0.234E-01    0.76       1.0  T
   4   -100.4983893  0.432108E-02  0.236E-01    0.45       1.0  T
   5   -100.5065428 -0.815350E-02  0.421E-02    0.61       1.0  T
   6   -100.5066600 -0.117175E-03  0.155E-02    0.61       1.0  T
   7   -100.5066914 -0.313867E-04  0.717E-03    0.59       1.6  T
   8   -100.5066945 -0.313366E-05  0.413E-03    0.59       2.9  T
   9   -100.5066949 -0.377079E-06  0.203E-03    0.59       5.8  T
  10   -100.5066953 -0.398735E-06  0.643E-04    0.59      18.3  T
  11   -100.5066953 -0.173664E-07  0.317E-04    0.59      37.2  T
     SCC iter.                  ...        0 min,  0.089 sec
     gradient                   ...        0 min,  0.069 sec
 * total energy  :   -99.1320475 Eh     change       -0.5081653E-01 Eh
   gradient norm :     0.1272348 Eh/α   predicted    -0.5057155E-01 (  -0.48%)
   displ. norm   :     0.6817167 α      lambda       -0.5262570E-01
   maximum displ.:     0.2378819 α      in ANC's #36, #42, #35, ...

........................................................................
.............................. CYCLE    9 ..............................
........................................................................

 iter      E             dE          RMSdq      gap      omega  full diag
   1   -100.5812259 -0.100581E+03  0.416E-01    0.93       0.0  T
   2   -100.5651086  0.161172E-01  0.419E-01    0.33       1.0  T
   3   -100.5785221 -0.134135E-01  0.287E-01    1.00       1.0  T
   4   -100.5842628 -0.574073E-02  0.143E-01    0.68       1.0  T
   5   -100.5862793 -0.201650E-02  0.326E-02    0.74       1.0  T
   6   -100.5863590 -0.797248E-04  0.107E-02    0.74       1.1  T
   7   -100.5863683 -0.922744E-05  0.634E-03    0.73       1.9  T
   8   -100.5863703 -0.199827E-05  0.204E-03    0.73       5.8  T
   9   -100.5863702  0.572320E-07  0.130E-03    0.73       9.1  T
  10   -100.5863704 -0.173564E-06  0.368E-04    0.73      32.0  T
  11   -100.5863704 -0.213058E-08  0.218E-04    0.73      54.2  T
     SCC iter.                  ...        0 min,  0.089 sec
     gradient                   ...        0 min,  0.069 sec
 * total energy  :   -99.1732175 Eh     change       -0.4117002E-01 Eh
   gradient norm :     0.1670262 Eh/α   predicted    -0.3854144E-01 (  -6.38%)
   displ. norm   :     0.6732612 α      lambda       -0.5462667E-01
   maximum displ.:     0.2518634 α      in ANC's #36, #35, #122, ...

........................................................................
.............................. CYCLE   10 ..............................
........................................................................

 iter      E             dE          RMSdq      gap      omega  full diag
   1   -100.6173226 -0.100617E+03  0.371E-01    0.90       0.0  T
   2   -100.6142212  0.310134E-02  0.262E-01    0.62       1.0  T
   3   -100.6098905  0.433073E-02  0.291E-01    1.11       1.0  T
   4   -100.6178190 -0.792849E-02  0.934E-02    0.74       1.0  T
   5   -100.6187612 -0.942202E-03  0.211E-02    0.82       1.0  T
   6   -100.6187991 -0.379022E-04  0.710E-03    0.81       1.7  T
   7   -100.6188016 -0.253759E-05  0.420E-03    0.81       2.8  T
   8   -100.6188025 -0.825682E-06  0.178E-03    0.81       6.6  T
   9   -100.6188026 -0.132527E-06  0.746E-04    0.81      15.8  T
  10   -100.6188026 -0.409570E-07  0.257E-04    0.81      45.9  T
     SCC iter.                  ...        0 min,  0.081 sec
     gradient                   ...        0 min,  0.069 sec
 * total energy  :   -99.2160027 Eh     change       -0.4278516E-01 Eh
   gradient norm :     0.1419743 Eh/α   predicted    -0.3969397E-01 (  -7.22%)
   displ. norm   :     0.6099898 α      lambda       -0.4169245E-01
   maximum displ.:     0.2599963 α      in ANC's #36, #35, #55, ...

........................................................................
.............................. CYCLE   11 ..............................
........................................................................

 iter      E             dE          RMSdq      gap      omega  full diag
   1   -100.6452463 -0.100645E+03  0.266E-01    0.87       0.0  T
   2   -100.6445187  0.727602E-03  0.193E-01    0.77       1.0  T
   3   -100.6438810  0.637631E-03  0.166E-01    0.95       1.0  T
   4   -100.6451710 -0.129001E-02  0.857E-02    0.75       1.0  T
   5   -100.6459961 -0.825039E-03  0.196E-02    0.85       1.0  T
   6   -100.6460322 -0.361512E-04  0.496E-03    0.83       2.4  T
   7   -100.6460333 -0.109577E-05  0.257E-03    0.84       4.6  T
   8   -100.6460334 -0.984066E-07  0.112E-03    0.84      10.5  T
   9   -100.6460335 -0.627608E-07  0.553E-04    0.84      21.3  T
  10   -100.6460335 -0.230624E-07  0.208E-04    0.84      56.5  T
     SCC iter.                  ...        0 min,  0.081 sec
     gradient                   ...        0 min,  0.075 sec
 * total energy  :   -99.2471960 Eh     change       -0.3119328E-01 Eh
   gradient norm :     0.1018075 Eh/α   predicted    -0.2860285E-01 (  -8.30%)
   displ. norm   :     0.5900100 α      lambda       -0.3191901E-01
   maximum displ.:     0.2615663 α      in ANC's #36, #55, #35, ...

........................................................................
.............................. CYCLE   12 ..............................
........................................................................

 iter      E             dE          RMSdq      gap      omega  full diag
   1   -100.6583794 -0.100658E+03  0.172E-01    0.84       0.0  T
   2   -100.6583680  0.114399E-04  0.121E-01    0.84       1.0  T
   3   -100.6579831  0.384907E-03  0.999E-02    0.84       1.0  T
   4   -100.6584876 -0.504502E-03  0.433E-02    0.83       1.0  T
   5   -100.6586605 -0.172982E-03  0.901E-03    0.85       1.3  T
   6   -100.6586656 -0.503262E-05  0.497E-03    0.84       2.4  T
   7   -100.6586670 -0.138614E-05  0.282E-03    0.84       4.2  T
   8   -100.6586672 -0.230450E-06  0.231E-03    0.84       5.1  T
   9   -100.6586675 -0.351912E-06  0.729E-04    0.84      16.2  T
  10   -100.6586676 -0.381539E-07  0.156E-04    0.84      75.3  T
     SCC iter.                  ...        0 min,  0.081 sec
     gradient                   ...        0 min,  0.069 sec
 * total energy  :   -99.2705181 Eh     change       -0.2332214E-01 Eh
   gradient norm :     0.0709779 Eh/α   predicted    -0.2151523E-01 (  -7.75%)
   displ. norm   :     0.5482167 α      lambda       -0.2172922E-01
   maximum displ.:     0.2257138 α      in ANC's #36, #35, #55, ...

........................................................................
.............................. CYCLE   13 ..............................
........................................................................

 iter      E             dE          RMSdq      gap      omega  full diag
   1   -100.6833813 -0.100683E+03  0.174E-01    0.80       0.0  T
   2   -100.6828576  0.523761E-03  0.133E-01    0.88       1.0  T
   3   -100.6824802  0.377343E-03  0.129E-01    0.75       1.0  T
   4   -100.6833443 -0.864032E-03  0.524E-02    0.88       1.0  T
   5   -100.6836246 -0.280321E-03  0.990E-03    0.83       1.2  T
   6   -100.6836274 -0.285782E-05  0.546E-03    0.83       2.2  T
   7   -100.6836295 -0.207196E-05  0.214E-03    0.83       5.5  T
   8   -100.6836297 -0.184258E-06  0.877E-04    0.83      13.4  T
   9   -100.6836298 -0.761540E-07  0.338E-04    0.83      34.8  T
     SCC iter.                  ...        0 min,  0.073 sec
     gradient                   ...        0 min,  0.069 sec
 * total energy  :   -99.2852931 Eh     change       -0.1477501E-01 Eh
   gradient norm :     0.0560573 Eh/α   predicted    -0.1412988E-01 (  -4.37%)
   displ. norm   :     0.5187230 α      lambda       -0.1178165E-01
   maximum displ.:     0.2304646 α      in ANC's #36, #55, #35, ...

........................................................................
.............................. CYCLE   14 ..............................
........................................................................

 iter      E             dE          RMSdq      gap      omega  full diag
   1   -100.6944172 -0.100694E+03  0.137E-01    0.82       0.0  T
   2   -100.6942841  0.133134E-03  0.881E-02    0.85       1.0  T
   3   -100.6936326  0.651477E-03  0.111E-01    0.77       1.0  T
   4   -100.6944166 -0.784051E-03  0.264E-02    0.85       1.0  T
   5   -100.6944955 -0.788846E-04  0.717E-03    0.82       1.6  T
   6   -100.6944996 -0.408366E-05  0.260E-03    0.83       4.5  T
   7   -100.6944998 -0.203888E-06  0.114E-03    0.83      10.3  T
   8   -100.6944999 -0.623926E-07  0.490E-04    0.83      24.1  T
   9   -100.6944999 -0.133080E-07  0.264E-04    0.83      44.6  T
     SCC iter.                  ...        0 min,  0.073 sec
     gradient                   ...        0 min,  0.075 sec
 * total energy  :   -99.2935908 Eh     change       -0.8297644E-02 Eh
   gradient norm :     0.0425356 Eh/α   predicted    -0.7475892E-02 (  -9.90%)
   displ. norm   :     0.5551031 α      lambda       -0.9530517E-02
   maximum displ.:     0.2412746 α      in ANC's #36, #35, #27, ...

........................................................................
.............................. CYCLE   15 ..............................
........................................................................

 iter      E             dE          RMSdq      gap      omega  full diag
   1   -100.7095081 -0.100710E+03  0.190E-01    0.76       0.0  T
   2   -100.7079264  0.158163E-02  0.179E-01    0.91       1.0  T
   3   -100.7095031 -0.157667E-02  0.118E-01    0.74       1.0  T
   4   -100.7095548 -0.516825E-04  0.767E-02    0.87       1.0  T
   5   -100.7102228 -0.668050E-03  0.994E-03    0.80       1.2  T
   6   -100.7102291 -0.628552E-05  0.485E-03    0.81       2.4  T
   7   -100.7102304 -0.123014E-05  0.234E-03    0.81       5.0  T
   8   -100.7102304 -0.105772E-07  0.134E-03    0.81       8.8  T
   9   -100.7102306 -0.205043E-06  0.309E-04    0.81      38.1  T
  10   -100.7102306 -0.376669E-08  0.180E-04    0.81      65.5  T
     SCC iter.                  ...        0 min,  0.081 sec
     gradient                   ...        0 min,  0.069 sec
 * total energy  :   -99.3008721 Eh     change       -0.7281364E-02 Eh
   gradient norm :     0.0343490 Eh/α   predicted    -0.6233631E-02 ( -14.39%)
   displ. norm   :     0.5691081 α      lambda       -0.8230221E-02
   maximum displ.:     0.2164249 α      in ANC's #36, #35, #27, ...

........................................................................
.............................. CYCLE   16 ..............................
........................................................................

 iter      E             dE          RMSdq      gap      omega  full diag
   1   -100.7085649 -0.100709E+03  0.218E-01    0.72       0.0  T
   2   -100.7064283  0.213660E-02  0.205E-01    0.91       1.0  T
   3   -100.7086817 -0.225338E-02  0.132E-01    0.71       1.0  T
   4   -100.7087342 -0.525502E-04  0.910E-02    0.86       1.0  T
   5   -100.7095948 -0.860624E-03  0.967E-03    0.78       1.2  T
   6   -100.7096033 -0.842094E-05  0.391E-03    0.79       3.0  T
   7   -100.7096041 -0.838195E-06  0.210E-03    0.79       5.6  T
   8   -100.7096041 -0.514437E-08  0.125E-03    0.79       9.4  T
   9   -100.7096043 -0.192642E-06  0.322E-04    0.79      36.5  T
  10   -100.7096043 -0.618532E-08  0.181E-04    0.79      65.2  T
     SCC iter.                  ...        0 min,  0.081 sec
     gradient                   ...        0 min,  0.075 sec
 * total energy  :   -99.3070461 Eh     change       -0.6173928E-02 Eh
   gradient norm :     0.0283651 Eh/α   predicted    -0.5447930E-02 ( -11.76%)
   displ. norm   :     0.5037296 α      lambda       -0.5330982E-02
   maximum displ.:     0.1586356 α      in ANC's #36, #27, #10, ...

........................................................................
.............................. CYCLE   17 ..............................
........................................................................

 iter      E             dE          RMSdq      gap      omega  full diag
   1   -100.7070189 -0.100707E+03  0.176E-01    0.72       0.0  T
   2   -100.7060464  0.972486E-03  0.141E-01    0.86       1.0  T
   3   -100.7063127 -0.266303E-03  0.132E-01    0.67       1.0  T
   4   -100.7070002 -0.687519E-03  0.651E-02    0.81       1.0  T
   5   -100.7074249 -0.424700E-03  0.670E-03    0.76       1.8  T
   6   -100.7074287 -0.376200E-05  0.293E-03    0.77       4.0  T
   7   -100.7074290 -0.321183E-06  0.167E-03    0.76       7.0  T
   8   -100.7074291 -0.174869E-06  0.709E-04    0.77      16.6  T
   9   -100.7074292 -0.118977E-07  0.368E-04    0.76      32.0  T
     SCC iter.                  ...        0 min,  0.073 sec
     gradient                   ...        0 min,  0.069 sec
 * total energy  :   -99.3105863 Eh     change       -0.3540284E-02 Eh
   gradient norm :     0.0286095 Eh/α   predicted    -0.3341854E-02 (  -5.60%)
   displ. norm   :     0.4008597 α      lambda       -0.3183406E-02
   maximum displ.:     0.1295527 α      in ANC's #10, #25, #11, ...

........................................................................
.............................. CYCLE   18 ..............................
........................................................................

 iter      E             dE          RMSdq      gap      omega  full diag
   1   -100.7056774 -0.100706E+03  0.134E-01    0.73       0.0  T
   2   -100.7050481  0.629287E-03  0.126E-01    0.79       1.0  T
   3   -100.7058791 -0.830997E-03  0.713E-02    0.73       1.0  T
   4   -100.7059035 -0.244334E-04  0.410E-02    0.79       1.0  T
   5   -100.7060709 -0.167412E-03  0.639E-03    0.75       1.8  T
   6   -100.7060737 -0.273571E-05  0.420E-03    0.76       2.8  T
   7   -100.7060751 -0.146781E-05  0.209E-03    0.75       5.6  T
   8   -100.7060753 -0.139871E-06  0.865E-04    0.75      13.6  T
   9   -100.7060753 -0.691544E-07  0.203E-04    0.75      57.9  T
     SCC iter.                  ...        0 min,  0.073 sec
     gradient                   ...        0 min,  0.069 sec
 * total energy  :   -99.3125692 Eh     change       -0.1982851E-02 Eh
   gradient norm :     0.0250499 Eh/α   predicted    -0.1847477E-02 (  -6.83%)
   displ. norm   :     0.3329323 α      lambda       -0.2317427E-02
   maximum displ.:     0.1208087 α      in ANC's #10, #11, #2, ...

........................................................................
.............................. CYCLE   19 ..............................
........................................................................

 iter      E             dE          RMSdq      gap      omega  full diag
   1   -100.7115701 -0.100712E+03  0.801E-02    0.74       0.0  T
   2   -100.7115479  0.222584E-04  0.495E-02    0.77       1.0  T
   3   -100.7109575  0.590323E-03  0.737E-02    0.67       1.0  T
   4   -100.7115764 -0.618871E-03  0.912E-03    0.75       1.3  T
   5   -100.7115824 -0.598403E-05  0.348E-03    0.75       3.4  T
   6   -100.7115833 -0.869098E-06  0.138E-03    0.75       8.6  T
   7   -100.7115833 -0.424957E-07  0.711E-04    0.75      16.6  T
   8   -100.7115833 -0.289531E-07  0.350E-04    0.75      33.6  T
     SCC iter.                  ...        0 min,  0.065 sec
     gradient                   ...        0 min,  0.069 sec
 * total energy  :   -99.3142141 Eh     change       -0.1644883E-02 Eh
   gradient norm :     0.0157396 Eh/α   predicted    -0.1287160E-02 ( -21.75%)
   displ. norm   :     0.3737869 α      lambda       -0.1867024E-02
   maximum displ.:     0.1388848 α      in ANC's #10, #11, #1, ...

........................................................................
.............................. CYCLE   20 ..............................
........................................................................

 iter      E             dE          RMSdq      gap      omega  full diag
   1   -100.7175466 -0.100718E+03  0.844E-02    0.74       0.0  T
   2   -100.7174851  0.614128E-04  0.604E-02    0.76       1.0  T
   3   -100.7174149  0.702874E-04  0.577E-02    0.72       1.0  T
   4   -100.7175721 -0.157198E-03  0.162E-02    0.76       1.0  T
   5   -100.7175917 -0.196413E-04  0.964E-03    0.73       1.2  T
   6   -100.7176019 -0.102175E-04  0.180E-03    0.74       6.6  T
   7   -100.7176021 -0.201183E-06  0.806E-04    0.74      14.6  T
   8   -100.7176021  0.240723E-08  0.521E-04    0.74      22.6  T
     SCC iter.                  ...        0 min,  0.065 sec
     gradient                   ...        0 min,  0.069 sec
 * total energy  :   -99.3155877 Eh     change       -0.1373590E-02 Eh
   gradient norm :     0.0164310 Eh/α   predicted    -0.1063948E-02 ( -22.54%)
   displ. norm   :     0.4027780 α      lambda       -0.1751624E-02
   maximum displ.:     0.1540030 α      in ANC's #10, #11, #2, ...
 * RMSD in coord.:     1.0625470 α      energy gain  -0.1227877E+01 Eh

generating ANC from model Hessian ...
Using Lindh-Hessian (1995)
 Shifting diagonal of input Hessian by    1.0082629800675813E-002
 Lowest  eigenvalues of input Hessian
    0.010000    0.010050    0.000000    0.000000    0.000000    0.000000
    0.000000    0.000000    0.010114    0.010133    0.010201    0.010251
    0.010416    0.010590    0.010839    0.011085    0.011407    0.011867
 Highest eigenvalues
    2.036721    2.040174    2.105100    2.151549    2.180296    2.204941


........................................................................
.............................. CYCLE   21 ..............................
........................................................................

 iter      E             dE          RMSdq      gap      omega  full diag
   1   -100.7203284 -0.100720E+03  0.873E-02    0.76       0.0  T
   2   -100.7202048  0.123641E-03  0.666E-02    0.71       1.0  T
   3   -100.7199891  0.215677E-03  0.690E-02    0.80       1.0  T
   4   -100.7203231 -0.333949E-03  0.238E-02    0.73       1.0  T
   5   -100.7203744 -0.513220E-04  0.402E-03    0.75       2.9  T
   6   -100.7203762 -0.179274E-05  0.115E-03    0.75      10.3  T
   7   -100.7203762 -0.512954E-07  0.577E-04    0.75      20.4  T
   8   -100.7203762 -0.781736E-08  0.265E-04    0.75      44.5  T
     SCC iter.                  ...        0 min,  0.065 sec
     gradient                   ...        0 min,  0.069 sec
 * total energy  :   -99.3168337 Eh     change       -0.1246007E-02 Eh
   gradient norm :     0.0177405 Eh/α   predicted     0.0000000E+00 (-100.00%)
   displ. norm   :     0.2862136 α      lambda       -0.1770253E-02
   maximum displ.:     0.2078287 α      in ANC's #9, #11, #37, ...

........................................................................
.............................. CYCLE   22 ..............................
........................................................................

 iter      E             dE          RMSdq      gap      omega  full diag
   1   -100.7195738 -0.100720E+03  0.721E-02    0.75       0.0  T
   2   -100.7195740 -0.128770E-06  0.424E-02    0.75       1.0  T
   3   -100.7194685  0.105430E-03  0.334E-02    0.78       1.0  T
   4   -100.7195733 -0.104781E-03  0.668E-03    0.74       1.8  T
   5   -100.7195777 -0.442547E-05  0.264E-03    0.75       4.5  T
   6   -100.7195783 -0.593930E-06  0.110E-03    0.75      10.7  T
   7   -100.7195784 -0.457669E-07  0.460E-04    0.75      25.6  T
   8   -100.7195784 -0.162259E-07  0.106E-04    0.75     111.3  T
     SCC iter.                  ...        0 min,  0.065 sec
     gradient                   ...        0 min,  0.069 sec
 * total energy  :   -99.3182789 Eh     change       -0.1445193E-02 Eh
   gradient norm :     0.0077400 Eh/α   predicted    -0.9576895E-03 ( -33.73%)
   displ. norm   :     0.4931819 α      lambda       -0.1899060E-02
   maximum displ.:     0.3583962 α      in ANC's #9, #11, #7, ...

........................................................................
.............................. CYCLE   23 ..............................
........................................................................

 iter      E             dE          RMSdq      gap      omega  full diag
   1   -100.7179145 -0.100718E+03  0.112E-01    0.76       0.0  T
   2   -100.7178971  0.173931E-04  0.671E-02    0.74       1.0  T
   3   -100.7174158  0.481261E-03  0.792E-02    0.80       1.0  T
   4   -100.7179108 -0.494989E-03  0.148E-02    0.74       1.0  T
   5   -100.7179339 -0.230642E-04  0.496E-03    0.76       2.4  T
   6   -100.7179352 -0.139174E-05  0.198E-03    0.75       6.0  T
   7   -100.7179354 -0.137902E-06  0.102E-03    0.75      11.5  T
   8   -100.7179354 -0.571901E-07  0.367E-04    0.75      32.2  T
   9   -100.7179355 -0.133223E-07  0.154E-04    0.75      76.5  T
     SCC iter.                  ...        0 min,  0.073 sec
     gradient                   ...        0 min,  0.071 sec
 * total energy  :   -99.3196916 Eh     change       -0.1412777E-02 Eh
   gradient norm :     0.0105463 Eh/α   predicted    -0.1180483E-02 ( -16.44%)
   displ. norm   :     0.4523818 α      lambda       -0.1190521E-02
   maximum displ.:     0.3363242 α      in ANC's #9, #7, #11, ...

........................................................................
.............................. CYCLE   24 ..............................
........................................................................

 iter      E             dE          RMSdq      gap      omega  full diag
   1   -100.7180136 -0.100718E+03  0.915E-02    0.76       0.0  T
   2   -100.7179809  0.326543E-04  0.566E-02    0.74       1.0  T
   3   -100.7176137  0.367260E-03  0.730E-02    0.80       1.0  T
   4   -100.7180073 -0.393643E-03  0.169E-02    0.74       1.0  T
   5   -100.7180387 -0.314270E-04  0.386E-03    0.76       3.1  T
   6   -100.7180393 -0.603029E-06  0.191E-03    0.76       6.2  T
   7   -100.7180395 -0.168242E-06  0.934E-04    0.76      12.6  T
   8   -100.7180396 -0.569574E-07  0.352E-04    0.76      33.4  T
     SCC iter.                  ...        0 min,  0.065 sec
     gradient                   ...        0 min,  0.070 sec
 * total energy  :   -99.3207241 Eh     change       -0.1032451E-02 Eh
   gradient norm :     0.0119314 Eh/α   predicted    -0.7170898E-03 ( -30.54%)
   displ. norm   :     0.5345292 α      lambda       -0.1385299E-02
   maximum displ.:     0.3816897 α      in ANC's #9, #7, #11, ...

........................................................................
.............................. CYCLE   25 ..............................
........................................................................

 iter      E             dE          RMSdq      gap      omega  full diag
   1   -100.7201576 -0.100720E+03  0.108E-01    0.77       0.0  T
   2   -100.7201159  0.417671E-04  0.665E-02    0.74       1.0  T
   3   -100.7195631  0.552804E-03  0.871E-02    0.82       1.0  T
   4   -100.7201510 -0.587942E-03  0.197E-02    0.74       1.0  T
   5   -100.7201922 -0.411977E-04  0.461E-03    0.76       2.6  T
   6   -100.7201931 -0.857525E-06  0.245E-03    0.76       4.8  T
   7   -100.7201934 -0.332214E-06  0.121E-03    0.76       9.7  T
   8   -100.7201935 -0.994585E-07  0.481E-04    0.76      24.5  T
   9   -100.7201935 -0.252727E-07  0.146E-04    0.76      80.6  T
     SCC iter.                  ...        0 min,  0.073 sec
     gradient                   ...        0 min,  0.069 sec
 * total energy  :   -99.3219279 Eh     change       -0.1203852E-02 Eh
   gradient norm :     0.0094336 Eh/α   predicted    -0.8905580E-03 ( -26.02%)
   displ. norm   :     0.6462564 α      lambda       -0.1416772E-02
   maximum displ.:     0.4509210 α      in ANC's #9, #7, #11, ...

........................................................................
.............................. CYCLE   26 ..............................
........................................................................

 iter      E             dE          RMSdq      gap      omega  full diag
   1   -100.7220136 -0.100722E+03  0.130E-01    0.77       0.0  T
   2   -100.7219681  0.454286E-04  0.790E-02    0.74       1.0  T
   3   -100.7211559  0.812240E-03  0.102E-01    0.83       1.0  T
   4   -100.7220037 -0.847833E-03  0.223E-02    0.74       1.0  T
   5   -100.7220556 -0.518960E-04  0.525E-03    0.76       2.2  T
   6   -100.7220565 -0.833820E-06  0.299E-03    0.76       3.9  T
   7   -100.7220571 -0.659249E-06  0.136E-03    0.76       8.6  T
   8   -100.7220572 -0.112918E-06  0.560E-04    0.76      21.1  T
   9   -100.7220573 -0.347518E-07  0.167E-04    0.76      70.6  T
     SCC iter.                  ...        0 min,  0.073 sec
     gradient                   ...        0 min,  0.069 sec
 * total energy  :   -99.3231365 Eh     change       -0.1208583E-02 Eh
   gradient norm :     0.0092320 Eh/α   predicted    -0.1004243E-02 ( -16.91%)
   displ. norm   :     0.6761455 α      lambda       -0.1216876E-02
   maximum displ.:     0.4696454 α      in ANC's #9, #7, #11, ...

........................................................................
.............................. CYCLE   27 ..............................
........................................................................

 iter      E             dE          RMSdq      gap      omega  full diag
   1   -100.7239792 -0.100724E+03  0.127E-01    0.77       0.0  T
   2   -100.7239613  0.179786E-04  0.751E-02    0.75       1.0  T
   3   -100.7233096  0.651686E-03  0.883E-02    0.82       1.0  T
   4   -100.7239732 -0.663584E-03  0.185E-02    0.74       1.0  T
   5   -100.7240083 -0.351752E-04  0.519E-03    0.77       2.3  T
   6   -100.7240093 -0.935402E-06  0.292E-03    0.76       4.0  T
   7   -100.7240098 -0.576374E-06  0.138E-03    0.76       8.5  T
   8   -100.7240100 -0.124559E-06  0.581E-04    0.76      20.3  T
   9   -100.7240100 -0.342477E-07  0.162E-04    0.76      72.6  T
     SCC iter.                  ...        0 min,  0.073 sec
     gradient                   ...        0 min,  0.069 sec
 * total energy  :   -99.3241504 Eh     change       -0.1013842E-02 Eh
   gradient norm :     0.0087546 Eh/α   predicted    -0.8866037E-03 ( -12.55%)
   displ. norm   :     0.6763080 α      lambda       -0.9591078E-03
   maximum displ.:     0.4676603 α      in ANC's #9, #7, #11, ...

........................................................................
.............................. CYCLE   28 ..............................
........................................................................

 iter      E             dE          RMSdq      gap      omega  full diag
   1   -100.7253134 -0.100725E+03  0.122E-01    0.77       0.0  T
   2   -100.7253119  0.150886E-05  0.714E-02    0.76       1.0  T
   3   -100.7249093  0.402678E-03  0.669E-02    0.81       1.0  T
   4   -100.7253116 -0.402339E-03  0.153E-02    0.75       1.0  T
   5   -100.7253345 -0.229465E-04  0.520E-03    0.77       2.3  T
   6   -100.7253357 -0.116417E-05  0.271E-03    0.76       4.3  T
   7   -100.7253361 -0.414590E-06  0.141E-03    0.76       8.3  T
   8   -100.7253363 -0.161759E-06  0.568E-04    0.76      20.7  T
   9   -100.7253363 -0.283582E-07  0.167E-04    0.76      70.5  T
     SCC iter.                  ...        0 min,  0.072 sec
     gradient                   ...        0 min,  0.069 sec
 * total energy  :   -99.3249260 Eh     change       -0.7756752E-03 Eh
   gradient norm :     0.0082484 Eh/α   predicted    -0.6988982E-03 (  -9.90%)
   displ. norm   :     0.6167316 α      lambda       -0.6802555E-03
   maximum displ.:     0.4182860 α      in ANC's #9, #7, #8, ...

........................................................................
.............................. CYCLE   29 ..............................
........................................................................

 iter      E             dE          RMSdq      gap      omega  full diag
   1   -100.7273406 -0.100727E+03  0.105E-01    0.76       0.0  T
   2   -100.7273464 -0.583743E-05  0.606E-02    0.76       1.0  T
   3   -100.7272151  0.131334E-03  0.360E-02    0.78       1.0  T
   4   -100.7273432 -0.128118E-03  0.111E-02    0.75       1.1  T
   5   -100.7273533 -0.100799E-04  0.534E-03    0.77       2.2  T
   6   -100.7273553 -0.204167E-05  0.220E-03    0.76       5.4  T
   7   -100.7273554 -0.135839E-06  0.128E-03    0.77       9.2  T
   8   -100.7273556 -0.148874E-06  0.419E-04    0.76      28.1  T
   9   -100.7273556 -0.118405E-07  0.161E-04    0.76      73.4  T
     SCC iter.                  ...        0 min,  0.073 sec
     gradient                   ...        0 min,  0.069 sec
 * total energy  :   -99.3254619 Eh     change       -0.5358240E-03 Eh
   gradient norm :     0.0077061 Eh/α   predicted    -0.4695076E-03 ( -12.38%)
   displ. norm   :     0.5730548 α      lambda       -0.4717033E-03
   maximum displ.:     0.3745670 α      in ANC's #9, #7, #8, ...

........................................................................
.............................. CYCLE   30 ..............................
........................................................................

 iter      E             dE          RMSdq      gap      omega  full diag
   1   -100.7268014 -0.100727E+03  0.102E-01    0.77       0.0  T
   2   -100.7268044 -0.300110E-05  0.592E-02    0.76       1.0  T
   3   -100.7266189  0.185542E-03  0.422E-02    0.80       1.0  T
   4   -100.7268038 -0.184912E-03  0.104E-02    0.76       1.1  T
   5   -100.7268132 -0.943924E-05  0.428E-03    0.77       2.8  T
   6   -100.7268140 -0.806581E-06  0.206E-03    0.76       5.7  T
   7   -100.7268143 -0.248006E-06  0.898E-04    0.77      13.1  T
   8   -100.7268144 -0.885858E-07  0.288E-04    0.77      41.0  T
     SCC iter.                  ...        0 min,  0.065 sec
     gradient                   ...        0 min,  0.068 sec
 * total energy  :   -99.3258212 Eh     change       -0.3593258E-03 Eh
   gradient norm :     0.0072253 Eh/α   predicted    -0.3133121E-03 ( -12.81%)
   displ. norm   :     0.5086146 α      lambda       -0.4321054E-03
   maximum displ.:     0.3011689 α      in ANC's #9, #7, #8, ...

........................................................................
.............................. CYCLE   31 ..............................
........................................................................

 iter      E             dE          RMSdq      gap      omega  full diag
   1   -100.7328694 -0.100733E+03  0.722E-02    0.76       0.0  T
   2   -100.7328688  0.566602E-06  0.441E-02    0.77       1.0  T
   3   -100.7327105  0.158292E-03  0.459E-02    0.74       1.0  T
   4   -100.7328742 -0.163677E-03  0.114E-02    0.78       1.0  T
   5   -100.7328807 -0.646188E-05  0.672E-03    0.76       1.8  T
   6   -100.7328853 -0.462853E-05  0.211E-03    0.77       5.6  T
   7   -100.7328856 -0.301292E-06  0.892E-04    0.77      13.2  T
   8   -100.7328856 -0.256254E-07  0.188E-04    0.77      62.7  T
     SCC iter.                  ...        0 min,  0.065 sec
     gradient                   ...        0 min,  0.069 sec
 * total energy  :   -99.3260568 Eh     change       -0.2356334E-03 Eh
   gradient norm :     0.0095064 Eh/α   predicted    -0.2719472E-03 (  15.41%)
   displ. norm   :     0.4566123 α      lambda       -0.3174577E-03
   maximum displ.:     0.2659439 α      in ANC's #9, #7, #8, ...

........................................................................
.............................. CYCLE   32 ..............................
........................................................................

 iter      E             dE          RMSdq      gap      omega  full diag
   1   -100.7285033 -0.100729E+03  0.874E-02    0.77       0.0  T
   2   -100.7284974  0.592604E-05  0.521E-02    0.76       1.0  T
   3   -100.7280884  0.408963E-03  0.629E-02    0.83       1.0  T
   4   -100.7285099 -0.421460E-03  0.897E-03    0.76       1.3  T
   5   -100.7285155 -0.566048E-05  0.405E-03    0.77       2.9  T
   6   -100.7285161 -0.557046E-06  0.215E-03    0.77       5.5  T
   7   -100.7285165 -0.395301E-06  0.823E-04    0.77      14.3  T
   8   -100.7285166 -0.649039E-07  0.290E-04    0.77      40.7  T
     SCC iter.                  ...        0 min,  0.065 sec
     gradient                   ...        0 min,  0.068 sec
 * total energy  :   -99.3262512 Eh     change       -0.1943974E-03 Eh
   gradient norm :     0.0045832 Eh/α   predicted    -0.1918240E-03 (  -1.32%)
   displ. norm   :     0.2245337 α      lambda       -0.1336499E-03
   maximum displ.:     0.1188356 α      in ANC's #7, #9, #8, ...

........................................................................
.............................. CYCLE   33 ..............................
........................................................................

 iter      E             dE          RMSdq      gap      omega  full diag
   1   -100.7298614 -0.100730E+03  0.334E-02    0.77       0.0  T
   2   -100.7298606  0.816808E-06  0.201E-02    0.77       1.0  T
   3   -100.7298167  0.438566E-04  0.231E-02    0.75       1.0  T
   4   -100.7298616 -0.448312E-04  0.553E-03    0.77       2.1  T
   5   -100.7298635 -0.191627E-05  0.281E-03    0.77       4.2  T
   6   -100.7298642 -0.753091E-06  0.888E-04    0.77      13.3  T
   7   -100.7298643 -0.498178E-07  0.394E-04    0.77      29.9  T
     SCC iter.                  ...        0 min,  0.057 sec
     gradient                   ...        0 min,  0.068 sec
 * total energy  :   -99.3263490 Eh     change       -0.9781361E-04 Eh
   gradient norm :     0.0041090 Eh/α   predicted    -0.7019513E-04 ( -28.24%)
   displ. norm   :     0.3266907 α      lambda       -0.1702412E-03
   maximum displ.:     0.1756414 α      in ANC's #7, #8, #9, ...

........................................................................
.............................. CYCLE   34 ..............................
........................................................................

 iter      E             dE          RMSdq      gap      omega  full diag
   1   -100.7301687 -0.100730E+03  0.452E-02    0.77       0.0  T
   2   -100.7301685  0.248103E-06  0.268E-02    0.77       1.0  T
   3   -100.7301093  0.591575E-04  0.247E-02    0.79       1.0  T
   4   -100.7301692 -0.599247E-04  0.393E-03    0.77       3.0  T
   5   -100.7301705 -0.132382E-05  0.178E-03    0.77       6.6  T
   6   -100.7301707 -0.118636E-06  0.117E-03    0.77      10.0  T
   7   -100.7301707 -0.803040E-07  0.316E-04    0.77      37.4  T
   8   -100.7301708 -0.658811E-08  0.133E-04    0.77      88.7  T
     SCC iter.                  ...        0 min,  0.065 sec
     gradient                   ...        0 min,  0.068 sec
 * total energy  :   -99.3264550 Eh     change       -0.1059306E-03 Eh
   gradient norm :     0.0040266 Eh/α   predicted    -0.9420813E-04 ( -11.07%)
   displ. norm   :     0.1959122 α      lambda       -0.9874578E-04
   maximum displ.:     0.0966632 α      in ANC's #7, #8, #3, ...

........................................................................
.............................. CYCLE   35 ..............................
........................................................................

 iter      E             dE          RMSdq      gap      omega  full diag
   1   -100.7315949 -0.100732E+03  0.307E-02    0.77       0.0  T
   2   -100.7315931  0.174726E-05  0.195E-02    0.77       1.0  T
   3   -100.7315682  0.249827E-04  0.204E-02    0.76       1.0  T
   4   -100.7315956 -0.274747E-04  0.528E-03    0.77       2.2  T
   5   -100.7315976 -0.200697E-05  0.210E-03    0.77       5.6  T
   6   -100.7315981 -0.425352E-06  0.872E-04    0.77      13.5  T
   7   -100.7315981 -0.647470E-07  0.428E-04    0.77      27.5  T
     SCC iter.                  ...        0 min,  0.058 sec
     gradient                   ...        0 min,  0.068 sec
 * total energy  :   -99.3265188 Eh     change       -0.6382229E-04 Eh
   gradient norm :     0.0054305 Eh/α   predicted    -0.5126824E-04 ( -19.67%)
   displ. norm   :     0.2307813 α      lambda       -0.1092754E-03
   maximum displ.:     0.1146188 α      in ANC's #7, #8, #3, ...

........................................................................
.............................. CYCLE   36 ..............................
........................................................................

 iter      E             dE          RMSdq      gap      omega  full diag
   1   -100.7310659 -0.100731E+03  0.382E-02    0.77       0.0  T
   2   -100.7310656  0.360502E-06  0.230E-02    0.77       1.0  T
   3   -100.7310379  0.276497E-04  0.193E-02    0.77       1.0  T
   4   -100.7310672 -0.292313E-04  0.179E-03    0.77       6.6  T
   5   -100.7310671  0.810817E-07  0.171E-03    0.77       6.9  T
   6   -100.7310673 -0.268654E-06  0.837E-04    0.77      14.1  T
   7   -100.7310674 -0.470910E-07  0.275E-04    0.77      42.9  T
     SCC iter.                  ...        0 min,  0.057 sec
     gradient                   ...        0 min,  0.068 sec
 * total energy  :   -99.3266002 Eh     change       -0.8142460E-04 Eh
   gradient norm :     0.0057912 Eh/α   predicted    -0.5754804E-04 ( -29.32%)
   displ. norm   :     0.2774058 α      lambda       -0.1486949E-03
   maximum displ.:     0.1280797 α      in ANC's #8, #7, #3, ...

........................................................................
.............................. CYCLE   37 ..............................
........................................................................

 iter      E             dE          RMSdq      gap      omega  full diag
   1   -100.7305085 -0.100731E+03  0.444E-02    0.77       0.0  T
   2   -100.7305093 -0.749836E-06  0.261E-02    0.76       1.0  T
   3   -100.7304886  0.206469E-04  0.135E-02    0.78       1.0  T
   4   -100.7305078 -0.191529E-04  0.494E-03    0.76       2.4  T
   5   -100.7305102 -0.236597E-05  0.171E-03    0.77       6.9  T
   6   -100.7305103 -0.150610E-06  0.742E-04    0.77      15.9  T
   7   -100.7305103 -0.146819E-07  0.364E-04    0.77      32.3  T
     SCC iter.                  ...        0 min,  0.057 sec
     gradient                   ...        0 min,  0.068 sec
 * total energy  :   -99.3267080 Eh     change       -0.1077949E-03 Eh
   gradient norm :     0.0041655 Eh/α   predicted    -0.8007070E-04 ( -25.72%)
   displ. norm   :     0.3218393 α      lambda       -0.1471175E-03
   maximum displ.:     0.1584370 α      in ANC's #7, #8, #3, ...

........................................................................
.............................. CYCLE   38 ..............................
........................................................................

 iter      E             dE          RMSdq      gap      omega  full diag
   1   -100.7284171 -0.100728E+03  0.505E-02    0.77       0.0  T
   2   -100.7284051  0.119314E-04  0.342E-02    0.76       1.0  T
   3   -100.7283297  0.754635E-04  0.370E-02    0.79       1.0  T
   4   -100.7284192 -0.895277E-04  0.100E-02    0.76       1.2  T
   5   -100.7284271 -0.789800E-05  0.516E-03    0.77       2.3  T
   6   -100.7284301 -0.298768E-05  0.882E-04    0.76      13.4  T
   7   -100.7284301 -0.160581E-07  0.498E-04    0.76      23.7  T
   8   -100.7284301 -0.992624E-08  0.107E-04    0.76     110.2  T
     SCC iter.                  ...        0 min,  0.065 sec
     gradient                   ...        0 min,  0.068 sec
 * total energy  :   -99.3267928 Eh     change       -0.8482427E-04 Eh
   gradient norm :     0.0049884 Eh/α   predicted    -0.8117931E-04 (  -4.30%)
   displ. norm   :     0.2575464 α      lambda       -0.1055087E-03
   maximum displ.:     0.1080305 α      in ANC's #8, #7, #3, ...

........................................................................
.............................. CYCLE   39 ..............................
........................................................................

 iter      E             dE          RMSdq      gap      omega  full diag
   1   -100.7285250 -0.100729E+03  0.404E-02    0.76       0.0  T
   2   -100.7285245  0.517089E-06  0.243E-02    0.77       1.0  T
   3   -100.7284749  0.495313E-04  0.251E-02    0.75       1.0  T
   4   -100.7285250 -0.500409E-04  0.473E-03    0.77       2.5  T
   5   -100.7285267 -0.171151E-05  0.271E-03    0.76       4.4  T
   6   -100.7285275 -0.801467E-06  0.656E-04    0.76      18.0  T
   7   -100.7285275 -0.197208E-08  0.429E-04    0.76      27.5  T
     SCC iter.                  ...        0 min,  0.057 sec
     gradient                   ...        0 min,  0.074 sec
 * total energy  :   -99.3268696 Eh     change       -0.7671372E-04 Eh
   gradient norm :     0.0045184 Eh/α   predicted    -0.5625370E-04 ( -26.67%)
   displ. norm   :     0.3064352 α      lambda       -0.1278552E-03
   maximum displ.:     0.1498062 α      in ANC's #7, #3, #8, ...

........................................................................
.............................. CYCLE   40 ..............................
........................................................................

 iter      E             dE          RMSdq      gap      omega  full diag
   1   -100.7295474 -0.100730E+03  0.413E-02    0.77       0.0  T
   2   -100.7295472  0.187900E-06  0.247E-02    0.76       1.0  T
   3   -100.7295187  0.285286E-04  0.168E-02    0.78       1.0  T
   4   -100.7295478 -0.290844E-04  0.331E-03    0.76       3.6  T
   5   -100.7295487 -0.894386E-06  0.163E-03    0.77       7.2  T
   6   -100.7295489 -0.221226E-06  0.648E-04    0.76      18.2  T
   7   -100.7295489 -0.143269E-07  0.328E-04    0.76      35.9  T
     SCC iter.                  ...        0 min,  0.057 sec
     gradient                   ...        0 min,  0.071 sec
 * total energy  :   -99.3269739 Eh     change       -0.1043391E-03 Eh
   gradient norm :     0.0049772 Eh/α   predicted    -0.6993179E-04 ( -32.98%)
   displ. norm   :     0.4415853 α      lambda       -0.1876666E-03
   maximum displ.:     0.2247840 α      in ANC's #7, #3, #5, ...

........................................................................
.............................. CYCLE   41 ..............................
........................................................................

 iter      E             dE          RMSdq      gap      omega  full diag
   1   -100.7297259 -0.100730E+03  0.568E-02    0.77       0.0  T
   2   -100.7297257  0.195124E-06  0.341E-02    0.76       1.0  T
   3   -100.7296815  0.442461E-04  0.216E-02    0.78       1.0  T
   4   -100.7297272 -0.457505E-04  0.368E-03    0.76       3.2  T
   5   -100.7297283 -0.109043E-05  0.213E-03    0.77       5.5  T
   6   -100.7297287 -0.414623E-06  0.851E-04    0.76      13.9  T
   7   -100.7297287 -0.250721E-07  0.358E-04    0.76      32.9  T
     SCC iter.                  ...        0 min,  0.057 sec
     gradient                   ...        0 min,  0.069 sec
 * total energy  :   -99.3271170 Eh     change       -0.1430716E-03 Eh
   gradient norm :     0.0046862 Eh/α   predicted    -0.1121348E-03 ( -21.62%)
   displ. norm   :     0.4850333 α      lambda       -0.1745515E-03
   maximum displ.:     0.2451999 α      in ANC's #7, #3, #5, ...

........................................................................
.............................. CYCLE   42 ..............................
........................................................................

 iter      E             dE          RMSdq      gap      omega  full diag
   1   -100.7296856 -0.100730E+03  0.585E-02    0.77       0.0  T
   2   -100.7296815  0.404333E-05  0.359E-02    0.76       1.0  T
   3   -100.7295558  0.125698E-03  0.394E-02    0.79       1.0  T
   4   -100.7296847 -0.128873E-03  0.672E-03    0.76       1.8  T
   5   -100.7296895 -0.479395E-05  0.227E-03    0.77       5.2  T
   6   -100.7296899 -0.437465E-06  0.864E-04    0.76      13.6  T
   7   -100.7296899 -0.212922E-07  0.401E-04    0.76      29.4  T
     SCC iter.                  ...        0 min,  0.056 sec
     gradient                   ...        0 min,  0.068 sec
 * total energy  :   -99.3272484 Eh     change       -0.1314622E-03 Eh
   gradient norm :     0.0052832 Eh/α   predicted    -0.1078114E-03 ( -17.99%)
   displ. norm   :     0.4971640 α      lambda       -0.1489642E-03
   maximum displ.:     0.2512645 α      in ANC's #7, #3, #5, ...
 * RMSD in coord.:     0.8789924 α      energy gain  -0.1166076E-01 Eh

generating ANC from model Hessian ...
Using Lindh-Hessian (1995)
 Shifting diagonal of input Hessian by    1.0060387711100212E-002
 Lowest  eigenvalues of input Hessian
    0.010000    0.010031    0.000000    0.000000    0.000000    0.000000
    0.000000    0.000000    0.010107    0.010110    0.010183    0.010223
    0.010370    0.010548    0.010631    0.010918    0.011199    0.011766
 Highest eigenvalues
    2.033146    2.039062    2.107187    2.176375    2.181626    2.201653


........................................................................
.............................. CYCLE   43 ..............................
........................................................................

 iter      E             dE          RMSdq      gap      omega  full diag
   1   -100.7283327 -0.100728E+03  0.576E-02    0.77       0.0  T
   2   -100.7283326  0.257521E-07  0.342E-02    0.76       1.0  T
   3   -100.7282828  0.498153E-04  0.219E-02    0.78       1.0  T
   4   -100.7283322 -0.493948E-04  0.479E-03    0.76       2.5  T
   5   -100.7283343 -0.208117E-05  0.217E-03    0.77       5.4  T
   6   -100.7283346 -0.320966E-06  0.826E-04    0.76      14.3  T
   7   -100.7283346 -0.181754E-07  0.473E-04    0.76      24.9  T
     SCC iter.                  ...        0 min,  0.058 sec
     gradient                   ...        0 min,  0.070 sec
 * total energy  :   -99.3273669 Eh     change       -0.1184283E-03 Eh
   gradient norm :     0.0046732 Eh/α   predicted     0.0000000E+00 (-100.00%)
   displ. norm   :     0.0444367 α      lambda       -0.5570244E-04
   maximum displ.:     0.0185238 α      in ANC's #6, #32, #3, ...

........................................................................
.............................. CYCLE   44 ..............................
........................................................................

 iter      E             dE          RMSdq      gap      omega  full diag
   1   -100.7299827 -0.100730E+03  0.161E-02    0.76       0.0  T
   2   -100.7299827  0.848594E-07  0.976E-03    0.76       1.2  T
   3   -100.7299760  0.667307E-05  0.957E-03    0.76       1.2  T
   4   -100.7299833 -0.731271E-05  0.110E-03    0.76      10.7  T
   5   -100.7299834 -0.556811E-07  0.469E-04    0.76      25.1  T
   6   -100.7299834 -0.235779E-08  0.390E-04    0.76      30.2  T
     SCC iter.                  ...        0 min,  0.050 sec
     gradient                   ...        0 min,  0.068 sec
 * total energy  :   -99.3274141 Eh     change       -0.4724487E-04 Eh
   gradient norm :     0.0023399 Eh/α   predicted    -0.3074263E-04 ( -34.93%)
   displ. norm   :     0.0944658 α      lambda       -0.6655851E-04
   maximum displ.:     0.0456271 α      in ANC's #6, #3, #5, ...

   *** GEOMETRY OPTIMIZATION CONVERGED AFTER 44 ITERATIONS ***

------------------------------------------------------------------------
 total energy gain   :        -1.2397032 Eh     -777.9255 kcal/mol
 total RMSD          :         1.4988729 a0        0.7932 Å
 total power (kW/mol):       -73.9736451 (step) -445.1038 (real)
------------------------------------------------------------------------

 ANCopt (total)                0 d,  0 h,  0 min,  7.313 sec
 optimizer setup                ...        0 min,  0.000 sec (  0.003%)
 model hessian                  ...        0 min,  0.162 sec (  2.220%)
 ANC generation                 ...        0 min,  0.020 sec (  0.268%)
 coordinate transformation      ...        0 min,  0.003 sec (  0.041%)
 single point calculation       ...        0 min,  7.073 sec ( 96.717%)
 optimization log               ...        0 min,  0.012 sec (  0.160%)
 hessian update                 ...        0 min,  0.003 sec (  0.039%)
 rational function              ...        0 min,  0.020 sec (  0.269%)

================
 final structure:
================
72
 xtb: 6.6.1 (8d0f1dd)
N           -2.20127694299189        2.91699125102183        2.38548169923344
C           -2.12635089414306        2.08953412419523        1.45256049349345
C           -3.18253974583413        1.90710925925873        0.39495751025595
C           -3.72390578122068        0.49094324989720        0.47236883139057
C           -4.52121267992369       -0.00990794763330       -0.55871296680529
C           -5.01706187562252       -1.30368624831889       -0.52709574451974
O           -5.77562438138830       -1.87106660355558       -1.48810669181884
C           -6.18931007346247       -1.09510933021909       -2.58841784002100
C           -4.71585365062343       -2.14168154744311        0.58124501867083
O           -5.21077016171853       -3.39447915716175        0.51677422529338
C           -5.00743460540283       -4.26642221280933        1.60454910232833
C           -3.95397228335593       -1.62516749206833        1.61831228796348
C           -3.46615216992985       -0.32637801694805        1.56312303054180
C           -2.46740959557114        2.15851316292702       -0.96243279645770
C           -1.66985442106859        0.97589092315981       -1.54711624604917
C           -0.48709759663221        0.58521063449520       -0.74055466971396
N           -0.17425483333307       -0.65164139811151       -0.37257197367820
C            0.90508522270053       -0.94557064912443        0.34193965004966
C            3.85986269202056        0.31427216499092       -1.98555012857182
C            5.11795027549711        0.33499281501091       -1.43492616714998
C            6.03025126685261        1.39409087896454       -1.70895992147097
C            7.27847584085482        1.42330938073944       -1.14391857417712
C            7.69957084000186        0.40665829391675       -0.28073477734867
O            8.88722477301556        0.34177149446144        0.32843807487956
C            9.83076373423455        1.37196484338697        0.13489019132726
C            6.81003544653968       -0.68166391337355        0.00196821000037
O            7.31840351464631       -1.61208230857437        0.83597148076573
C            6.54332967013077       -2.74626982047196        1.14518357306834
C            5.56051667163618       -0.70354757980158       -0.56182553654454
C           -1.04079613388055       -1.75538998588695       -0.75492147424430
C           -4.37935269205947        2.89406251765605        0.54112935457863
C           -5.13812106119760        2.66965553446987        1.84661506930751
C           -3.96654418079252        4.35935485621555        0.43188409218496
H           -4.76393435191351        0.62743448271175       -1.39319408660104
H           -6.78445988085196       -0.23390213534437       -2.27070678379150
H           -6.80623706599885       -1.75521763302307       -3.19471043955394
H           -5.33634783940712       -0.75220449837648       -3.18348651213423
H           -5.45437991537914       -3.87304883177345        2.52208496120887
H           -5.50331341528982       -5.19551097938047        1.33098997055067
H           -3.94278429812038       -4.45988984118114        1.77074636304273
H           -3.73577205535546       -2.22674408118419        2.48550717562352
H           -2.89293134847382        0.04579336147616        2.39744389206133
H           -3.21759186378049        2.43926476568068       -1.70203127874118
H           -1.79515683000322        3.00896400159391       -0.83959111280037
H           -2.33969912751979        0.13365867407410       -1.70216668487480
H           -1.32036608680680        1.30864266868408       -2.53352924957775
H           -1.25749273044880        1.43024293855476        1.28658577098489
H            0.23317249118809        1.35270016478375       -0.50092345223443
H            1.11448735361023       -1.95884193326002        0.61183178433082
H            1.57277864232624       -0.16015340060748        0.63924172962496
H            3.52689367302240        1.09508136785561       -2.64447618243899
H            3.17666379166632       -0.49177590338964       -1.78447845628108
H            5.71858855698080        2.18293235915067       -2.37537303743968
H            7.94042916259263        2.24254644721086       -1.37464465541432
H            9.44298595480318        2.33637972281342        0.47543462465123
H           10.13102849124468        1.44749457766362       -0.91429556212003
H           10.69353285442437        1.09528049490621        0.73810602680150
H            7.16920396508412       -3.36214359387750        1.78791199162922
H            5.63014531698442       -2.47141674236317        1.68288197059363
H            6.28230664359622       -3.30926212888366        0.24379865231499
H            4.87713094855622       -1.51231592659058       -0.35890555549523
H           -1.12973227208843       -1.80529745202817       -1.83983364294140
H           -2.03150681126513       -1.63002529134246       -0.31787415249805
H           -0.61834693880782       -2.69096255164093       -0.39829053611464
H           -5.06373770242271        2.67117205654624       -0.28620796213784
H           -4.49945446178014        2.90180043417869        2.69314291641857
H           -5.48053526036330        1.64107042039523        1.93238720486217
H           -6.00618988240026        3.32296828790549        1.88003301973266
H           -3.25676815854609        4.60834569997839        1.21468038872181
H           -3.52749149325575        4.58808581573876       -0.53546117100770
H           -4.84506264389678        4.98754066515742        0.55660886305983
H           -1.42011400286726        2.98119186643548        3.03048166382729

 Bond Distances (Angstroems)
 ---------------------------
N1-C2=1.2493         N1-H72=1.0151        C2-N1=1.2493         C2-C3=1.5058         C2-H47=1.1032        C3-C2=1.5058         
C3-C4=1.5181         C3-C14=1.5547        C3-C31=1.5581        C4-C3=1.5181         C4-C5=1.3963         C4-C13=1.3872        
C5-C4=1.3963         C5-C6=1.3859         C5-H34=1.0777        C6-C5=1.3859         C6-O7=1.3494         C6-C9=1.4218         
O7-C6=1.3494         O7-C8=1.4085         C8-O7=1.4085         C8-H35=1.0940        C8-H36=1.0881        C8-H37=1.0951        
C9-C6=1.4218         C9-O10=1.3486        C9-C12=1.3866        O10-C9=1.3486        O10-C11=1.4089       C11-O10=1.4089       
C11-H38=1.0938       C11-H39=1.0881       C11-H40=1.0948       C12-C9=1.3866        C12-C13=1.3885       C12-H41=1.0777       
C13-C4=1.3872        C13-C12=1.3885       C13-H42=1.0785       C14-C3=1.5547        C14-C15=1.5416       C14-H43=1.0902       
C14-H44=1.0910       C15-C14=1.5416       C15-C16=1.4839       C15-H45=1.0872       C15-H46=1.0981       C16-C15=1.4839       
C16-N17=1.3278       C16-H48=1.0795       N17-C16=1.3278       N17-C18=1.3274       N17-C30=1.4544       C18-N17=1.3274       
C18-H49=1.0693       C18-H50=1.0729       C19-C20=1.3735       C19-H51=1.0746       C19-H52=1.0756       C20-C19=1.3735       
C20-C21=1.4245       C20-C29=1.4271       C21-C20=1.4245       C21-C22=1.3705       C21-H53=1.0787       C22-C21=1.3705       
C22-C23=1.3986       C22-H54=1.0782       C23-C22=1.3986       C23-O24=1.3363       C23-C26=1.4338       O24-C23=1.3363       
O24-C25=1.4103       C25-O24=1.4103       C25-H55=1.0938       C25-H56=1.0939       C25-H57=1.0885       C26-C23=1.4338       
C26-O27=1.3490       C26-C29=1.3710       O27-C26=1.3490       O27-C28=1.4081       C28-O27=1.4081       C28-H58=1.0882       
C28-H59=1.0948       C28-H60=1.0943       C29-C20=1.4271       C29-C26=1.3710       C29-H61=1.0781       C30-N17=1.4544       
C30-H62=1.0897       C30-H63=1.0901       C30-H64=1.0867       C31-C3=1.5581        C31-C32=1.5266       C31-C33=1.5262       
C31-H65=1.0966       C32-C31=1.5266       C32-H66=1.0855       C32-H67=1.0875       C32-H68=1.0870       C33-C31=1.5262       
C33-H69=1.0856       C33-H70=1.0867       C33-H71=1.0872       H34-C5=1.0777        H35-C8=1.0940        H36-C8=1.0881        
H37-C8=1.0951        H38-C11=1.0938       H39-C11=1.0881       H40-C11=1.0948       H41-C12=1.0777       H42-C13=1.0785       
H43-C14=1.0902       H44-C14=1.0910       H45-C15=1.0872       H46-C15=1.0981       H47-C2=1.1032        H48-C16=1.0795       
H49-C18=1.0693       H50-C18=1.0729       H51-C19=1.0746       H52-C19=1.0756       H53-C21=1.0787       H54-C22=1.0782       
H55-C25=1.0938       H56-C25=1.0939       H57-C25=1.0885       H58-C28=1.0882       H59-C28=1.0948       H60-C28=1.0943       
H61-C29=1.0781       H62-C30=1.0897       H63-C30=1.0901       H64-C30=1.0867       H65-C31=1.0966       H66-C32=1.0855       
H67-C32=1.0875       H68-C32=1.0870       H69-C33=1.0856       H70-C33=1.0867       H71-C33=1.0872       H72-N1=1.0151        
 C  H  Rav=1.0869 sigma=0.0078  Rmin=1.0693  Rmax=1.1032    38
 C  C  Rav=1.4467 sigma=0.0667  Rmin=1.3705  Rmax=1.5581    21
 N  H  Rav=1.0151 sigma=0.0000  Rmin=1.0151  Rmax=1.0151     1
 N  C  Rav=1.3397 sigma=0.0735  Rmin=1.2493  Rmax=1.4544     4
 O  C  Rav=1.3774 sigma=0.0318  Rmin=1.3363  Rmax=1.4103     8

 selected bond angles (degree)
 --------------------
H72-N1-C2=118.05               C3-C2-N1=124.24                H47-C2-N1=123.74               H47-C2-C3=111.98               
C4-C3-C2=109.11                C14-C3-C2=105.72               C14-C3-C4=111.06               C31-C3-C2=113.34               
[...]
         :: HOMO-LUMO gap              0.764233271642 eV    ::
         ::.................................................::
         :: SCC energy              -100.729983367448 Eh    ::
         :: -> isotropic ES            0.103955378257 Eh    ::
         :: -> anisotropic ES          0.004401376512 Eh    ::
         :: -> anisotropic XC          0.048446108606 Eh    ::
         :: -> dispersion             -0.072617596105 Eh    ::
         :: repulsion energy           1.400948606215 Eh    ::
         :: add. restraining           0.000003415063 Eh    ::
         :: total charge               1.000000000000 e     ::
         :::::::::::::::::::::::::::::::::::::::::::::::::::::

           -------------------------------------------------
          |                Property Printout                |
           -------------------------------------------------

    * Orbital Energies and Occupations

         #    Occupation            Energy/Eh            Energy/eV
      -------------------------------------------------------------
         1        2.0000           -0.8143643             -22.1600
       ...           ...                  ...                  ...
        78        1.9977           -0.5264706             -14.3260
        79        1.9976           -0.5253450             -14.2954
        80        1.9968           -0.5208707             -14.1736
        81        1.9961           -0.5179492             -14.0941
        82        1.9945           -0.5122354             -13.9386
        83        1.9936           -0.5099801             -13.8773
        84        1.9922           -0.5068687             -13.7926
        85        1.9879           -0.4998684             -13.6021
        86        1.9777           -0.4900963             -13.3362
        87        1.9266           -0.4707874             -12.8108
        88        1.9125           -0.4679003             -12.7322
        89        1.8576           -0.4597235             -12.5097
        90        1.5761           -0.4398475             -11.9689 (HOMO)
        91        0.7738           -0.4117624             -11.2046 (LUMO)
        92        0.0134           -0.3398913              -9.2489
        93        0.0088           -0.3331883              -9.0665
        94        0.0031           -0.3166340              -8.6161
        95        0.0025           -0.3132207              -8.5232
        96        0.0019           -0.3085176              -8.3952
        97        0.0004           -0.2848810              -7.7520
        98        0.0000           -0.1911610              -5.2018
        99        0.0000           -0.1776035              -4.8328
       100                         -0.1018048              -2.7703
       101                         -0.0663071              -1.8043
       ...                                ...                  ...
       171                          0.5920707              16.1111
      -------------------------------------------------------------
                  HL-Gap            0.0280851 Eh            0.7642 eV
             Fermi-level           -0.4190523 Eh          -11.4030 eV

     #   Z          covCN         q      C6AA      α(0)
     1   7 N        1.774    -0.266    27.735     7.799
     2   6 C        2.828     0.102    25.733     8.312
     3   6 C        3.907     0.007    20.405     6.421
     4   6 C        2.974     0.004    27.919     8.667
     5   6 C        2.920    -0.080    29.995     8.981
     6   6 C        2.862     0.127    25.208     8.230
     7   8 O        1.706    -0.231    17.829     5.701
     8   6 C        3.644     0.028    20.450     6.500
     9   6 C        2.864     0.127    25.220     8.232
    10   8 O        1.706    -0.229    17.800     5.696
    11   6 C        3.645     0.026    20.462     6.501
    12   6 C        2.913    -0.074    29.843     8.958
    13   6 C        2.921    -0.051    29.265     8.871
    14   6 C        3.810    -0.064    21.716     6.633
    15   6 C        3.801    -0.067    21.791     6.646
    16   6 C        2.868    -0.041    29.017     8.830
    17   7 N        2.729     0.101    19.510     6.560
    18   6 C        2.823    -0.109    30.739     9.085
    19   6 C        2.852    -0.093    30.326     9.026
    20   6 C        2.959     0.024    27.465     8.596
    21   6 C        2.921    -0.035    28.880     8.813
    22   6 C        2.906    -0.061    29.527     8.910
    23   6 C        2.865     0.142    24.899     8.179
    24   8 O        1.706    -0.202    17.360     5.625
    25   6 C        3.645     0.021    20.554     6.516
    26   6 C        2.857     0.136    25.030     8.200
    27   8 O        1.706    -0.230    17.807     5.697
    28   6 C        3.646     0.027    20.455     6.500
    29   6 C        2.918    -0.078    29.939     8.973
    30   6 C        3.719    -0.077    22.099     6.715
    31   6 C        3.853    -0.007    20.668     6.466
    32   6 C        3.756    -0.117    22.804     6.809
    33   6 C        3.755    -0.120    22.845     6.815
    34   1 H        0.926     0.054     2.274     2.358
    35   1 H        0.924     0.055     2.258     2.350
    36   1 H        0.925     0.081     1.966     2.193
    37   1 H        0.924     0.047     2.362     2.403
    38   1 H        0.924     0.056     2.241     2.341
    39   1 H        0.925     0.081     1.966     2.193
    40   1 H        0.924     0.048     2.341     2.393
    41   1 H        0.926     0.054     2.270     2.356
    42   1 H        0.926     0.043     2.407     2.426
    43   1 H        0.924     0.057     2.232     2.337
    44   1 H        0.924     0.052     2.296     2.370
    45   1 H        0.925     0.057     2.232     2.336
    46   1 H        0.923     0.065     2.138     2.287
    47   1 H        0.923     0.014     2.825     2.628
    48   1 H        0.926     0.056     2.243     2.342
    49   1 H        0.927     0.060     2.200     2.320
    50   1 H        0.926     0.058     2.225     2.332
    51   1 H        0.926     0.053     2.285     2.364
    52   1 H        0.926     0.045     2.381     2.413
    53   1 H        0.926     0.060     2.196     2.317
    54   1 H        0.926     0.062     2.180     2.309
    55   1 H        0.924     0.061     2.188     2.313
    56   1 H        0.924     0.062     2.171     2.304
    57   1 H        0.925     0.086     1.913     2.163
    58   1 H        0.925     0.081     1.964     2.192
    59   1 H        0.924     0.049     2.330     2.387
    60   1 H        0.924     0.053     2.287     2.365
    61   1 H        0.926     0.053     2.278     2.360
    62   1 H        0.925     0.082     1.956     2.187
    63   1 H        0.925     0.083     1.949     2.183
    64   1 H        0.925     0.084     1.934     2.175
    65   1 H        0.924     0.037     2.486     2.465
    66   1 H        0.925     0.068     2.111     2.272
    67   1 H        0.925     0.035     2.520     2.482
    68   1 H        0.925     0.051     2.304     2.374
    69   1 H        0.925     0.065     2.144     2.290
    70   1 H        0.925     0.037     2.494     2.470
    71   1 H        0.925     0.054     2.272     2.357
    72   1 H        0.860     0.158     1.345     1.817

 Mol. C6AA /au·bohr⁶  :      48142.400429
 Mol. C8AA /au·bohr⁸  :    1099932.861353
 Mol. α(0) /au        :        338.987468


Wiberg/Mayer (AO) data.
largest (>0.10) Wiberg bond orders for each atom

 ---------------------------------------------------------------------------
     #   Z sym  total        # sym  WBO       # sym  WBO       # sym  WBO
 ---------------------------------------------------------------------------
     1   7 N    3.019 --     2 C    1.956    72 H    0.940
     2   6 C    3.935 --     1 N    1.956     3 C    0.991    47 H    0.916
     3   6 C    3.971 --     2 C    0.991     4 C    0.975    14 C    0.952
                            31 C    0.943
     4   6 C    3.946 --    13 C    1.410     5 C    1.369     3 C    0.975
     5   6 C    3.961 --     6 C    1.398     4 C    1.369    34 H    0.958
     6   6 C    3.901 --     5 C    1.398     9 C    1.222     7 O    1.098
     7   8 O    2.251 --     6 C    1.098     8 C    0.978
     8   6 C    3.932 --     7 O    0.978    36 H    0.977    37 H    0.973
                            35 H    0.973
     9   6 C    3.897 --    12 C    1.388     6 C    1.222    10 O    1.101
    10   8 O    2.249 --     9 C    1.101    11 C    0.977
    11   6 C    3.931 --    10 O    0.977    39 H    0.977    40 H    0.973
                            38 H    0.973
    12   6 C    3.961 --    13 C    1.407     9 C    1.388    41 H    0.963
    13   6 C    3.950 --     4 C    1.410    12 C    1.407    42 H    0.962
    14   6 C    3.972 --    15 C    0.982    44 H    0.973    43 H    0.968
                             3 C    0.952
    15   6 C    3.986 --    16 C    1.052    14 C    0.982    45 H    0.962
                            46 H    0.940
    16   6 C    3.671 --    17 N    1.355    15 C    1.052    48 H    0.960
                            18 C    0.218
    17   7 N    3.747 --    18 C    1.363    16 C    1.355    30 C    0.984
    18   6 C    3.596 --    17 N    1.363    49 H    0.975    50 H    0.974
                            16 C    0.218
    19   6 C    3.545 --    20 C    1.502    51 H    0.979    52 H    0.979
    20   6 C    3.979 --    19 C    1.502    21 C    1.205    29 C    1.199
    21   6 C    3.807 --    22 C    1.524    20 C    1.205    53 H    0.967
    22   6 C    3.968 --    21 C    1.524    23 C    1.315    54 H    0.961
    23   6 C    3.768 --    22 C    1.315    26 C    1.171    24 O    1.145
    24   8 O    2.260 --    23 C    1.145    25 C    0.971
    25   6 C    3.923 --    57 H    0.976    55 H    0.971    24 O    0.971
                            56 H    0.971
    26   6 C    3.913 --    29 C    1.484    23 C    1.171    27 O    1.098
    27   8 O    2.254 --    26 C    1.098    28 C    0.978
    28   6 C    3.932 --    27 O    0.978    58 H    0.977    59 H    0.973
                            60 H    0.973
    29   6 C    3.854 --    26 C    1.484    20 C    1.199    61 H    0.962
    30   6 C    3.955 --    17 N    0.984    64 H    0.977    62 H    0.970
                            63 H    0.963
    31   6 C    3.970 --    33 C    1.008    32 C    1.008    65 H    0.959
                             3 C    0.943
    32   6 C    3.976 --    31 C    1.008    67 H    0.981    68 H    0.981
                            66 H    0.973
    33   6 C    3.977 --    31 C    1.008    70 H    0.982    71 H    0.979
                            69 H    0.973
    34   1 H    0.996 --     5 C    0.958
    35   1 H    0.993 --     8 C    0.973
    36   1 H    0.993 --     8 C    0.977
    37   1 H    0.994 --     8 C    0.973
    38   1 H    0.992 --    11 C    0.973
    39   1 H    0.993 --    11 C    0.977
    40   1 H    0.993 --    11 C    0.973
    41   1 H    0.995 --    12 C    0.963
    42   1 H    0.997 --    13 C    0.962
    43   1 H    0.994 --    14 C    0.968
    44   1 H    0.996 --    14 C    0.973
    45   1 H    0.996 --    15 C    0.962
    46   1 H    0.976 --    15 C    0.940
    47   1 H    0.978 --     2 C    0.916
    48   1 H    0.996 --    16 C    0.960
    49   1 H    0.996 --    18 C    0.975
    50   1 H    0.997 --    18 C    0.974
    51   1 H    0.996 --    19 C    0.979
    52   1 H    0.997 --    19 C    0.979
    53   1 H    0.996 --    21 C    0.967
    54   1 H    0.994 --    22 C    0.961
    55   1 H    0.989 --    25 C    0.971
    56   1 H    0.989 --    25 C    0.971
    57   1 H    0.992 --    25 C    0.976
    58   1 H    0.993 --    28 C    0.977
    59   1 H    0.993 --    28 C    0.973
    60   1 H    0.993 --    28 C    0.973
    61   1 H    0.996 --    29 C    0.962
    62   1 H    0.993 --    30 C    0.970
    63   1 H    0.993 --    30 C    0.963
    64   1 H    0.993 --    30 C    0.977
    65   1 H    0.990 --    31 C    0.959
    66   1 H    0.990 --    32 C    0.973
    67   1 H    0.996 --    32 C    0.981
    68   1 H    0.993 --    32 C    0.981
    69   1 H    0.991 --    33 C    0.973
    70   1 H    0.996 --    33 C    0.982
    71   1 H    0.993 --    33 C    0.979
    72   1 H    0.968 --     1 N    0.940
 ---------------------------------------------------------------------------

Topologies differ in total number of bonds
Writing topology from bond orders to xtbtopo.mol

molecular dipole:
                 x           y           z       tot (Debye)
 q only:        1.297      -0.269      -0.639
   full:        1.620      -0.385      -0.722       4.614
molecular quadrupole (traceless):
                xx          xy          yy          xz          yz          zz
 q only:       78.502      13.451     -30.445       1.446     -10.453     -48.057
  q+dip:       75.508      18.353     -31.308       3.264     -14.275     -44.200
   full:       74.969      17.726     -31.604       0.313     -13.642     -43.364

           -------------------------------------------------
          |                Geometry Summary                 |
           -------------------------------------------------

      molecular mass/u    :      455.6105846
   center of mass at/Å    :        0.0385575       0.0157222      -0.0035024
  moments of inertia/u·Å² :        0.2522936E+04   0.1289002E+05   0.1401090E+05
rotational constants/cm⁻¹ :        0.6681752E-02   0.1307805E-02   0.1203180E-02

 * 66 selected distances

     #   Z          #   Z                                           value/Å
     1   7 N        2   6 C                                       1.2492564
     4   6 C        5   6 C                                       1.3963095
     5   6 C        6   6 C                                       1.3859036
     6   6 C        7   8 O                                       1.3493998
     7   8 O        8   6 C                                       1.4085207
     6   6 C        9   6 C                                       1.4217532
     9   6 C       10   8 O                                       1.3485552
    10   8 O       11   6 C                                       1.4088593
     9   6 C       12   6 C                                       1.3866358
     4   6 C       13   6 C                                       1.3871539
    12   6 C       13   6 C                                       1.3884771
    15   6 C       16   6 C                                       1.4839430
    16   6 C       17   7 N                                       1.3278122
    17   7 N       18   6 C                                       1.3273645
    19   6 C       20   6 C                                       1.3734631
    20   6 C       21   6 C                                       1.4244566
    21   6 C       22   6 C                                       1.3704709
    22   6 C       23   6 C                                       1.3985661
    23   6 C       24   8 O                                       1.3363473
    24   8 O       25   6 C                                       1.4103281
    23   6 C       26   6 C                                       1.4337503
    26   6 C       27   8 O                                       1.3489545
    27   8 O       28   6 C                                       1.4080956
    20   6 C       29   6 C                                       1.4271427
    26   6 C       29   6 C                                       1.3709996
    17   7 N       30   6 C                                       1.4544230
    31   6 C       32   6 C                                       1.5265587 (max)
    31   6 C       33   6 C                                       1.5262462
     5   6 C       34   1 H                                       1.0777190
     8   6 C       35   1 H                                       1.0939934
     8   6 C       36   1 H                                       1.0880868
     8   6 C       37   1 H                                       1.0950960
    11   6 C       38   1 H                                       1.0937893
    11   6 C       39   1 H                                       1.0880885
    11   6 C       40   1 H                                       1.0947747
    12   6 C       41   1 H                                       1.0777444
    13   6 C       42   1 H                                       1.0785106
    14   6 C       43   1 H                                       1.0902298
    14   6 C       44   1 H                                       1.0909999
    15   6 C       45   1 H                                       1.0872387
    15   6 C       46   1 H                                       1.0981242
     2   6 C       47   1 H                                       1.1032349
    16   6 C       48   1 H                                       1.0794686
    18   6 C       49   1 H                                       1.0693035 (min)
    18   6 C       50   1 H                                       1.0728856
    19   6 C       51   1 H                                       1.0745767
    19   6 C       52   1 H                                       1.0755948
    21   6 C       53   1 H                                       1.0786618
    22   6 C       54   1 H                                       1.0782237
    25   6 C       55   1 H                                       1.0938183
    25   6 C       56   1 H                                       1.0939171
    25   6 C       57   1 H                                       1.0884826
    28   6 C       58   1 H                                       1.0881724
    28   6 C       59   1 H                                       1.0947921
    28   6 C       60   1 H                                       1.0943438
    29   6 C       61   1 H                                       1.0780997
    30   6 C       62   1 H                                       1.0896949
    30   6 C       63   1 H                                       1.0900617
    30   6 C       64   1 H                                       1.0867130
    31   6 C       65   1 H                                       1.0966085
    32   6 C       66   1 H                                       1.0855394
    32   6 C       67   1 H                                       1.0874704
    32   6 C       68   1 H                                       1.0869581
    33   6 C       69   1 H                                       1.0856098
    33   6 C       70   1 H                                       1.0866656
    33   6 C       71   1 H                                       1.0871838

 * 4 distinct bonds (by element types)

   Z      Z             #   av. dist./Å        max./Å        min./Å
   1 H    6 C          38     1.0868546     1.1032349     1.0693035
   6 C    6 C          16     1.4188644     1.5265587     1.3704709
   6 C    7 N           4     1.3397140     1.4544230     1.2492564
   6 C    8 O           8     1.3773826     1.4103281     1.3363473


optimized geometry written to: xtbopt.xyz


           -------------------------------------------------
          | TOTAL ENERGY              -99.327414110607 Eh   |
          | GRADIENT NORM               0.002343162998 Eh/α |
          | HOMO-LUMO GAP               0.764233271642 eV   |
           -------------------------------------------------

------------------------------------------------------------------------
 * finished run on 2024/04/06 at 11:13:40.215     
------------------------------------------------------------------------
 total:
 * wall-time:     0 d,  0 h,  0 min,  7.668 sec
 *  cpu-time:     0 d,  0 h,  0 min,  7.645 sec
 * ratio c/w:     0.997 speedup
 SCF:
 * wall-time:     0 d,  0 h,  0 min,  0.190 sec
 *  cpu-time:     0 d,  0 h,  0 min,  0.190 sec
 * ratio c/w:     1.000 speedup
 ANC optimizer:
 * wall-time:     0 d,  0 h,  0 min,  7.434 sec
 *  cpu-time:     0 d,  0 h,  0 min,  7.430 sec
 * ratio c/w:     0.999 speedup

