25
 energy: -42.227456971141 gnorm: 0.028129311257 xtb: 6.6.1 (8d0f1dd)
C            3.71002698941942        0.80447484628693       -0.40630556481007
N            2.61326516715562       -0.07854389966105       -0.13033960560148
C            2.67491654901645       -1.39432044489299        0.09566072771933
N            1.42014643696000       -1.88967902645876        0.27122408284657
C            0.53748323709655       -0.85718771354245        0.14746180624953
C            1.28483042649920        0.29141438045794       -0.10342925806112
C            0.67489435191426        1.58521344530065       -0.26629073755466
O            1.24694292131826        2.63482093369056       -0.43738654071308
N           -2.75824311084900        0.29151794824710        0.08293981486142
C           -3.61905019836570        1.40828677189817       -0.09975420705481
C           -1.48630958510677        0.34081296558800        0.03694558574282
O           -0.73711991091681        1.47120889254155       -0.18344055715700
N           -0.80955150802512       -0.86983480145105        0.23148127282320
C           -1.54126708347253       -2.09349573744130        0.48171521030087
H            4.63210745732629        0.38814973485048       -0.00693906862571
H            3.81821459092337        0.94708135377366       -1.48419617382838
H            3.51208886003712        1.77917231617714        0.03873210786026
H            3.57216913341252       -1.97641311680865        0.13735530194831
H           -3.24008041155465        2.31335505436476        0.38318473984031
H           -3.74213162680123        1.61551217139447       -1.16738064946472
H           -4.59243399167666        1.14248768833186        0.31499029775233
H           -1.36645791131786       -2.44110136299916        1.50271337638916
H           -1.24198552786852       -2.86312159635560       -0.23220953979603
H           -2.60145302293959       -1.87740010156515        0.35684569495652
H            1.19942928192213       -2.85417216016523        0.46759350127483
25
 energy: -42.229422343260 gnorm: 0.010608890630 xtb: 6.6.1 (8d0f1dd)
C            3.70604134338536        0.80784045782649       -0.40538206128435
N            2.61118310534765       -0.07798761350342       -0.13040428422652
C            2.67773313836097       -1.39373408692095        0.09691938187865
N            1.42448955418998       -1.89394623083220        0.27139396139319
C            0.53908968602605       -0.86484134418856        0.14612187066380
C            1.28083543412900        0.28640009316550       -0.10529134218244
C            0.65286927080187        1.57155662558204       -0.26363380010132
O            1.19076479851318        2.62924112336776       -0.43744554026800
N           -2.74148491833572        0.30510540267724        0.07954200713513
C           -3.60181430318987        1.42234232986307       -0.10173140271891
C           -1.47817085438381        0.33471376985826        0.03552396580068
O           -0.74596798069183        1.46157541697674       -0.18280787832269
N           -0.80720266795595       -0.87834519821688        0.22894583971978
C           -1.54116420457105       -2.09935513581525        0.48166609264081
H            4.62851081886026        0.39389626852367       -0.00391369151513
H            3.81610821810148        0.94963796338125       -1.48315474171618
H            3.50492702002650        1.78243530664965        0.03871181112595
H            3.57658477956032       -1.97317295338422        0.14004286133746
H           -3.22293861490754        2.32832575579391        0.37820352043539
H           -3.73318067995461        1.62551134863284       -1.16844311166611
H           -4.57271519744640        1.15687386846091        0.31834234235896
H           -1.36380974395561       -2.44697215792229        1.50090657262076
H           -1.24706011849588       -2.86946544015165       -0.23211043711614
H           -2.59988232355325       -1.88050313441547        0.36066066456665
H            1.20668595424566       -2.85889389384657        0.46850901733897
25
 energy: -42.229985530098 gnorm: 0.004957886081 xtb: 6.6.1 (8d0f1dd)
C            3.70085144217688        0.81361894563879       -0.40355982171921
N            2.60964012161270       -0.07714927851910       -0.12986623015466
C            2.68214336270043       -1.39281153497883        0.09926925842206
N            1.43038999014565       -1.89934495246198        0.27153843465570
C            0.54093445035785       -0.87453926100069        0.14358986251415
C            1.27765998874848        0.28046177351828       -0.10907530718505
C            0.63399368210561        1.55881838187164       -0.26543244138434
O            1.14002252257642        2.63091539094290       -0.44060654307146
N           -2.73264242704351        0.31557170422798        0.07618121867883
C           -3.58533424174917        1.43791075050263       -0.10256004283509
C           -1.47239300225527        0.32390141715064        0.03383543526782
O           -0.75205486793183        1.44772224470892       -0.18291170322087
N           -0.80595466404147       -0.89113234483384        0.22493953364891
C           -1.54379350627196       -2.10827351612050        0.48150703207237
H            4.62394552310587        0.40481721436674        0.00183713644856
H            3.81391004162243        0.95376949533459       -1.48125927277017
H            3.49381414772774        1.78792110406463        0.03870119084043
H            3.58316679055886       -1.96846612505550        0.14473548874983
H           -3.19653688214771        2.34305371874166        0.37089293199678
H           -3.72281372180305        1.63611516189937       -1.16880585118217
H           -4.55414283939412        1.18028157269670        0.32674778878322
H           -1.36175863796376       -2.45704703418418        1.49905527675844
H           -1.25779826043764       -2.87935462607191       -0.23391185762742
H           -2.60151778248958       -1.88352368596725        0.36674360005051
H            1.21670028419688       -2.86499797490984        0.46958650016122
25
 energy: -42.230051718826 gnorm: 0.002686834157 xtb: 6.6.1 (8d0f1dd)
C            3.69792647039729        0.81734374983266       -0.40212686638778
N            2.60889249899954       -0.07641495311640       -0.12957586608744
C            2.68381133897112       -1.39180399996943        0.10074794545286
N            1.43250696875663       -1.90063918349433        0.27146211482997
C            0.54095586947545       -0.87779436762572        0.14157079075574
C            1.27663862524836        0.27868711242920       -0.11130942666706
C            0.63041711414974        1.55541381528826       -0.26758817487418
O            1.13009440169795        2.63121930213669       -0.44423225618674
N           -2.73450148474131        0.31488736848279        0.07548447794926
C           -3.57888884580788        1.44323955345650       -0.10183698456669
C           -1.47311576765675        0.31722327793777        0.03259184145392
O           -0.75330958804983        1.44141194168398       -0.18428720358095
N           -0.80680079566168       -0.89730870895786        0.22214962034416
C           -1.54590883024490       -2.11315845162132        0.48100561016523
H            4.62144146183996        0.41241005192810        0.00616550638726
H            3.81302796696620        0.95638991904138       -1.47974172328916
H            3.48651053160012        1.79153813121766        0.03842268498153
H            3.58586231608330       -1.96566583584292        0.14810489178226
H           -3.17966328728308        2.34721438232257        0.36609163659814
H           -3.71965693692130        1.63913444325142       -1.16804381925369
H           -4.54722822428159        1.19510814261300        0.33386225063553
H           -1.36051733823912       -2.46359163172312        1.49753026472796
H           -1.26529663843421       -2.88483115243292       -0.23615805652540
H           -2.60358083064794       -1.88512978779945        0.37086778695952
H            1.22081451789066       -2.86664457747662        0.47001457229414
