25
 energy: 0.000000000000 xtb: 6.6.1 (8d0f1dd)
C            3.23720163006194        1.16630919979326        0.08434469647475
N            2.29877817382611        0.07527477071623        0.03981603040599
C            2.58028210190900       -1.21425402444508        0.03006176031096
N            1.43813958087363       -1.93419271955128        0.00098261760884
C            0.39035688448383       -1.05887472636071       -0.00790371836672
C            0.93510056364412        0.21347819449412        0.01709077491437
C            0.09450143893243        1.40504303904423       -0.00410947031874
O            0.49712751527797        2.54126714362870       -0.00342325688240
N           -1.25076640035757        1.06271879480407       -0.03085478223738
C           -2.21907211982101        2.15522099834493       -0.05001256985998
C           -1.81739487048744       -0.20012725993278       -0.04692818574614
O           -2.99983886758376       -0.37846417018721       -0.07008878229737
N           -0.92618586207120       -1.30210215599479       -0.03682761578324
C           -1.46982264913417       -2.64643102187190       -0.06029820460571
H            3.71247264356769        1.21471455160235        1.06488849150277
H            4.00791497605742        1.03430808813993       -0.67357694370751
H            2.69910007168542        2.09770118228144       -0.09130154882931
H            3.56654120610678       -1.63682992603973        0.04233140067262
H           -1.67107961066214        3.09322851271934       -0.02552706933167
H           -2.82428953597071        2.09428624779827       -0.95318082946668
H           -2.87644029173232        2.07745725625962        0.81450067533302
H           -1.17061996399332       -3.19584890659852        0.83242232437030
H           -1.14560257411436       -3.17511610292205       -0.95688275822323
H           -2.55549792440841       -2.55659984320617       -0.07459039797972
H            1.38130855184625       -2.94313852034425       -0.01389874181052
25
 energy: -5.370244356824 xtb: 6.6.1 (8d0f1dd)
C            3.24164663779844        1.18148515266061        0.08208614973803
N            2.31009166156531        0.09602643194139        0.03464898963798
C            2.60831770328068       -1.23194950499087        0.02915068890163
N            1.43213940487844       -1.94121770702325        0.00021604468627
C            0.39836960884705       -1.05869611047173       -0.00928727776510
C            0.93140014635817        0.21998444577066        0.01247893122109
C            0.10167988358203        1.39295262214049       -0.00449256314736
O            0.49962961337711        2.55820723182029       -0.00189854178456
N           -1.26092884342445        1.04967260613824       -0.02921760405905
C           -2.22087110202453        2.14687503664560       -0.04571532975051
C           -1.82406650264501       -0.20150891901200       -0.04669440422432
O           -3.02091065543157       -0.38341226904095       -0.06939955375991
N           -0.93399260464855       -1.30209119307008       -0.03747405597691
C           -1.47669217648774       -2.64234672824101       -0.06149869416391
H            3.69266807014426        1.24905537097197        1.07510190594453
H            4.03870409075034        1.01989591562354       -0.65302289017039
H            2.69788377374651        2.10363887192297       -0.12031674122183
H            3.59004148784851       -1.65581937302276        0.03947974301330
H           -1.65943105754435        3.07824305692804       -0.02014905305710
H           -2.82718985121531        2.09571345728388       -0.94971131919013
H           -2.87859293259936        2.07661954290334        0.82010581827241
H           -1.17584547488037       -3.19515181481368        0.83036405536595
H           -1.15048363882269       -3.17337387851765       -0.95779649583172
H           -2.56203188744203       -2.54848826008824       -0.07601011279906
H            1.36067931292533       -2.94528538228675       -0.01391379373200
25
 energy: -5.856846094254 xtb: 6.6.1 (8d0f1dd)
C            3.24625819296215        1.19699141181580        0.07688674243242
N            2.32170978411250        0.11149593694710        0.02226096720324
C            2.63544155527732       -1.24771755047934        0.02808220839122
N            1.42733908506798       -1.94311888286931       -0.00133991300266
C            0.40760753243871       -1.05949332519057       -0.01371520802327
C            0.92959385431803        0.22442159196685        0.00129072359660
C            0.10978898345585        1.37371117763502       -0.00633181166888
O            0.48977349087628        2.55811789714871        0.00040158194124
N           -1.27289424504214        1.03406497381156       -0.02525036602798
C           -2.22116404771600        2.13730961064857       -0.03408442176870
C           -1.82659961820103       -0.20542077904552       -0.04546279240134
O           -3.02997423853741       -0.39387096448817       -0.06641920416641
N           -0.93912656936726       -1.30143049580305       -0.03946659281420
C           -1.48716828152098       -2.63582539761126       -0.06495056906492
H            3.63439788217561        1.32880596631317        1.09865591740920
H            4.10513357942630        0.98701988147766       -0.59360667317455
H            2.70755215661431        2.10693800961677       -0.20440323624672
H            3.61382560037070       -1.67338902156891        0.03295293373723
H           -1.63906913898323        3.05698387405593       -0.00552984942630
H           -2.83097714460895        2.10063986607964       -0.93744054623038
H           -2.87875879600193        2.07446738918127        0.83328781525779
H           -1.19079520269736       -3.19524608650680        0.82561595407126
H           -1.16478759919440       -3.17092516716437       -0.96155804933076
H           -2.57221400967819       -2.53108627230596       -0.07969494822077
H            1.33732186238943       -2.94441504149279       -0.01314676632511
25
 energy: -0.887551220821 xtb: 6.6.1 (8d0f1dd)
C            3.25007745283085        1.21731141170343        0.06715077338005
N            2.33778720109638        0.12556476034722       -0.00100507812197
C            2.66959299311853       -1.26676696919467        0.02697460062709
N            1.42742968858120       -1.94607928864164       -0.00377186018534
C            0.42133105726168       -1.06480693535330       -0.02274359002940
C            0.93120620655904        0.22607932124843       -0.01911448188298
C            0.12006139581382        1.35060834673421       -0.00967006009625
O            0.47126402334390        2.55338143884924        0.00250956950208
N           -1.28746886742748        1.01527041123649       -0.01723243559783
C           -2.21977348508601        2.12616704755044       -0.00997190681215
C           -1.82686049972559       -0.21383680597651       -0.04263406884956
O           -3.03511411705500       -0.41320776887784       -0.06029712652286
N           -0.94062871544436       -1.30326697614716       -0.04386855461360
C           -1.50435294813471       -2.62791775163404       -0.07254388982560
H            3.50343719641760        1.48212223143414        1.14145109794548
H            4.22415562938723        0.92016019426238       -0.46646106080862
H            2.73699470854272        2.10404032181115       -0.38256512788356
H            3.64589305724815       -1.69387177781193        0.01860301605790
H           -1.60962708385309        3.02878966967338        0.02501456500792
H           -2.83597036238677        2.11159620041132       -0.91084936447361
H           -2.87519603736141        2.06926690895902        0.86018620501240
H           -1.22137091090667       -3.19799869908764        0.81665316326012
H           -1.19359559378563       -3.16887187000797       -0.97069063160283
H           -2.58865118326891       -2.49965669741155       -0.08778672697067
H            1.31159386217092       -2.94504812190465       -0.01030313036890
25
 energy: 8.663418337412 xtb: 6.6.1 (8d0f1dd)
C            3.24880343768771        1.23499113916484        0.05776155132311
N            2.35252396744887        0.13226630085631       -0.02317537782036
C            2.69950527525234       -1.28095770334513        0.02604128539396
N            1.43558124136381       -1.95059748773123       -0.00329267950935
C            0.43484732540728       -1.07400491074185       -0.03069279311240
C            0.93672265716055        0.22236509096979       -0.03638392294008
C            0.12826590155389        1.33459764718492       -0.01133684178343
O            0.45402422749951        2.54500140625250        0.00228273444742
N           -1.29801091265436        1.00195180308094       -0.00904973315749
C           -2.21721347545042        2.11855794471131        0.01525780038993
C           -1.82446199480004       -0.22372544828968       -0.04038600048764
O           -3.03381114750087       -0.43320819904174       -0.05655818149841
N           -0.93673491747064       -1.30834586705754       -0.04857787107150
C           -1.52315005237548       -2.62262535617410       -0.08134830110469
H            3.35858096854437        1.64060954951024        1.16387073465662
H            4.32586868328538        0.86044808884427       -0.32221631095122
H            2.78568259159619        2.09129359433739       -0.56381049619432
H            3.67702838780561       -1.70729066267833       -0.00075593740775
H           -1.58501549335497        3.00636565032092        0.05816568777951
H           -2.83894368679534        2.12484411647635       -0.88270696953329
H           -2.86988463043261        2.06278960494053        0.88773903224941
H           -1.26079461919159       -3.20296909071878        0.80794781527016
H           -1.22746270407095       -3.17003281474845       -0.98077285841554
H           -2.60612079161958       -2.46490699517465       -0.09901560063814
H            1.29638442904783       -2.94838879877694       -0.00195286973724
25
 energy: 8.337262986152 xtb: 6.6.1 (8d0f1dd)
C            3.24082477312403        1.24232720940137        0.05291585668747
N            2.35966568328929        0.12497069328019       -0.03362751118927
C            2.71111525488898       -1.28111943605438        0.02518669918319
N            1.45267827815632       -1.95358194454847        0.00232251851173
C            0.44239531265940       -1.08485265835153       -0.03237366631224
C            0.94619711413926        0.21232087100338       -0.03914866195317
C            0.13073027174763        1.33449532630739       -0.00933376230487
O            0.44251766438520        2.53111251662266       -0.00084818851101
N           -1.29903791780998        1.00147439551337       -0.00493007918933
C           -2.21384780175270        2.11854153578236        0.02880982393707
C           -1.81903155883696       -0.23231276415545       -0.04042144301967
O           -3.02192932610751       -0.44664666012353       -0.05962069875114
N           -0.92596663676474       -1.31577510865620       -0.05086438634252
C           -1.53707322415141       -2.62285677677290       -0.08733280512989
H            3.26808127345602        1.72952101857579        1.13289160993383
H            4.34579821100346        0.84961334813707       -0.22119784853309
H            2.84476706197049        2.06863600756356       -0.64806428997025
H            3.69445127032213       -1.70450086491824       -0.02060613705832
H           -1.57540769484044        2.99919580540224        0.07820505820719
H           -2.83675165706551        2.13529690300626       -0.86715201353294
H           -2.86531136462548        2.05780398467107        0.90115430341626
H           -1.29919795558871       -3.20795396390845        0.80465674003867
H           -1.25526925439928       -3.17537722038879       -0.98641033940139
H           -2.61822421635201       -2.43868004934518       -0.11020977949095
H            1.30004110708910       -2.95262356587171        0.01303289692191
25
 energy: -0.560929539295 xtb: 6.6.1 (8d0f1dd)
C            3.22827091974651        1.24165512337127        0.05319016740817
N            2.36095670267958        0.09963570192070       -0.03332178126563
C            2.69952776865517       -1.25332680064684        0.03153673573820
N            1.48960385994859       -1.95097697272507        0.01226349978728
C            0.44239347711842       -1.09741178133054       -0.02990864130930
C            0.96492116868104        0.19317906767587       -0.03003739212819
C            0.13138045595763        1.35241183611139       -0.01150407923691
O            0.44025768191736        2.50905743118261       -0.00592636210456
N           -1.28010020485178        1.01038514611210       -0.00561570384151
C           -2.20457213613416        2.12222672929626        0.03900592405397
C           -1.80907745552094       -0.24230304795164       -0.04353541216964
O           -2.99721666099803       -0.44854410062628       -0.06733038507404
N           -0.90266523983933       -1.32942374877296       -0.05189976945889
C           -1.54947065562175       -2.63073116728343       -0.09312317072079
H            3.16586034964264        1.77714476789335        1.01522767495765
H            4.27439948647409        0.88210753946390       -0.09567770597227
H            2.95355969248075        1.99723811553414       -0.68802214407078
H            3.69402870088265       -1.67310214239195       -0.04682888816661
H           -1.58062812259540        3.00620806074169        0.09650846582121
H           -2.82690967944714        2.14612817320529       -0.85443224609346
H           -2.85598830041331        2.04800321278732        0.90959856764022
H           -1.34790234909313       -3.21420530710875        0.80431787911708
H           -1.28375481759952       -3.18645775350959       -0.98973137124737
H           -2.62546762771439       -2.41677804970506       -0.12627761937220
H            1.33080765358109       -2.95309143107194        0.03855765385569
25
 energy: 6.477516288472 xtb: 6.6.1 (8d0f1dd)
C            3.21914875089848        1.25310170161850        0.04285966840113
N            2.36741964054017        0.09825831626116       -0.04887396701132
C            2.71459445540643       -1.24356315017974        0.04137964420026
N            1.51392346218349       -1.95450463612556        0.01817346212377
C            0.45143834385101       -1.10980804376311       -0.03276466417023
C            0.97201378921837        0.18265522462479       -0.03956773114655
C            0.14249817307576        1.34562699903190       -0.01728958663102
O            0.44362010378944        2.50675001542630       -0.00575904411436
N           -1.26909984426137        0.99938504325528       -0.00015506417724
C           -2.19330950957423        2.11460038319992        0.06800889831242
C           -1.79994411558724       -0.25176506382610       -0.04409519633833
O           -2.98923049335287       -0.45286941301111       -0.06821807187296
N           -0.89177566660529       -1.34317240580529       -0.05515104940392
C           -1.57050309678711       -2.63319807343337       -0.10405374175030
H            2.96339896821028        1.92549211032795        0.96930472368527
H            4.32085118828008        0.84121078911609        0.10117944324115
H            3.05722082892973        1.93576939990901       -0.88274991343061
H            3.71212072790666       -1.65532502834052       -0.08058528142165
H           -1.57165999628272        2.99961519004639        0.13952311468328
H           -2.82020917645053        2.16101128348367       -0.82266726230794
H           -2.84244862510072        2.02946867286396        0.93987921501817
H           -1.40466028965692       -3.22441927946900        0.79657066954224
H           -1.31947939278517       -3.19663482942867       -0.99922493654598
H           -2.64072462201606       -2.38403596285899       -0.14847886101362
H            1.34701106410712       -2.95462064075165        0.05978942827567
25
 energy: 6.066945044428 xtb: 6.6.1 (8d0f1dd)
C            3.21053014373960        1.25923254355621        0.03188827401128
N            2.36408056934812        0.10223551433268       -0.05761289417803
C            2.71627516538583       -1.22956128520517        0.05775698734021
N            1.52469342421000       -1.95537645259236        0.02675964205416
C            0.45429671366725       -1.11504792595983       -0.03112773802567
C            0.96965667899129        0.17945898318914       -0.04547271604841
C            0.14943343085393        1.33975839161975       -0.02664122445342
O            0.46025639753031        2.51809484147718       -0.01043049513550
N           -1.25322370699428        0.99086708285518       -0.00131270945787
C           -2.18123850860574        2.10678852322769        0.08268830365305
C           -1.79142144552851       -0.25261926590983       -0.04674053948008
O           -2.98623828342848       -0.44249943801969       -0.07205535495890
N           -0.89011893026838       -1.35311786369287       -0.05544062166958
C           -1.58181630265044       -2.63622140622583       -0.11004554062501
H            2.85432326964924        1.97103222689613        0.89472373472144
H            4.30761068341056        0.84971949126262        0.20908347004658
H            3.12575005748200        1.88016003048078       -0.94566748837697
H            3.71082162048591       -1.63365862891451       -0.09714912966340
H           -1.56700709611787        2.99961103734015        0.16808929328026
H           -2.80882190535986        2.16540856654607       -0.80768585112092
H           -2.82814456649768        2.00633693490973        0.95501762675892
H           -1.43962996221934       -3.22961932242412        0.79404850587264
H           -1.33071600575867       -3.20718183837306       -1.00096381914565
H           -2.64652400109079       -2.37117678793453       -0.16831658309515
H            1.36938722770278       -2.95359535026972        0.08364076384335
25
 energy: -0.207946766162 xtb: 6.6.1 (8d0f1dd)
C            3.20094359815521        1.26737179177787        0.02323500036688
N            2.35359940121549        0.11390688218734       -0.05760274405790
C            2.71302039754889       -1.21284315069513        0.09407093378854
N            1.52570345276127       -1.95627035510440        0.03893715553116
C            0.45594782145345       -1.11663687655749       -0.02658252361025
C            0.95827547456178        0.18163375106295       -0.05198873498790
C            0.15401649254937        1.32796262441996       -0.03924103216196
O            0.50063401432951        2.53161601864970       -0.01916693524603
N           -1.23012830065213        0.98342811588030       -0.00484660408880
C           -2.16586777803936        2.09686793207281        0.09475275910542
C           -1.77902631412529       -0.24480466289882       -0.05184551547033
O           -2.98600546019598       -0.41743855471795       -0.07983155567543
N           -0.89631418470918       -1.36293953695252       -0.05474269690276
C           -1.59058245032025       -2.63794210295269       -0.11699564547107
H            2.77140418318360        1.97791660527906        0.76759978445010
H            4.23185647575579        0.89605813927683        0.29750646668236
H            3.19896605358602        1.79941480876851       -0.95640503622570
H            3.69599404991669       -1.60725111203902       -0.11012485291717
H           -1.56263778294405        3.00214398476249        0.19889457467197
H           -2.78942696624358        2.16446666469130       -0.79754390709091
H           -2.81075709924148        1.97096070232999        0.96564163250201
H           -1.47089718466930       -3.23066308273703        0.79107505674048
H           -1.32419813507881       -3.22017266261742       -0.99872216676760
H           -2.64779010330903       -2.36543945864584       -0.19801022644499
H            1.40548501244813       -2.95231786306899        0.11897070942722
25
 energy: 2.230690360930 xtb: 6.6.1 (8d0f1dd)
C            3.18553409495969        1.27799447196762        0.01300138889052
N            2.34962870792777        0.11230479880675       -0.06038875311100
C            2.71767320977072       -1.20715285886193        0.13240157101300
N            1.53329245736273       -1.95984685424956        0.05373228784753
C            0.46069558768449       -1.12610073482711       -0.02550163791208
C            0.95742602625379        0.17372311451797       -0.06229021641520
C            0.15812027646703        1.32117317448280       -0.04672462351044
O            0.52912324453862        2.51391653953252       -0.02870133551800
N           -1.21602662948939        0.98632963786635       -0.00197646487274
C           -2.15315028658123        2.09380211045017        0.11869235619874
C           -1.76625484370789       -0.24077084684440       -0.05724547483686
O           -2.97457928050645       -0.40417129149465       -0.08814446795885
N           -0.89448591041266       -1.37195021414396       -0.05722982717084
C           -1.60444722547795       -2.63708506398039       -0.12955191073867
H            2.62588589733767        2.07106065235040        0.62453386599949
H            4.17658757356455        0.93252314650189        0.45823921398526
H            3.31534950837543        1.70235810699806       -1.04068280120887
H            3.69454941973497       -1.59252523725945       -0.14176843094387
H           -1.55214931759146        2.99779118868126        0.24424605575566
H           -2.77072507020012        2.17395436284129       -0.77484869087962
H           -2.79637335157612        1.93645866996867        0.98584283889476
H           -1.51943209811827       -3.22913065116456        0.78482332671497
H           -1.32231276627164       -3.23126775096651       -0.99861287440656
H           -2.65574941361390       -2.34745858298214       -0.24054247062179
H            1.43403485750648       -2.95690128601932        0.16573097095280
25
 energy: 0.782082104241 xtb: 6.6.1 (8d0f1dd)
C            3.17294057621867        1.28484759168380        0.00098532272065
N            2.34374579520220        0.10878571317266       -0.05837451746484
C            2.71698538415544       -1.21109429796920        0.17150222936291
N            1.52806233737318       -1.96324847970567        0.06911678353688
C            0.46177114866970       -1.13179155773371       -0.02521401598757
C            0.95635847624510        0.16713228092219       -0.07473901817533
C            0.15373126956940        1.31985817021008       -0.05356527181512
O            0.54267087272538        2.49797527321427       -0.03839064538022
N           -1.21229565914914        0.99501322401219       -0.00023500501309
C           -2.14701773490266        2.09690423775253        0.13527281335935
C           -1.75940322681009       -0.23667965810181       -0.06363316521139
O           -2.96605029062976       -0.39778466242989       -0.09666719104863
N           -0.89526516387289       -1.37236159309175       -0.06015651891588
C           -1.60687053934138       -2.63325143485855       -0.13972785403621
H            2.56034918853075        2.10750595720489        0.48181797514803
H            4.11562653606658        0.98889462793464        0.55919666381305
H            3.40136734318371        1.62381604716096       -1.05231415114388
H            3.68095230602588       -1.59121843903993       -0.16256126507267
H           -1.54467385729327        2.99451598189302        0.27840355742007
H           -2.75804891307659        2.18637646148343       -0.76071365503836
H           -2.79136985819209        1.91435248132355        0.99541955845761
H           -1.54549706238133       -3.21705494718302        0.78239974543253
H           -1.29561976018341       -3.23754081053265       -0.99265392087067
H           -2.65497597081492       -2.34372338902397       -0.28295169426726
H            1.45474147061835       -2.96120017612633        0.21481713633745
25
 energy: -1.854870456717 xtb: 6.6.1 (8d0f1dd)
C            3.17010979120826        1.28022535566127       -0.00666113355659
N            2.33889490115749        0.10216321149587       -0.04468330600897
C            2.71129427988340       -1.22259333896970        0.21483803589858
N            1.51181659784460       -1.96665692035129        0.08947816063476
C            0.45818829687497       -1.13240866200705       -0.02413386390437
C            0.95749577544843        0.16206890633737       -0.08727038839570
C            0.14577822286112        1.32255385249630       -0.06351214643682
O            0.53837181316497        2.48853977063931       -0.04743794156401
N           -1.21545863241541        1.00435800818318       -0.00149506915278
C           -2.14597671901354        2.10377606401906        0.15050899548354
C           -1.76000237867546       -0.23465967986570       -0.07021390268700
O           -2.96464644294151       -0.39598373461662       -0.10679036225047
N           -0.89783771861873       -1.36345840622647       -0.06496841359639
C           -1.59594474806202       -2.62836408850042       -0.15175965697908
H            2.53898576503248        2.12516218807997        0.33873062921496
H            4.03649107380333        1.05740523694977        0.62360687949997
H            3.49539002609102        1.53844941330569       -1.04253764627477
H            3.65190480824597       -1.60258700748800       -0.17666652410480
H           -1.54203709821123        2.99344013328098        0.31448154518168
H           -2.75266337828621        2.21074060686760       -0.74807403582727
H           -2.79581010699872        1.90218962813653        1.00016248970811
H           -1.55419339623252       -3.19451696130568        0.78150198694664
H           -1.24020573999682       -3.24099006806489       -0.98253141463127
H           -2.64196262971553       -2.35866465919817       -0.33437693296809
H            1.46423230548850       -2.96116024668719        0.26683791191749
25
 energy: -0.503165916092 xtb: 6.6.1 (8d0f1dd)
C            3.16500804181693        1.27302080718443       -0.03045005192465
N            2.33210002099224        0.09691669051560       -0.04200478140554
C            2.70175229791328       -1.23175863061546        0.25805228030395
N            1.49168117038081       -1.96930723570232        0.11712968397863
C            0.45049102358805       -1.12942744593168       -0.02339957656106
C            0.95721033928896        0.15912743005828       -0.10839263744764
C            0.13856665035318        1.32547823137730       -0.08128187345711
O            0.52750533964637        2.48678621732566       -0.06394886494033
N           -1.21923623834057        1.01015418619732       -0.00511817769755
C           -2.14568907777309        2.10986631142900        0.17247208889800
C           -1.76503500790697       -0.23436197845032       -0.07560912568927
O           -2.96964586039296       -0.39395035596433       -0.11524821838006
N           -0.90218046539125       -1.35123966122165       -0.07012240353556
C           -1.57834214046015       -2.62561094914397       -0.16462977670588
H            2.47543654226727        2.14911083001480        0.14141002234830
H            3.98495515387906        1.13743882192382        0.76563832057184
H            3.63419207085924        1.41903266778052       -1.04463098923638
H            3.61037913026806       -1.61443458122365       -0.20566363554655
H           -1.54184678103131        2.99308122307292        0.36691439418804
H           -2.74859918624785        2.24745498245267       -0.72749523066618
H           -2.80351715632944        1.88668114358122        1.00996519697161
H           -1.56478886658727       -3.16679981069632        0.78459171634287
H           -1.16454954178510       -3.24780171530209       -0.96470608377293
H           -2.62072359791676       -2.38404641192883       -0.40082934559183
H            1.46709080684613       -2.95638216456122        0.33439096510263
25
 energy: -2.896015532920 xtb: 6.6.1 (8d0f1dd)
C            3.17321744810945        1.25967768762970       -0.04043761916092
N            2.33064833236825        0.09504626074576       -0.02728415338291
C            2.69053053741182       -1.23697820757161        0.26765223667583
N            1.47379345239553       -1.96723751844482        0.13996217148267
C            0.44146337275813       -1.11826919882464       -0.01661333674507
C            0.95740026388143        0.16528217669380       -0.10876073935408
C            0.13487169986067        1.33080741925778       -0.08941538659979
O            0.51265789086412        2.49741751645152       -0.07744356226574
N           -1.22640931265563        1.01240965645484       -0.01059159451901
C           -2.15077455320951        2.11458336943798        0.17889608440119
C           -1.77566529035861       -0.23402239758377       -0.07912899454621
O           -2.97998722631740       -0.39646647298642       -0.12083319798371
N           -0.90698442323946       -1.33691798027027       -0.07327028643405
C           -1.55611819060253       -2.62631104081467       -0.17171790066081
H            2.49935677105697        2.13695509531358        0.06507931224282
H            3.95009415296296        1.16942817901354        0.77786930315914
H            3.68418722754575        1.36294273045862       -1.01486318215920
H            3.57789191192892       -1.62918353683314       -0.21522143871394
H           -1.54769532963380        2.99528472068581        0.39364180547991
H           -2.74896298892498        2.27297884806096       -0.72169696794566
H           -2.81669867765983        1.88309648000964        1.00865694291349
H           -1.55616446381182       -3.15134055762331        0.78812368840258
H           -1.09908006219056       -3.24824769776182       -0.94937459224249
H           -2.59798676900899       -2.41431308524137       -0.44511754032780
H            1.44862889440598       -2.94759384408597        0.36892284443111
25