25
 energy: -42.446103416264 xtb: 6.6.1 (8d0f1dd)
C            3.28895559900692        1.26145885597073        0.11066893158821
N            2.36692027027465        0.15337914578444        0.07463371461774
C            2.66334871147277       -1.14124060463101        0.06284554184991
N            1.53914415458389       -1.87995853004336        0.07363040619781
C            0.43880535822346       -1.03718076642658        0.06462378795532
C            0.98584151447852        0.27914814178496        0.05683384053233
C            0.19093363204636        1.43175854666848        0.00533027100843
O            0.55306854653307        2.60980415037407        0.00114278439491
N           -1.18346428900611        1.07160800162464       -0.07321319548408
C           -2.13226280830128        2.16978368881440       -0.15389118065276
C           -1.75136698170855       -0.16980797090816       -0.06601141050724
O           -2.94932246101405       -0.32324405291136       -0.14282641691630
N           -0.88630442867378       -1.32814833872468        0.00799530706447
C           -1.49576857692613       -2.54086013366562       -0.10867333455152
H            3.89117392284112        1.23972675037805        1.01951191992718
H            3.95683996999661        1.23190673222837       -0.75354642073361
H            2.70443075137932        2.18356719763060        0.10501378745244
H            3.65869489125650       -1.52986001022899        0.16689855177783
H           -1.53808588540771        3.08394928313402       -0.12231595787591
H           -2.70063060666713        2.11858478631393       -1.08201021350777
H           -2.83080369311253        2.13860455327077        0.68316438945610
H           -0.88591064144982       -3.38885477303169       -0.36337540150016
H           -2.52893666799180       -2.46786864895703       -0.48177395036062
H           -3.39735201498644       -4.49767506762570        0.35653010643128
H            1.52391101793624       -2.89026543709762        0.10770209763951
