25
 energy: 0.000000000000 xtb: 6.6.1 (8d0f1dd)
C            3.23720132972391        1.16630909158653        0.08434468864950
N            2.29877796055224        0.07527476373246        0.03981602671198
C            2.58028186251803       -1.21425391179017        0.03006175752192
N            1.43813944744728       -1.93419254010258        0.00098261751768
C            0.39035684826767       -1.05887462812143       -0.00790371763344
C            0.93510047688824        0.21347817468824        0.01709077332874
C            0.09450143016486        1.40504290868848       -0.00410946993748
O            0.49712746915594        2.54126690785742       -0.00342325656480
N           -1.25076628431515        1.06271869620815       -0.03085477937476
C           -2.21907191394203        2.15522079838987       -0.05001256521996
C           -1.81739470187490       -0.20012724136556       -0.04692818139228
O           -2.99983858926755       -0.37846413507442       -0.07008877579474
N           -0.92618577614240       -1.30210203518959       -0.03682761236648
C           -1.46982251276835       -2.64643077634382       -0.06029819901142
H            3.71247229913541        1.21471443890471        1.06488839270555
H            4.00791460421487        1.03430799217987       -0.67357688121503
H            2.69909982127087        2.09770098766290       -0.09130154035862
H            3.56654087521359       -1.63682977417947        0.04233139674524
H           -1.67107945562430        3.09322822573871       -0.02552706696334
H           -2.82428927394145        2.09428605349656       -0.95318074103337
H           -2.87644002486466        2.07745706351925        0.81450059976605
H           -1.17061985538665       -3.19584861009707        0.83242224714061
H           -1.14560246782873       -3.17511580834413       -0.95688266944647
H           -2.55549768731684       -2.55659960601237       -0.07459039105944
H            1.38130842369251       -2.94313824728853       -0.01389874052104
25
 energy: -5.953061265150 xtb: 6.6.1 (8d0f1dd)
C            3.24199225056181        1.17901877403967        0.08635787923978
N            2.30667654460437        0.10659444300196        0.04000358978279
C            2.60750403500772       -1.23470457686948        0.04331815619555
N            1.42769469209852       -1.93527090977084        0.01077955740483
C            0.40288562664903       -1.06201420526216       -0.00954019457355
C            0.92133204078893        0.22712596242389        0.01830111500645
C            0.11825060041726        1.38705452352619       -0.00297960584026
O            0.49531650185296        2.56235733197041       -0.00563658498721
N           -1.26543056545869        1.04724468705219       -0.02707709946828
C           -2.21447613424881        2.14996816332080       -0.04992450663832
C           -1.81205543277108       -0.20038421852242       -0.04692739656202
O           -3.01236785983556       -0.38378328683636       -0.06665368879453
N           -0.93506235929747       -1.31245909139710       -0.06337070972107
C           -1.48118192625394       -2.65567254108127       -0.08008147723787
H            3.72023994822302        1.22776562002694        1.06856624552561
H            4.01186205725278        1.04251621188320       -0.67574676717507
H            2.69811680587198        2.10494779867629       -0.09312341657091
H            3.58500845513272       -1.64448359727876        0.05376588714273
H           -1.65326406293358        3.08278563535369       -0.02494755267086
H           -2.81924738723807        2.09961222380046       -0.95538073567576
H           -2.87395220807011        2.08295945062282        0.81465645735463
H           -1.12927182215466       -3.21970846708592        0.78531993058013
H           -1.23684264856379       -3.22762264556828       -0.98252362256305
H           -2.56280847839210       -2.54370409773097       -0.02034688057382
H            1.37627212019405       -2.93897178171467       -0.00054931601057
25
 energy: -5.007334425055 xtb: 6.6.1 (8d0f1dd)
C            3.24446791268057        1.18581386359674        0.08818914476749
N            2.31087739288645        0.11056028128130        0.04403712572979
C            2.61504853342838       -1.23155459926265        0.05143625712982
N            1.43502024347008       -1.93261254113335        0.01885965194613
C            0.40694408866522       -1.06432032541132       -0.01232871219415
C            0.92379947286572        0.22795365362947        0.01992244567949
C            0.12219366397547        1.38735110789903       -0.00115850865337
O            0.49680604572061        2.56373898564655       -0.00330429173654
N           -1.26246428055596        1.04313291698694       -0.02441937418559
C           -2.20943995126135        2.15002068717178       -0.05157907800144
C           -1.80706236834816       -0.20577288527944       -0.05170469646066
O           -3.00875397852058       -0.38437582179700       -0.05782669203099
N           -0.93215669000778       -1.32531145053470       -0.08872679621155
C           -1.49433694349181       -2.67063225685405       -0.09720983729009
H            3.72759640866536        1.23662426746885        1.06836228638175
H            4.01185540659571        1.05273207636280       -0.67736654906469
H            2.69883225573094        2.11158477834602       -0.08874919585459
H            3.59322283773676       -1.64240989411171        0.06054471572138
H           -1.64500415720139        3.08135667894448       -0.02726700876628
H           -2.81121336613649        2.10258376176581       -0.95941819426469
H           -2.87444277271481        2.09181157365126        0.80972288994092
H           -1.09388614476870       -3.24555196815505        0.73967420815658
H           -1.33085007856040       -3.27511985304780       -1.00336138463598
H           -2.56921922856780       -2.53795033256245        0.03205336154601
H            1.38102122000976       -2.93596958467320        0.01349577306680
25
 energy: -3.413217780962 xtb: 6.6.1 (8d0f1dd)
C            3.24636089642054        1.19251748630831        0.08895777430848
N            2.31393544185093        0.11552627333399        0.04910484237900
C            2.62151949140260       -1.22716795172940        0.06318341634937
N            1.44178860976927       -1.92903545762673        0.02783727953105
C            0.41003361571540       -1.06652237306094       -0.01369144044984
C            0.92504274980980        0.22914392209178        0.02251040350954
C            0.12603941723931        1.38787717669395        0.00022876278977
O            0.49824223372368        2.56576254078073       -0.00306534318500
N           -1.25894539839406        1.04086220590823       -0.02184489317597
C           -2.20407460006723        2.15055385575379       -0.05233783914690
C           -1.80167995292494       -0.20991878301199       -0.05663941310112
O           -3.00427085713116       -0.38398135246553       -0.05168945346845
N           -0.93008817561305       -1.33708254028071       -0.11367510156789
C           -1.50833539755759       -2.68551178510157       -0.11420096594448
H            3.73250944894439        1.24569043199522        1.06779716185237
H            4.01239792528292        1.05986586313247       -0.67850744916333
H            2.69957609522844        2.11773651017243       -0.08848302927198
H            3.60030639615882       -1.63823655683123        0.07047332907718
H           -1.63582883291660        3.08003590271368       -0.02795735900938
H           -2.80430960610599        2.10639009470469       -0.96167874504652
H           -2.87214330909008        2.09807918010990        0.80710993487147
H           -1.05564837006754       -3.26951458016225        0.69037779928659
H           -1.42786514797074       -3.31877541106822       -1.02104274609025
H           -2.57186724913879       -2.53158944077555        0.08518565611832
H            1.38719479652784       -2.93202246636960        0.02681561622817
25
 energy: -1.175114438952 xtb: 6.6.1 (8d0f1dd)
C            3.24754742391602        1.19932759184455        0.08952702173015
N            2.31575875671149        0.12096585273511        0.05443962474374
C            2.62695241659870       -1.22168036076158        0.07573475458634
N            1.44799500460494       -1.92525578938187        0.03730425045908
C            0.41050318073868       -1.07031197756052       -0.01075812026441
C            0.92483214315432        0.22961981037967        0.02610128448955
C            0.12982499481331        1.38893613807232        0.00136495143444
O            0.50025404365750        2.56799365723701       -0.00242812914801
N           -1.25522708911176        1.04129816858587       -0.02298852283117
C           -2.19879076574660        2.15241933372018       -0.05391160812782
C           -1.79715328452850       -0.21200942327979       -0.06246826116767
O           -3.00040633528096       -0.38165481774487       -0.04648387959497
N           -0.93072512780373       -1.34872596599393       -0.13572575856498
C           -1.52482616858980       -2.70212879757123       -0.13024353195388
H            3.73647921719478        1.25457228814804        1.06708605071078
H            4.01273542966762        1.06739280694107       -0.67949508168143
H            2.69980884957601        2.12401291672905       -0.08824276066573
H            3.60682954904306       -1.63171388297844        0.08064366095377
H           -1.62638061581708        3.07959368385727       -0.02842711325262
H           -2.79750916023863        2.11155815708014       -0.96458793426535
H           -2.86946812179852        2.10399195298805        0.80394022001679
H           -1.02067257420091       -3.29518310188030        0.63788004317855
H           -1.52532773935808       -3.35945804185785       -1.03640373568086
H           -2.57177993625119       -2.53322605405495        0.14072034238409
H            1.39535347747036       -2.92800324071227        0.03962098641870
25
 energy: 1.789275007278 xtb: 6.6.1 (8d0f1dd)
C            3.24884292303495        1.20598983820924        0.09074973618712
N            2.31693354262053        0.12683735461519        0.06020414169439
C            2.63065026612807       -1.21565003952871        0.08843676470511
N            1.45225400477243       -1.92049654797847        0.04586574203867
C            0.40829070595367       -1.07178406170099       -0.00744324697271
C            0.92385942723396        0.23111416111694        0.03052118443054
C            0.13351314781988        1.39148033943304        0.00259481809850
O            0.50159480906829        2.57161382317456       -0.00051425588900
N           -1.25193251571159        1.04246809249773       -0.02583009282964
C           -2.19378730241246        2.15506201254566       -0.05595411714277
C           -1.79460466904657       -0.21192942863253       -0.06541500390014
O           -2.99799921198534       -0.37815994278961       -0.03942315118280
N           -0.93389412252301       -1.35973421761588       -0.15605284201812
C           -1.54356135947511       -2.72151508254022       -0.14487476553415
H            3.74113114107253        1.26201724326910        1.06676060416553
H            4.01287488912205        1.07512978396402       -0.68023838637730
H            2.70087713097007        2.13075153086734       -0.08616948119252
H            3.61199054964231       -1.62421576939205        0.09161912862456
H           -1.61698138234591        3.07969221945783       -0.03112638196615
H           -2.79194345885724        2.11610939171086       -0.96713239822579
H           -2.86587746796088        2.11137237043018        0.80131321206519
H           -0.98758043114116       -3.32096508314272        0.58385881159488
H           -1.62333359707692       -3.39935000133212       -1.04896270268514
H           -2.56897139732527       -2.54017441424514        0.19723825692294
H            1.40308743833298       -2.92342426412084        0.05119621020269
25
 energy: 5.100367005944 xtb: 6.6.1 (8d0f1dd)
C            3.25036303328928        1.21310306513727        0.09179675883848
N            2.31856090053274        0.13301476355625        0.06719231505431
C            2.63401569201512       -1.20922610405237        0.10301069561311
N            1.45639781725190       -1.91555457029525        0.05358210288897
C            0.40713732691668       -1.07136437816295       -0.00498226895675
C            0.92415872701687        0.23351429618999        0.03609322023905
C            0.13752423313432        1.39494382646223        0.00519977601820
O            0.50376304841384        2.57595268558045        0.00352174724084
N           -1.24819522329321        1.04485338902787       -0.02740159786923
C           -2.18854308121610        2.15867658460351       -0.05836560686265
C           -1.79198536828821       -0.20979938323050       -0.06530730319203
O           -2.99496689677677       -0.37398764558795       -0.03163558774885
N           -0.93496827626300       -1.36643006197459       -0.17690397014844
C           -1.54925529600928       -2.73262940121694       -0.15875805648261
H            3.74700867611510        1.26987912661240        1.06561185418126
H            4.01218746518287        1.08339281776868       -0.68213517091623
H            2.70196072349162        2.13790208200381       -0.08391854380856
H            3.61673499946447       -1.61635862914892        0.10469773551172
H           -1.60840419031510        3.08135928668606       -0.03494075853929
H           -2.78571354644446        2.12011764469287       -0.97018255355362
H           -2.86212815875714        2.11949262170377        0.79805269884845
H           -0.95467507453457       -3.34425381543340        0.52784997442997
H           -1.71790977805490       -3.43388690314474       -1.05803048878577
H           -2.55065396643453       -2.55525233715459        0.25013279950262
H            1.41130558000903       -2.91889151367235        0.06085976783841
25
 energy: 8.926004386347 xtb: 6.6.1 (8d0f1dd)
C            3.25424784488511        1.22039464214172        0.09027212509531
N            2.32183380361663        0.14050986015574        0.07418004869623
C            2.63762789505352       -1.20189347315677        0.11929544104898
N            1.46011767328116       -1.90910064649303        0.06704812793510
C            0.40910033156193       -1.06611695704490        0.00193498078340
C            0.92766282945233        0.23959784169513        0.03602180246874
C            0.14149764209712        1.40163051833937        0.00538319457661
O            0.50584786956572        2.58321230848894        0.00341620242098
N           -1.24434581320435        1.05062870465808       -0.02998982090170
C           -2.18428353988933        2.16431247556445       -0.05724225125705
C           -1.78919974275695       -0.20352170838704       -0.06531411224555
O           -2.99164209971232       -0.36781495047381       -0.03046076565952
N           -0.93230090831677       -1.36232867617723       -0.17156012653522
C           -1.54655258270242       -2.73320341759122       -0.16561568852773
H            3.75376484700808        1.28147229057345        1.06234380993565
H            4.01449592166718        1.08732869643264       -0.68493833032134
H            2.70681405727874        2.14501442365001       -0.08919324738223
H            3.62101753735350       -1.60870355583336        0.11610886697472
H           -1.60161481695020        3.08512680288845       -0.02759751062003
H           -2.77872602890489        2.13079866978465       -0.97107312433303
H           -2.86075058886585        2.12285425823746        0.79680666876514
H           -0.92925188222558       -3.36965023487562        0.47269569378615
H           -1.79985736655095       -3.46323814135284       -1.06096997998511
H           -2.52600215911742       -2.57229866672587        0.29226411266083
H            1.41844654750015       -2.91290316919938        0.07777344394784
25
 energy: 13.902617124032 xtb: 6.6.1 (8d0f1dd)
C            3.25607751759059        1.22838397864477        0.09237541997367
N            2.32478149708950        0.14739050811153        0.08347657020448
C            2.64129198486340       -1.19503655042942        0.13161731900875
N            1.46447595642263       -1.90355380847953        0.07904791325820
C            0.41181547125330       -1.06138550464742        0.00867854621685
C            0.93128557426587        0.24454889286055        0.03701875495639
C            0.14457406954968        1.40664429774107        0.00584694722934
O            0.50794456467841        2.58834379183182        0.00072383307322
N           -1.24090345991568        1.05509719438948       -0.02911613576778
C           -2.17909049514388        2.16921952258800       -0.05944697892466
C           -1.78704185680351       -0.19839374062128       -0.05643686026489
O           -2.98875246022013       -0.36359961261167       -0.02073504051643
N           -0.92942599946412       -1.35715533841861       -0.16144072764065
C           -1.54559634689905       -2.72968328226819       -0.17208019881613
H            3.75917591062306        1.29230520531637        1.06244304565572
H            4.01357642283461        1.09584107607233       -0.68573791941971
H            2.70714390055737        2.15210273171957       -0.08719941720661
H            3.62560931918021       -1.60101476482462        0.11935361281584
H           -1.59124925165094        3.08658733045386       -0.03074717130629
H           -2.77050720954299        2.13488952801945       -0.97522076821674
H           -2.85820852930445        2.13297800232548        0.79273273244565
H           -0.90156131042392       -3.39036674961860        0.40718045831633
H           -1.88616776658597       -3.49386879068684       -1.06222785309474
H           -2.49777286407880       -2.57957871247520        0.33674225976188
H            1.42697569674196       -2.90787360661062        0.09322008296162
25
 energy: 20.284769017889 xtb: 6.6.1 (8d0f1dd)
C            3.25778052164342        1.23560496093452        0.09466357059288
N            2.32770049708215        0.15384895852016        0.09187637559802
C            2.64459956245314       -1.18813652492740        0.14428148818570
N            1.46898069164677       -1.89785063511104        0.08521147350594
C            0.41495420881310       -1.05579271263691        0.00920014197116
C            0.93532679973985        0.24978274179181        0.03364656407684
C            0.14791120188853        1.41209905787055        0.00509483960148
O            0.51243957290748        2.59321972350915        0.00479397235066
N           -1.23703086279875        1.06038668298975       -0.03193340780791
C           -2.17452393376689        2.17421404775939       -0.05999587134018
C           -1.78456744397218       -0.19259937751337       -0.05525983875925
O           -2.98540966872891       -0.35878494815174       -0.01883309158870
N           -0.92622157817276       -1.35062989631179       -0.15572207983956
C           -1.54123480251098       -2.72457211524685       -0.17146250954311
H            3.76295149471235        1.29989310178307        1.06355831088971
H            4.01286115390816        1.10473983339736       -0.68622989504334
H            2.70675893607215        2.15829232396491       -0.08382923433264
H            3.62975198394477       -1.59330132375400        0.12906744986003
H           -1.58178906021598        3.08825550503988       -0.03047359908319
H           -2.76541095435990        2.14102153108330       -0.97624485205129
H           -2.85422429712544        2.13913963847303        0.79192784148397
H           -0.86812414778319       -3.40008139177540        0.35125437502003
H           -1.96879993879393       -3.53859191476883       -1.05737473048710
H           -2.46367142284730       -2.58414524011377        0.38234442969511
H            1.43597657395983       -2.90274113760503        0.10153957637231
25
 energy: 29.445040977299 xtb: 6.6.1 (8d0f1dd)
C            3.26060082157328        1.24179270079289        0.09303129350422
N            2.33036078299823        0.15966118399772        0.10350219419950
C            2.64646271409598       -1.18078099330665        0.15902204081283
N            1.47288842872485       -1.89157752653781        0.09763041619601
C            0.41767217345499       -1.04991600323703        0.01708306862180
C            0.93889713238824        0.25521897051187        0.03607278476628
C            0.15056980781621        1.41748712805042        0.00686603375925
O            0.51715557029977        2.59766882912146        0.00666170143274
N           -1.23405907476384        1.06622135714502       -0.03018801622516
C           -2.17088499845822        2.18027474315340       -0.05920124498592
C           -1.78328366764186       -0.18648557287533       -0.04666178217581
O           -2.98307015487772       -0.35368330226768       -0.01260073882965
N           -0.92351170835883       -1.34253751813193       -0.14436102168736
C           -1.53166853672223       -2.71195724254736       -0.16980410991770
H            3.77103561862418        1.30869844723392        1.05875409651696
H            4.01119635420220        1.10870303760543       -0.69206019593579
H            2.70929173043903        2.16422757164825       -0.08584995511292
H            3.63286986170460       -1.58430617745294        0.14003075604301
H           -1.57427461556739        3.09206701911544       -0.03095143785209
H           -2.76167144224349        2.14593156554355       -0.97530730637849
H           -2.85065988075455        2.14837528523682        0.79278993249775
H           -0.83527487509719       -3.40434399581338        0.29067832979463
H           -2.05124984085543       -3.59743572142685       -1.06951696864823
H           -2.43017871006312       -2.59457253765980        0.41373572665983
H            1.44441755150617       -2.89695238231017        0.11693510312803
25
 energy: 44.680318351874 xtb: 6.6.1 (8d0f1dd)
C            3.26324515000075        1.24785632591559        0.09247070456829
N            2.33386575813035        0.16311428450227        0.11504718904767
C            2.64507315888479       -1.17170285651329        0.16782203436178
N            1.47814056325952       -1.88386623789791        0.10619334634925
C            0.42010485915390       -1.04214648393243        0.02397552828322
C            0.94334172117430        0.26240242063375        0.03925214983831
C            0.15301095324830        1.42422832049751        0.00947966634920
O            0.52331628504627        2.60243020911818        0.01072447417185
N           -1.22931949548737        1.07423014470347       -0.03023292764384
C           -2.16731390304442        2.18729754058839       -0.06031276815623
C           -1.78165854068497       -0.17800807954762       -0.03895037250817
O           -2.98003604638684       -0.34600185387663       -0.01124146996159
N           -0.91907024340965       -1.33190300671792       -0.12059604414109
C           -1.51413195412244       -2.67783892166055       -0.14737809117342
H            3.77791024239154        1.31784395863394        1.05519229524074
H            4.00905017255556        1.11430700267943       -0.69689382024199
H            2.71022620326256        2.16968577862581       -0.08584729786206
H            3.63350139668573       -1.57413589982940        0.15139753626648
H           -1.57056229034022        3.09860874146439       -0.03172017769565
H           -2.75718856133369        2.15199543448539       -0.97622456395674
H           -2.84719714574750        2.15625921219615        0.79183623532008
H           -0.80513825330422       -3.40368245375886        0.22401312033783
H           -2.16166709155662       -3.70722908403995       -1.09660084730626
H           -2.39794097400630       -2.60486924991272        0.45612748682756
H            1.45310343507496       -2.89007540755031        0.12731770945845
25
 energy: 61.948826666845 xtb: 6.6.1 (8d0f1dd)
C            3.26454159014051        1.25418831009879        0.09252927911149
N            2.33781500595499        0.16356248209255        0.12320458381933
C            2.64055519500865       -1.15761188164732        0.17028358434109
N            1.48597264477271       -1.87380640683304        0.11239843370008
C            0.42160118002048       -1.02756590296656        0.03763015356160
C            0.95188109055272        0.27355394510301        0.04274248380149
C            0.15416961032666        1.43562331008474        0.01003425614825
O            0.53088361173772        2.60798337890190        0.00996093562202
N           -1.21952856854924        1.08748875679795       -0.02902793453828
C           -2.16236984145524        2.19614645371961       -0.06313366522934
C           -1.77767368256847       -0.16717792935100       -0.02737829721167
O           -2.97298175066076       -0.33339623904957       -0.01057625705995
N           -0.90524772098227       -1.30905996240671       -0.07741507561731
C           -1.47689411124789       -2.61771257150786       -0.10150312206808
H            3.77974865258158        1.32627270869216        1.05362228707375
H            4.00597214959600        1.12283366586185       -0.70032991229165
H            2.70716776443137        2.17462456181585       -0.08491260212915
H            3.63129324595214       -1.56193613850615        0.16437040851181
H           -1.56948500733953        3.10953543715592       -0.03528992097703
H           -2.75158564451816        2.15733907367141       -0.97869883578526
H           -2.84199321620302        2.16146874445163        0.78951636859110
H           -0.78210546665288       -3.40325032786265        0.14437732850478
H           -2.30989227156299       -3.88828613006869       -1.14760252205459
H           -2.37435459421987       -2.61896450428458        0.47432766430752
H            1.46145596827977       -2.88139681029088        0.13437365531706
25
 energy: 70.231713952212 xtb: 6.6.1 (8d0f1dd)
C            3.26497684466770        1.26078276260744        0.09226992796663
N            2.34012420122045        0.16609945614337        0.12779510319534
C            2.63827605770272       -1.14544523015203        0.17569513295876
N            1.49268953158118       -1.86544712219529        0.11920245393360
C            0.42350590879124       -1.01532844166868        0.05103863478937
C            0.95779310785644        0.28419040354903        0.04893735733764
C            0.15447642245495        1.44493531717013        0.01210231267384
O            0.53441718559567        2.61494126200319        0.00556453042865
N           -1.21433566858974        1.09599320136502       -0.02476454541930
C           -2.15931450217600        2.20324342580236       -0.06577187860474
C           -1.77613112427657       -0.15930888593205       -0.02135444376851
O           -2.97076480408497       -0.32545843187866       -0.01626797964194
N           -0.89635553663139       -1.29287593097008       -0.04948305929287
C           -1.44736179143811       -2.58031207513110       -0.08075161462670
H            3.78174121502655        1.33431153863180        1.05170989163278
H            4.00298279408250        1.12923363829223       -0.70230634631732
H            2.70557237441153        2.18046065146386       -0.08538864641298
H            3.63013305496207       -1.54936740318738        0.17240964899942
H           -1.57049789479683        3.11874013004898       -0.03578079214201
H           -2.74641574066007        2.16416570084291       -0.98263139153728
H           -2.84064940972119        2.16690981346197        0.78481439285304
H           -0.76270761585431       -3.39699338390005        0.07276100542051
H           -2.43201748528286       -4.02230424380159       -1.16977101536386
H           -2.37267287906581       -2.64240893499990        0.43498810314005
H            1.47315933039561       -2.87337397672431        0.14171524175710
25
 energy: 74.818927631638 xtb: 6.6.1 (8d0f1dd)
C            3.26496821087312        1.26497794378712        0.09114581889559
N            2.34033372290892        0.16704712184591        0.12721228453475
C            2.63435356879905       -1.13619639399101        0.17691681898015
N            1.49670676398822       -1.85959647068322        0.12364724795657
C            0.42250503810017       -1.00656659765825        0.06063876196899
C            0.96072796073033        0.29289836209097        0.05426237251353
C            0.15394652057453        1.45216056119811        0.01581158768370
O            0.53687912574738        2.62110601191134        0.00502225942167
N           -1.21111984716998        1.10329881462266       -0.01876968736090
C           -2.15782411079801        2.20898873889125       -0.06923338879388
C           -1.77475415871788       -0.15163441118036       -0.01522366016794
O           -2.97044681919062       -0.31632088654787       -0.01769111226784
N           -0.89458245792794       -1.28018299990847       -0.02252791926353
C           -1.43924760236752       -2.54876232353366       -0.05532545857419
H            3.78655427728404        1.34020915856432        1.04724236966309
H            3.99979713763281        1.13238635869733       -0.70356930294212
H            2.70616628247264        2.18544426506757       -0.08406706757843
H            3.62732258000694       -1.53786396773905        0.17969224884310
H           -1.57377689124367        3.12661558251952       -0.03967797702857
H           -2.74132321601798        2.16833010050109       -0.98791115925435
H           -2.84034009375861        2.17257987359436        0.77932243253218
H           -0.75458016546732       -3.37903530041075        0.00537989750012
H           -2.52851170555225       -4.14540135971000       -1.18472518331223
H           -2.39865328624483       -2.65771621175317        0.40298806179252
H            1.48116231858152       -2.86712210316859        0.15143057755277
25