25
 energy: -42.079176528215 gnorm: 0.024329989333 xtb: 6.6.1 (8d0f1dd)
C            3.55879287514817        0.61667888675019        0.06088123363749
N            3.69588241773745       -0.74921741510890       -0.24122484577335
C            2.76604993455950       -1.58008714140929       -0.36619611580590
N            1.37984738476975       -1.46744147574114       -0.24734318122508
C            0.44000565513360       -0.50433090430666       -0.00192333519244
C            0.59063929134782        0.86213962880348        0.14323515101026
C           -0.50273887145112        1.69284421779612        0.18908210267946
O           -0.50935602498570        2.99018948820857        0.49380730822870
N           -1.74164870520247        1.14895290012117       -0.19776854474707
C           -2.78583344006773        1.88346974102759       -0.58959193198609
C           -1.96424627054356       -0.25739275743585       -0.02536205848246
O           -3.07950796175130       -0.69981688422269       -0.04646056986917
N           -0.84290630856921       -1.02152487853353        0.16967821664700
C           -1.09429810900002       -2.42457568401632        0.47819054241295
H            4.01737703706366        0.81661450538327        1.03184581342597
H            4.09284354754770        1.19852665636456       -0.69229142327825
H            2.47765470620025        0.96255095342465        0.09834832896701
H            3.05792616605883       -2.59678828018328       -0.60469648124294
H           -1.39803030366840        3.33860549853090        0.65245961989816
H           -2.67282852404686        2.92658282643856       -0.82188832414798
H           -3.71530301837364        1.37441920451411       -0.75862115531219
H           -0.39603790757411       -2.77263576641065        1.23740393402316
H           -1.04886082214258       -3.05167041123799       -0.41487435712443
H           -2.10691801864272       -2.49759180995778        0.87316322743439
H            0.94192678455207       -2.37026255719883       -0.38868153627709
25
 energy: -42.083387197705 gnorm: 0.017292014036 xtb: 6.6.1 (8d0f1dd)
C            3.51711685343878        0.66036290104399        0.06964973674030
N            3.65293818706739       -0.69914405554434       -0.23865899578706
C            2.75309017272728       -1.56183505542792       -0.36798640751053
N            1.36896350462425       -1.49093990233539       -0.25181621241170
C            0.42970614677193       -0.53510386355019       -0.01018182011681
C            0.60213523477249        0.82284619161230        0.12760869210705
C           -0.47350242471667        1.66409632620257        0.17515866098034
O           -0.42238606268833        2.95442526466105        0.47663564753179
N           -1.72919992232283        1.14210631988384       -0.19604383450474
C           -2.76865609968665        1.88484354519400       -0.58693210665344
C           -1.96857570412980       -0.26209044372666       -0.02258582857072
O           -3.08908699188629       -0.69194316330310       -0.03900290594524
N           -0.85493226988088       -1.03870977027883        0.16729736824365
C           -1.10909384974330       -2.43837165623541        0.48037037754164
H            3.98448684508177        0.84938189940298        1.03849306923293
H            4.05576022433384        1.23829706220506       -0.68415075823890
H            2.43815883060272        1.00147633599793        0.10983995037290
H            3.07545040521834       -2.57038663872827       -0.60501197340388
H           -1.29685971797115        3.33802903740630        0.64932637062802
H           -2.65204249694986        2.92596917763495       -0.82395863813630
H           -3.70517956451494        1.38180248138799       -0.74876321652682
H           -0.40802973553900       -2.78349503965823        1.23922106497340
H           -1.06361189061600       -3.06604223033334       -0.41238179130305
H           -2.12158701733425       -2.50699810039529        0.87689154686332
H            0.94536885744054       -2.40033808151573       -0.39184637820604
25
 energy: -42.087801414726 gnorm: 0.020045001203 xtb: 6.6.1 (8d0f1dd)
C            3.44489251340813        0.72680924182045        0.08133652753830
N            3.58439668188159       -0.62069142879633       -0.23475978911681
C            2.73934716109062       -1.53927103670344       -0.36916473800974
N            1.35712121249713       -1.54096808351583       -0.25406355789356
C            0.42080998055159       -0.58795210095251       -0.01776510090390
C            0.62808502930993        0.76341800271077        0.10722641461152
C           -0.42685222638824        1.62245557891561        0.15366552988869
O           -0.30078079073818        2.90645600605507        0.43956104477048
N           -1.70362851424001        1.13296592451804       -0.19237994891233
C           -2.73315497657717        1.89413277905163       -0.57556661868987
C           -1.96922348111032       -0.26788871927844       -0.01714703017940
O           -3.09764916112250       -0.67799145055518       -0.02615079725724
N           -0.86876395133681       -1.06621898492060        0.16449746353243
C           -1.13263039286225       -2.46126987919494        0.48086728688717
H            3.91660481847762        0.90583434598629        1.05021037238203
H            3.98270556138649        1.30724385886782       -0.67282415690021
H            2.35513479002207        1.04916768591025        0.12429182236225
H            3.11759732454863       -2.52961679159126       -0.61186621517027
H           -1.15586966077986        3.34084287230836        0.61439862600977
H           -2.60795442232776        2.93601486924390       -0.80150024745199
H           -3.68167876805022        1.40545529508489       -0.72687699019387
H           -0.43260905460857       -2.80508016105458        1.24187692930334
H           -1.08524227885330       -3.09155153691607       -0.40982409462895
H           -2.14624981827522       -2.52321007779763        0.87573622885919
H            0.95602393819601       -2.46084766759601       -0.39260734293686
25
 energy: -42.090789563717 gnorm: 0.024553179047 xtb: 6.6.1 (8d0f1dd)
C            3.37320598297320        0.77710997600011        0.08886304772974
N            3.52937675265902       -0.55811801542132       -0.23537652585410
C            2.73614117302989       -1.52339915718176       -0.37059174796457
N            1.35634336087768       -1.59033958195923       -0.25066423245281
C            0.42067512562212       -0.63505743333042       -0.02018033327621
C            0.65515101498232        0.71423887291897        0.09187893398159
C           -0.38459334961701        1.59186264716602        0.13521092261306
O           -0.20346433912518        2.87449599394628        0.39945026122539
N           -1.67477720546591        1.12747514979929       -0.18541260395413
C           -2.69665560110871        1.90604291033566       -0.55665010729221
C           -1.96244779381552       -0.27016781567728       -0.01036159763098
O           -3.09758452370989       -0.66222082134274       -0.01179530232148
N           -0.87444916248517       -1.08934552305149        0.16204905398714
C           -1.15348717870279       -2.48113979216663        0.47770190451919
H            3.83471477166441        0.96031200937934        1.06168421901341
H            3.89394729330951        1.37567898846773       -0.66409108363416
H            2.25717005171399        1.06546739019032        0.13348530346810
H            3.16493791437051       -2.49333471207900       -0.61872870496149
H           -1.04041545751335        3.34717077045684        0.56825243087513
H           -2.56178684795985        2.94806160163732       -0.77415406124794
H           -3.65348071933781        1.43083794703448       -0.70064614653424
H           -0.46023318024809       -2.82909137709282        1.24330100685606
H           -1.10363115221598       -3.11345240006262       -0.41126967510264
H           -2.17004654767113       -2.53550892083951        0.86633636080558
H            0.97582113187315       -2.51934016552730       -0.38711970494727
25
 energy: -42.094120180491 gnorm: 0.027676868236 xtb: 6.6.1 (8d0f1dd)
C            3.29780624225593        0.81290949474190        0.09208790755749
N            3.48391307480067       -0.50730662427942       -0.24000628390425
C            2.74110815809148       -1.51120759267935       -0.37045216076775
N            1.36692131313327       -1.63653018464524       -0.23866634627843
C            0.42913520592450       -0.67615830725913       -0.01576154748965
C            0.68316392773649        0.67307947785672        0.08313112202993
C           -0.34462494465354        1.56899321864390        0.11837099429997
O           -0.12017938912199        2.85254813215192        0.35417173595907
N           -1.64098627145148        1.12478648909204       -0.17612038009902
C           -2.65752861723884        1.91991516719776       -0.53174488235934
C           -1.94770996765521       -0.26916426785518       -0.00221606310393
O           -3.08835227975648       -0.64464184784833        0.00391830397898
N           -0.87157157883461       -1.10801399925207        0.15982326246235
C           -1.16998180656645       -2.49762970631111        0.47005685737820
H            3.73166431778006        1.01394805075857        1.07426386773714
H            3.78405801595592        1.44540739526950       -0.65836363198873
H            2.13234086519431        1.04120277043331        0.13370300432226
H            3.21412431569476       -2.45740549809715       -0.62564120587994
H           -0.93867284223297        3.35486423182803        0.51278744854723
H           -2.51226929520095        2.96120751624304       -0.74364958125308
H           -3.62095879068014        1.45793652393034       -0.66692871493767
H           -0.48903826538435       -2.85444909836395        1.24291455763195
H           -1.11577977289731       -3.13017273170921       -0.41827569296754
H           -2.19157697352701       -2.54301318479078        0.84727794441140
H            1.00542687273335       -2.57286688345586       -0.37350889738643
25
 energy: -42.100012131256 gnorm: 0.045463603700 xtb: 6.6.1 (8d0f1dd)
C            3.20948437878933        0.83947977721039        0.09133409568401
N            3.44033839515069       -0.45711317122127       -0.25028696973692
C            2.75631657817715       -1.49976572501628       -0.37026950758690
N            1.39323222352581       -1.68784219691649       -0.21621075330279
C            0.44818059389600       -0.71914653994357       -0.00446141297707
C            0.71719899614666        0.63215620891929        0.07973859403808
C           -0.30138883278699        1.54925071287644        0.09995722914527
O           -0.03540916081643        2.83538894817164        0.29721268564890
N           -1.59615575243790        1.12431203924627       -0.16326034444775
C           -2.60892194879604        1.93844020116331       -0.49686384164435
C           -1.92242323722787       -0.26468964900426        0.00835896379577
O           -3.06838732305076       -0.62201567964555        0.02530908067948
N           -0.85950332902883       -1.12567655975506        0.15589638085292
C           -1.18553477284535       -2.51295055666250        0.45799240094618
H            3.58260600386325        1.07548053697266        1.09390425165359
H            3.63705320418261        1.52867046693935       -0.65169432756635
H            1.94736966906136        0.96747509945967        0.11965252098736
H            3.27621937836699       -2.41331325153329       -0.63585263628368
H           -0.83022273519566        3.36583888725450        0.44292280022723
H           -2.44931723688423        2.97678191732852       -0.70919246884683
H           -3.57807581327617        1.49200486214767       -0.62070995275482
H           -0.52355739614849       -2.88408913466455        1.24116927965720
H           -1.12706946714622       -3.14582641919732       -0.42935646509921
H           -2.21403048515224       -2.54447309799135        0.81939673822119
H            1.05242958373276       -2.63013913453796       -0.35351472339027
25
 energy: -42.094601644098 gnorm: 0.132564738144 xtb: 6.6.1 (8d0f1dd)
C            3.16251747579457        0.83148491321111        0.08348216772625
N            3.41968904993778       -0.43482107198822       -0.26955428836121
C            2.78347670327535       -1.49153186241392       -0.37141870657597
N            1.43910679119696       -1.72751593880900       -0.18392112697766
C            0.47586201631907       -0.74647150518830        0.01199761146196
C            0.74311038152201        0.61235970051877        0.08453088799313
C           -0.28075180060526        1.54674676782964        0.08586734902748
O           -0.00073781084441        2.83793590745815        0.24446201988192
N           -1.55378154177253        1.12840945155138       -0.14890608818061
C           -2.56819344287493        1.95721949018379       -0.45764880603445
C           -1.89113345828977       -0.25533732945458        0.01804555691326
O           -3.03894527716090       -0.59985062533891        0.04842140794574
N           -0.83800912647161       -1.13339551773226        0.14725469803321
C           -1.19608734660467       -2.51899862813438        0.44477523257905
H            3.43387188347128        1.11865798254820        1.11931161405002
H            3.50627844841014        1.59563240649759       -0.64633943793959
H            1.73604292103893        0.84247409189991        0.09229292863913
H            3.33293325340365       -2.36519786033030       -0.64973335356789
H           -0.76764640078413        3.37633639257846        0.38141600844374
H           -2.39178078928928        2.98883389053611       -0.68411909534517
H           -3.53499481160075        1.52302131394672       -0.57725551349006
H           -0.55613144707053       -2.90712724009900        1.23871526057408
H           -1.13811122437929       -3.15656423358692       -0.43824543469736
H           -2.23030128932559       -2.53426944839307        0.79282144261874
H            1.11414835680333       -2.66979250569071       -0.33508071681744
25
 energy: -42.104320900695 gnorm: 0.069746794478 xtb: 6.6.1 (8d0f1dd)
C            3.23110290203831        0.82874765966757        0.08097152167659
N            3.44573503301902       -0.44639399275739       -0.27068627931672
C            2.78461474241751       -1.49125997924766       -0.36725501675050
N            1.43474326968887       -1.71646424638323       -0.18202243004149
C            0.45377128634619       -0.75225934582271        0.01034242369817
C            0.69264877492296        0.60150851198480        0.08884693462743
C           -0.31226551616515        1.54620442100259        0.09299246867823
O           -0.02562964827236        2.84294272386184        0.24470290644223
N           -1.58028056949379        1.12461741236740       -0.14728125639720
C           -2.58736829825968        1.95774383495553       -0.45994552656168
C           -1.90987000894069       -0.26280908577971        0.01706622598014
O           -3.05721872548352       -0.60773948887625        0.04783118269434
N           -0.85617851007691       -1.14348433933233        0.14414149550776
C           -1.20605388854222       -2.52697938528974        0.44444696930169
H            3.48965579560480        1.10525064051768        1.11813002511471
H            3.57016701008474        1.57843697308717       -0.65265841176074
H            1.84758701193246        0.91692437154288        0.09622067075570
H            3.32424973376612       -2.37210557352509       -0.64832018127322
H           -0.79229457500854        3.39136967878869        0.38323963406657
H           -2.39946419549845        2.98896234119995       -0.68628931057398
H           -3.55575901732995        1.52818640066944       -0.58015137888658
H           -0.56143215377688       -2.90932489078691        1.23640464820873
H           -1.14569894992861       -3.16110529441547       -0.44044472502585
H           -2.23855042847462       -2.54049722521492        0.79447212995131
H            1.11422043952982       -2.66223358061387       -0.33358310221538
25
 energy: -42.101173377529 gnorm: 0.054633896993 xtb: 6.6.1 (8d0f1dd)
C            3.16704305125187        0.89262462662144        0.09501413636006
N            3.40252390278329       -0.38020032018963       -0.26461455615225
C            2.76928976512223       -1.48957170893997       -0.35626840252423
N            1.41237494161487       -1.74251263194876       -0.18108527402635
C            0.44506895600844       -0.78399018793714        0.00038007669491
C            0.72165386947261        0.56285323636081        0.05574550575602
C           -0.26295834456597        1.51412037790355        0.06595650763081
O            0.07382076572327        2.80363211238075        0.21484303022072
N           -1.57409727031744        1.11679714419862       -0.14707615590794
C           -2.57640861235528        1.96018113890939       -0.44915081543677
C           -1.91707051947459       -0.27174022149588        0.02035213816898
O           -3.07136534890508       -0.60563373655028        0.05783712284671
N           -0.86966125132658       -1.16328101878892        0.14466628407292
C           -1.21930678545714       -2.54395427558353        0.43551412784375
H            3.47522385355580        1.12991618336275        1.10745854056544
H            3.52504876944354        1.61121139515583       -0.64555742905853
H            1.83030911659356        0.99799743092566        0.13700446473762
H            3.35468087708433       -2.37734683885471       -0.63925014292513
H           -0.69673336320955        3.39878493788736        0.34802116774514
H           -2.38615361494135        2.99361159686754       -0.66390284805706
H           -3.56567868464608        1.54350248060364       -0.54235317432195
H           -0.57458558590466       -2.92503115168572        1.22834870584346
H           -1.14870813658294       -3.16837316778548       -0.45641417004983
H           -2.25543783150281       -2.55702402769749        0.77606898368455
H            1.10155899463512       -2.69833483211958       -0.31036620581077
25
 energy: -42.108542104675 gnorm: 0.035373271802 xtb: 6.6.1 (8d0f1dd)
C            3.24533677689185        0.84570074547091        0.08603405003342
N            3.43850877156593       -0.42218111473052       -0.27779932792461
C            2.78047025179647       -1.49303288517556       -0.35409077916984
N            1.43618746621753       -1.71367701219703       -0.16315727373397
C            0.45641505571350       -0.75190713015453        0.00678879525900
C            0.71920751776697        0.60546181695132        0.05834324872579
C           -0.29266323613600        1.53942215428212        0.06193480176665
O           -0.00305528827514        2.82585909685573        0.21648363419454
N           -1.58633206345083        1.12184166437330       -0.14636445624415
C           -2.59934154628231        1.95613782343297       -0.43957918646175
C           -1.91420659936855       -0.26754889705183        0.02049548297463
O           -3.06310557711553       -0.61195414254217        0.06313715970996
N           -0.85931154555625       -1.14789431071039        0.13755721802950
C           -1.21681452855887       -2.53231687295843        0.42833466785831
H            3.50825717010569        1.09421423286108        1.10723890093990
H            3.58040647223362        1.57469265129577       -0.64384837668924
H            1.81601602671029        0.95452583524569        0.12668658461098
H            3.33536201272070       -2.37659821510204       -0.63365353727065
H           -0.76944544633203        3.38896751784805        0.35535837551528
H           -2.40526681041600        2.98355317500620       -0.67328814507523
H           -3.58157783421927        1.53840634607967       -0.53573084175440
H           -0.57853739780896       -2.92069837142941        1.22173863528093
H           -1.15067824278016       -3.16243689288908       -0.45961150466578
H           -2.25200116910224       -2.54889344811990        0.76986958996258
H            1.11660127777903       -2.66140522504166       -0.30170609797161
25
 energy: -42.111872450394 gnorm: 0.043898615468 xtb: 6.6.1 (8d0f1dd)
C            3.31221066743942        0.82306935040240        0.07146204917219
N            3.45398654359659       -0.43728497232211       -0.29403129040862
C            2.78555365462499       -1.49424933735631       -0.34893005407452
N            1.45010389196851       -1.70320110566837       -0.13391815724476
C            0.45833769076435       -0.74337161572412        0.02505702968360
C            0.71254199884913        0.61671717689389        0.08141101350929
C           -0.31231835450617        1.54606862660256        0.06898602298401
O           -0.02830273475077        2.84032921389936        0.19199208728710
N           -1.59368914972738        1.12116737154860       -0.13487303703067
C           -2.60976899005165        1.95416026778539       -0.42184811485377
C           -1.91467308693653       -0.26860861714597        0.02797958104066
O           -3.06152499042011       -0.61618135029559        0.07073626162365
N           -0.85676903182194       -1.14711609453017        0.13242319984538
C           -1.21705645932163       -2.53412526501615        0.41073019483465
H            3.49499838481417        1.07873447742742        1.12231623443328
H            3.62929269055521        1.57105472132441       -0.64378276980077
H            1.77365713766546        0.94210643500232        0.08614824614370
H            3.33252153712981       -2.37391837235486       -0.62383637009378
H           -0.78508810346305        3.41168663891702        0.32446027683553
H           -2.41104468897718        2.97810016124096       -0.66711603335361
H           -3.59078388261854        1.54141390289140       -0.50964842713295
H           -0.58901422178822       -2.93059366280573        1.20829287266149
H           -1.14657569736020       -3.15902612966224       -0.48042908914573
H           -2.25508260022503       -2.54936624493328        0.74399749633904
H            1.12891930866020       -2.64932703452054       -0.27640760535410
25
 energy: -42.115401105332 gnorm: 0.047792340652 xtb: 6.6.1 (8d0f1dd)
C            3.41087645728670        0.79499925009564        0.07302312346709
N            3.46990249989322       -0.45132582783712       -0.33068261806962
C            2.78157155964286       -1.50373034408942       -0.34256916439895
N            1.45421881089382       -1.68219022472634       -0.10018941307609
C            0.45830671703782       -0.72133369683070        0.02871894556769
C            0.71116535333451        0.64317515774226        0.06141068874659
C           -0.33028755718258        1.55798063164243        0.04713414805805
O           -0.06027898469262        2.85233488683403        0.15209086937252
N           -1.61265255193717        1.12185974002479       -0.12986660602917
C           -2.63843161349175        1.94712994982981       -0.40028684089741
C           -1.91889450268699       -0.26952544767088        0.03465881964399
O           -3.06300755362618       -0.62582446667053        0.08687598725885
N           -0.85331913320193       -1.13820532030990        0.12578065669982
C           -1.20922901145734       -2.52850801393719        0.38944494104877
H            3.54190827975410        1.02516543149577        1.12865889402813
H            3.69264806338377        1.56522675894409       -0.63492857802074
H            1.73417001519152        0.95179332050348        0.11815853737597
H            3.31711583663820       -2.39126466496865       -0.61114052919872
H           -0.81352155089013        3.41973620856525        0.29801935902935
H           -2.44274187468703        2.96721244901644       -0.66244063135824
H           -3.62060364561661        1.53588097321823       -0.46648756238653
H           -0.59114574285646       -2.93295337646501        1.18985681009567
H           -1.13137594637254       -3.14455174484894       -0.50756491003907
H           -2.25054093769030       -2.54704165722358        0.71190396250461
H            1.12457852743258       -2.62780143073362       -0.22840727152234
25
 energy: -42.119914857569 gnorm: 0.037259960753 xtb: 6.6.1 (8d0f1dd)
C            3.52950067817679        0.77756288029813        0.05938915609679
N            3.47551508744101       -0.45445122487799       -0.36716084872791
C            2.76808081872103       -1.50907882952442       -0.32995837845302
N            1.44464428384769       -1.66320933038029       -0.05644227622812
C            0.44688245227853       -0.71052625349600        0.04664372913410
C            0.69530019641342        0.65036641191666        0.07090641816604
C           -0.34774583150085        1.56013971188532        0.03736255900533
O           -0.07201405830033        2.85705248176531        0.11019730926786
N           -1.63076512664959        1.11987616564969       -0.12350542893019
C           -2.66016730489937        1.94068099975568       -0.38242699723403
C           -1.92864764210639       -0.27292667262524        0.04294267889531
O           -3.07210257316286       -0.63416430165665        0.09682404259701
N           -0.85923275257753       -1.13718062331198        0.12420376333496
C           -1.20266396404160       -2.53188811709852        0.36344715196367
H            3.55615982897714        0.98447994109429        1.13908311621238
H            3.81192651637805        1.55425225466458       -0.62480460625120
H            1.69677067448775        1.02350275055825        0.09487807290387
H            3.29260554705194       -2.41218408598918       -0.59282713140597
H           -0.82421045605966        3.43066252422810        0.26739943611181
H           -2.47351474544793        2.96126217909483       -0.64882435833457
H           -3.64475137767759        1.52975820571455       -0.42158179169257
H           -0.59642847708245       -2.94219277619056        1.16956945585711
H           -1.10495524935012       -3.13177998180472       -0.54356399098769
H           -2.24938448771336       -2.55920649586701        0.66776509511943
H            1.10962947689580       -2.61256927220244       -0.16834455852018
25
 energy: -42.122476463748 gnorm: 0.024415554330 xtb: 6.6.1 (8d0f1dd)
C            3.62324570177278        0.74849974069929        0.06201965596447
N            3.48036651988144       -0.45575010409072       -0.39655826345878
C            2.75814067459209       -1.51158710007789       -0.31945890806315
N            1.43113735161462       -1.64283314977961       -0.02748795792969
C            0.43958456358869       -0.69484192295833        0.05723157695247
C            0.67669418412967        0.66553430584671        0.06577856516650
C           -0.36580329651616        1.56722214204550        0.02539006649850
O           -0.07980334465064        2.86800556467028        0.07003568261198
N           -1.65496408114300        1.12170996084336       -0.11983588963223
C           -2.69097510048318        1.93414658586322       -0.37156717511011
C           -1.94052780506321       -0.27407487139863        0.04763065801339
O           -3.08165847345846       -0.64581516081084        0.10078301050002
N           -0.86387269472214       -1.12880282240506        0.12900367560985
C           -1.19076563641624       -2.53000950280631        0.34342428233104
H            3.61467672467987        0.93994890449127        1.12371863196911
H            3.91361378927635        1.52893753253020       -0.61398885947597
H            1.67853152085228        1.07734600875489        0.11924975681184
H            3.26368227735053       -2.43513657686285       -0.58074153354453
H           -0.83846426354947        3.44282889576440        0.25057251872272
H           -2.52328647098338        2.95882881114817       -0.63618271464386
H           -3.67360985335437        1.51214338538980       -0.39304593034398
H           -0.59327093807591       -2.94366308956412        1.15482860855107
H           -1.06848789942295       -3.11339054363328       -0.57286933711129
H           -2.24315491221582       -2.57513697131997        0.62819762087466
H            1.08940297641613       -2.59587148073911       -0.11495612336384
25
 energy: -42.123925546912 gnorm: 0.031084162931 xtb: 6.6.1 (8d0f1dd)
C            3.70317411924943        0.71526321760516        0.05541097813175
N            3.48523160252201       -0.46219818535414       -0.40610526739107
C            2.75435577599439       -1.51680371536038       -0.30912371919869
N            1.42510395943909       -1.62580063008649       -0.00884168557334
C            0.44111128750575       -0.67614420874324        0.06352065553503
C            0.67009195597389        0.68827458059016        0.05878405618007
C           -0.37871565972121        1.58024632906739        0.00807297196768
O           -0.09900578772433        2.88018278523530        0.03883698269598
N           -1.67295944757525        1.12707072999587       -0.11806924936952
C           -2.72256777406132        1.92964069420004       -0.35276054603846
C           -1.94757955334437       -0.27110819250938        0.05248298498054
O           -3.08636226434438       -0.65348143153948        0.11027872911450
N           -0.86315934847423       -1.11567818937956        0.13380017508038
C           -1.17805046906576       -2.52342385316858        0.32636583875292
H            3.60596614745821        0.90350834771303        1.13295502627921
H            4.06132031883491        1.48165208007954       -0.58910173813444
H            1.65272323439734        1.11982514423960        0.07583150793854
H            3.23919987335027       -2.45644312580051       -0.57121587012983
H           -0.86766340089114        3.44086588887089        0.23360750663143
H           -2.57761712782654        2.95921957357577       -0.61291459140240