      -----------------------------------------------------------      
     |                   =====================                   |     
     |                           x T B                           |     
     |                   =====================                   |     
     |                         S. Grimme                         |     
     |          Mulliken Center for Theoretical Chemistry        |     
     |                    University of Bonn                     |     
      -----------------------------------------------------------      

   * xtb version 6.6.1 (8d0f1dd) compiled by 'conda@1efc2f54142f' on 2023-08-01

   xtb is free software: you can redistribute it and/or modify it under
   the terms of the GNU Lesser General Public License as published by
   the Free Software Foundation, either version 3 of the License, or
   (at your option) any later version.
   
   xtb is distributed in the hope that it will be useful,
   but WITHOUT ANY WARRANTY; without even the implied warranty of
   MERCHANTABILITY or FITNESS FOR A PARTICULAR PURPOSE.  See the
   GNU Lesser General Public License for more details.
   
   Cite this work as:
   * C. Bannwarth, E. Caldeweyher, S. Ehlert, A. Hansen, P. Pracht,
     J. Seibert, S. Spicher, S. Grimme, WIREs Comput. Mol. Sci., 2020, 11,
     e01493. DOI: 10.1002/wcms.1493
   
   for GFN2-xTB:
   * C. Bannwarth, S. Ehlert and S. Grimme., J. Chem. Theory Comput., 2019,
     15, 1652-1671. DOI: 10.1021/acs.jctc.8b01176
   for GFN1-xTB:
   * S. Grimme, C. Bannwarth, P. Shushkov, J. Chem. Theory Comput., 2017,
     13, 1989-2009. DOI: 10.1021/acs.jctc.7b00118
   for GFN0-xTB:
   * P. Pracht, E. Caldeweyher, S. Ehlert, S. Grimme, ChemRxiv, 2019, preprint.
     DOI: 10.26434/chemrxiv.8326202.v1
   for GFN-FF:
   * S. Spicher and S. Grimme, Angew. Chem. Int. Ed., 2020, 59, 15665-15673.
     DOI: 10.1002/anie.202004239
   
   for ALPB and GBSA implicit solvation:
   * S. Ehlert, M. Stahn, S. Spicher, S. Grimme, J. Chem. Theory Comput.,
     2021, 17, 4250-4261. DOI: 10.1021/acs.jctc.1c00471
   
   for DFT-D4:
   * E. Caldeweyher, C. Bannwarth and S. Grimme, J. Chem. Phys., 2017,
     147, 034112. DOI: 10.1063/1.4993215
   * E. Caldeweyher, S. Ehlert, A. Hansen, H. Neugebauer, S. Spicher,
     C. Bannwarth and S. Grimme, J. Chem. Phys., 2019, 150, 154122.
     DOI: 10.1063/1.5090222
   * E. Caldeweyher, J.-M. Mewes, S. Ehlert and S. Grimme, Phys. Chem. Chem. Phys.
     2020, 22, 8499-8512. DOI: 10.1039/D0CP00502A
   
   for sTDA-xTB:
   * S. Grimme and C. Bannwarth, J. Chem. Phys., 2016, 145, 054103.
     DOI: 10.1063/1.4959605
   
   in the mass-spec context:
   * V. Asgeirsson, C. Bauer and S. Grimme, Chem. Sci., 2017, 8, 4879.
     DOI: 10.1039/c7sc00601b
   * J. Koopman and S. Grimme, ACS Omega 2019, 4, 12, 15120-15133.
     DOI: 10.1021/acsomega.9b02011
   
   for metadynamics refer to:
   * S. Grimme, J. Chem. Theory Comput., 2019, 155, 2847-2862
     DOI: 10.1021/acs.jctc.9b00143
   
   for SPH calculations refer to:
   * S. Spicher and S. Grimme, J. Chem. Theory Comput., 2021, 17, 1701-1714
     DOI: 10.1021/acs.jctc.0c01306
   
   with help from (in alphabetical order)
   P. Atkinson, C. Bannwarth, F. Bohle, G. Brandenburg, E. Caldeweyher
   M. Checinski, S. Dohm, S. Ehlert, S. Ehrlich, I. Gerasimov, C. Hölzer
   A. Katbashev, J. Koopman, C. Lavigne, S. Lehtola, F. März, M. Müller,
   F. Musil, H. Neugebauer, J. Pisarek, C. Plett, P. Pracht, F. Pultar,
   J. Seibert, P. Shushkov, S. Spicher, M. Stahn, M. Steiner, T. Strunk,
   J. Stückrath, T. Rose, and J. Unsleber
   
 * started run on 2024/06/05 at 20:00:16.425     

           -------------------------------------------------
          |                Calculation Setup                |
           -------------------------------------------------

          program call               : xtb struc.xyz --opt loose --input .xc1 --gfn2
          hostname                   : n-62-21-68
          coordinate file            : struc.xyz
          omp threads                :                     1

   ID    Z sym.   atoms
    1    6 C      1, 3, 5-7, 10, 11, 14
    2    7 N      2, 4, 9, 13
    3    8 O      8, 12
    4    1 H      15-25
constraining bond 9 20 to    4.0600000 Å, actual value:    2.0954220 Å

           -------------------------------------------------
          |                 G F N 2 - x T B                 |
           -------------------------------------------------

        Reference                      10.1021/acs.jctc.8b01176
      * Hamiltonian:
        H0-scaling (s, p, d)           1.850000    2.230000    2.230000
        zeta-weighting                 0.500000
      * Dispersion:
        s8                             2.700000
        a1                             0.520000
        a2                             5.000000
        s9                             5.000000
      * Repulsion:
        kExp                           1.500000    1.000000
        rExp                           1.000000
      * Coulomb:
        alpha                          2.000000
        third order                    shell-resolved
        anisotropic                    true
        a3                             3.000000
        a5                             4.000000
        cn-shift                       1.200000
        cn-exp                         4.000000
        max-rad                        5.000000


          ...................................................
          :                      SETUP                      :
          :.................................................:
          :  # basis functions                  67          :
          :  # atomic orbitals                  67          :
          :  # shells                           39          :
          :  # electrons                        74          :
          :  max. iterations                   250          :
          :  Hamiltonian                  GFN2-xTB          :
          :  restarted?                      false          :
          :  GBSA solvation                  false          :
          :  PC potential                    false          :
          :  electronic temp.         5000.0000000     K    :
          :  accuracy                    1.0000000          :
          :  -> integral cutoff          0.2500000E+02      :
          :  -> integral neglect         0.1000000E-07      :
          :  -> SCF convergence          0.1000000E-05 Eh   :
          :  -> wf. convergence          0.1000000E-03 e    :
          :  Broyden damping             0.4000000          :
          ...................................................

 iter      E             dE          RMSdq      gap      omega  full diag
   1    -42.5894031 -0.425894E+02  0.445E+00    3.52       0.0  T
   2    -42.7683054 -0.178902E+00  0.251E+00    3.36       1.0  T
   3    -42.7759211 -0.761567E-02  0.147E+00    3.35       1.0  T
   4    -42.7728404  0.308066E-02  0.553E-01    3.33       1.0  T
   5    -42.7789548 -0.611444E-02  0.112E-01    3.35       1.0  T
   6    -42.7790473 -0.924914E-04  0.614E-02    3.33       1.0  T
   7    -42.7790721 -0.247928E-04  0.258E-02    3.34       1.0  T
   8    -42.7790772 -0.508996E-05  0.938E-03    3.34       2.1  T
   9    -42.7790779 -0.669422E-06  0.448E-03    3.34       4.5  T
  10    -42.7790780 -0.821511E-07  0.115E-03    3.34      17.4  T
  11    -42.7790780 -0.322662E-08  0.553E-04    3.34      36.2  T
  12    -42.7790780 -0.287052E-08  0.180E-04    3.34     111.1  T

   *** convergence criteria satisfied after 12 iterations ***

         #    Occupation            Energy/Eh            Energy/eV
      -------------------------------------------------------------
         1        2.0000           -0.9185990             -24.9964
       ...           ...                  ...                  ...
        31        1.9996           -0.6230278             -16.9534
        32        1.9995           -0.6194601             -16.8564
        33        1.9979           -0.5974976             -16.2587
        34        1.9932           -0.5789629             -15.7544
        35        1.9817           -0.5631863             -15.3251
        36        1.9779           -0.5602245             -15.2445
        37        1.9748           -0.5581234             -15.1873 (HOMO)
        38        0.0652           -0.4353579             -11.8467 (LUMO)
        39        0.0099           -0.4050467             -11.0219
        40        0.0013           -0.3732218             -10.1559
        41        0.0000           -0.2886859              -7.8555
        42                         -0.2065804              -5.6213
       ...                                ...                  ...
        67                          0.5625656              15.3082
      -------------------------------------------------------------
                  HL-Gap            0.1227656 Eh            3.3406 eV
             Fermi-level           -0.4890455 Eh          -13.3076 eV

 SCC (total)                   0 d,  0 h,  0 min,  0.045 sec
 SCC setup                      ...        0 min,  0.000 sec (  0.503%)
 Dispersion                     ...        0 min,  0.000 sec (  0.666%)
 classical contributions        ...        0 min,  0.000 sec (  0.165%)
 integral evaluation            ...        0 min,  0.005 sec ( 11.589%)
 iterations                     ...        0 min,  0.018 sec ( 38.920%)
 molecular gradient             ...        0 min,  0.022 sec ( 47.697%)
 printout                       ...        0 min,  0.000 sec (  0.431%)

         :::::::::::::::::::::::::::::::::::::::::::::::::::::
         ::                     SUMMARY                     ::
         :::::::::::::::::::::::::::::::::::::::::::::::::::::
         :: total energy             -35.356478472867 Eh    ::
         :: gradient norm              5.249052003853 Eh/a0 ::
         :: HOMO-LUMO gap              3.340621582928 eV    ::
         ::.................................................::
         :: SCC energy               -42.779077977399 Eh    ::
         :: -> isotropic ES            0.141123876439 Eh    ::
         :: -> anisotropic ES         -0.005230418907 Eh    ::
         :: -> anisotropic XC          0.011966818540 Eh    ::
         :: -> dispersion             -0.022657731803 Eh    ::
         :: repulsion energy           0.531105277918 Eh    ::
         :: add. restraining           6.891380067604 Eh    ::
         :: total charge               1.000000000002 e     ::
         :::::::::::::::::::::::::::::::::::::::::::::::::::::

      ----------------------------------------------------------- 
     |                   =====================                   |
     |                        A N C O P T                        |
     |                   =====================                   |
     |               Approximate Normal Coordinate               |
     |                Rational Function Optimizer                |
      ----------------------------------------------------------- 

          ...................................................
          :                      SETUP                      :
          :.................................................:
          :   optimization level             loose          :
          :   max. optcycles                   200          :
          :   ANC micro-cycles                  20          :
          :   degrees of freedom                69          :
          :.................................................:
          :   RF solver                   davidson          :
          :   write xtbopt.log                true          :
          :   linear?                        false          :
          :   energy convergence         0.5000000E-04 Eh   :
          :   grad. convergence          0.4000000E-02 Eh/α :
          :   maxmium RF displ.          1.0000000          :
          :   Hlow (freq-cutoff)         0.1000000E-01      :
          :   Hmax (freq-cutoff)         5.0000000          :
          :   S6 in model hess.         20.0000000          :
          ...................................................

generating ANC from model Hessian ...
Using Lindh-Hessian (1995)
 Shifting diagonal of input Hessian by    1.6504598007351112     
 Lowest  eigenvalues of input Hessian
    0.010000    0.238554    0.000000    0.000000    0.000000    0.000000
    0.000000    0.000000    1.653343    1.656767    1.659122    1.660697
    1.661923    1.662664    1.668147    1.668900    1.673634    1.681825
 Highest eigenvalues
    3.795369    3.873005    3.929768    4.047496    4.116301    4.563301


........................................................................
.............................. CYCLE    1 ..............................
........................................................................

 iter      E             dE          RMSdq      gap      omega  full diag
   1    -42.7790780 -0.427791E+02  0.626E-05    3.34       0.0  T
   2    -42.7790780 -0.124203E-10  0.329E-05    3.34     607.4  T
   3    -42.7790780  0.106581E-12  0.193E-05    3.34    1034.2  T
     SCC iter.                  ...        0 min,  0.005 sec
     gradient                   ...        0 min,  0.013 sec
 * total energy  :   -35.3564785 Eh     change       -0.6650680E-10 Eh
   gradient norm :     5.2490518 Eh/α   predicted     0.0000000E+00 (-100.00%)
   displ. norm   :     0.6792514 α      lambda       -0.3539623E+01
   maximum displ.:     0.5729211 α      in ANC's #69, #60, #68, ...

........................................................................
.............................. CYCLE    2 ..............................
........................................................................

 iter      E             dE          RMSdq      gap      omega  full diag
   1    -42.7169181 -0.427169E+02  0.801E-01    3.39       0.0  T
   2    -42.7179468 -0.102870E-02  0.440E-01    3.33       1.0  T
   3    -42.7179530 -0.624522E-05  0.149E-01    3.32       1.0  T
   4    -42.7180494 -0.964227E-04  0.300E-02    3.34       1.0  T
   5    -42.7180553 -0.589128E-05  0.173E-02    3.32       1.2  T
   6    -42.7180574 -0.205728E-05  0.724E-03    3.33       2.8  T
   7    -42.7180579 -0.528475E-06  0.130E-03    3.33      15.4  T
   8    -42.7180579 -0.633125E-08  0.709E-04    3.33      28.2  T
   9    -42.7180579 -0.212194E-08  0.257E-04    3.33      78.0  T
     SCC iter.                  ...        0 min,  0.013 sec
     gradient                   ...        0 min,  0.013 sec
 * total energy  :   -38.3858273 Eh     change       -0.3029349E+01 Eh
   gradient norm :     3.7215659 Eh/α   predicted    -0.2592870E+01 ( -14.41%)
   displ. norm   :     0.7472043 α      lambda       -0.2769514E+01
   maximum displ.:     0.6242381 α      in ANC's #69, #60, #68, ...

........................................................................
.............................. CYCLE    3 ..............................
........................................................................

 iter      E             dE          RMSdq      gap      omega  full diag
   1    -42.5878926 -0.425879E+02  0.708E-01    3.05       0.0  T
   2    -42.5889322 -0.103967E-02  0.378E-01    3.09       1.0  T
   3    -42.5884368  0.495456E-03  0.292E-01    3.00       1.0  T
   4    -42.5894718 -0.103499E-02  0.717E-02    3.06       1.0  T
   5    -42.5896152 -0.143417E-03  0.250E-02    3.05       1.0  T
   6    -42.5896223 -0.706103E-05  0.123E-02    3.05       1.6  T
   7    -42.5896227 -0.394799E-06  0.389E-03    3.05       5.1  T
   8    -42.5896229 -0.269287E-06  0.156E-03    3.05      12.8  T
   9    -42.5896230 -0.272725E-07  0.615E-04    3.05      32.5  T
  10    -42.5896230 -0.234093E-08  0.278E-04    3.05      71.8  T
     SCC iter.                  ...        0 min,  0.014 sec
     gradient                   ...        0 min,  0.013 sec
 * total energy  :   -40.5791609 Eh     change       -0.2193334E+01 Eh
   gradient norm :     2.1835422 Eh/α   predicted    -0.2157887E+01 (  -1.62%)
   displ. norm   :     0.6539029 α      lambda       -0.1410139E+01
   maximum displ.:     0.5126412 α      in ANC's #69, #60, #68, ...

........................................................................
.............................. CYCLE    4 ..............................
........................................................................

 iter      E             dE          RMSdq      gap      omega  full diag
   1    -42.4640710 -0.424641E+02  0.666E-01    1.85       0.0  T
   2    -42.4677887 -0.371765E-02  0.455E-01    2.04       1.0  T
   3    -42.4696179 -0.182927E-02  0.249E-01    1.99       1.0  T
   4    -42.4679925  0.162546E-02  0.294E-01    2.02       1.0  T
   5    -42.4703217 -0.232921E-02  0.772E-02    1.99       1.0  T
   6    -42.4705218 -0.200164E-03  0.195E-02    2.00       1.0  T
   7    -42.4705261 -0.427442E-05  0.118E-02    2.00       1.7  T
   8    -42.4705274 -0.125805E-05  0.540E-03    2.00       3.7  T
   9    -42.4705279 -0.494378E-06  0.128E-03    2.00      15.6  T
  10    -42.4705279 -0.250654E-07  0.608E-04    2.00      32.9  T
  11    -42.4705279 -0.204805E-08  0.227E-04    2.00      88.1  T
     SCC iter.                  ...        0 min,  0.015 sec
     gradient                   ...        0 min,  0.013 sec
 * total energy  :   -41.5991063 Eh     change       -0.1019945E+01 Eh
   gradient norm :     0.9658967 Eh/α   predicted    -0.1006554E+01 (  -1.31%)
   displ. norm   :     0.4892714 α      lambda       -0.4336204E+00
   maximum displ.:     0.3166473 α      in ANC's #69, #1, #60, ...

........................................................................
.............................. CYCLE    5 ..............................
........................................................................

 iter      E             dE          RMSdq      gap      omega  full diag
   1    -42.4002590 -0.424003E+02  0.672E-01    1.31       0.0  T
   2    -42.3890175  0.112415E-01  0.811E-01    1.30       1.0  T
   3    -42.4020660 -0.130485E-01  0.439E-01    1.38       1.0  T
   4    -42.4055104 -0.344439E-02  0.310E-01    1.32       1.0  T
   5    -42.4077611 -0.225073E-02  0.113E-01    1.31       1.0  T
   6    -42.4081240 -0.362881E-03  0.167E-02    1.33       1.2  T
   7    -42.4081267 -0.266627E-05  0.104E-02    1.33       1.9  T
   8    -42.4081268 -0.154750E-06  0.674E-03    1.33       3.0  T
   9    -42.4081277 -0.845503E-06  0.256E-03    1.33       7.8  T
  10    -42.4081279 -0.208704E-06  0.568E-04    1.33      35.2  T
  11    -42.4081279 -0.455174E-09  0.250E-04    1.33      80.1  T
     SCC iter.                  ...        0 min,  0.015 sec
     gradient                   ...        0 min,  0.013 sec
 * total energy  :   -41.8635252 Eh     change       -0.2644188E+00 Eh
   gradient norm :     0.2284811 Eh/α   predicted    -0.2687117E+00 (   1.62%)
   displ. norm   :     0.6711707 α      lambda       -0.6432506E-01
   maximum displ.:     0.6610577 α      in ANC's #1, #33, #45, ...

........................................................................
.............................. CYCLE    6 ..............................
........................................................................

 iter      E             dE          RMSdq      gap      omega  full diag
   1    -42.3647372 -0.423647E+02  0.921E-01    1.36       0.0  T
   2    -42.2244173  0.140320E+00  0.220E+00    1.12       1.0  T
   3    -42.3892413 -0.164824E+00  0.446E-01    1.21       1.0  T
   4    -42.3863348  0.290653E-02  0.447E-01    1.24       1.0  T
   5    -42.3908099 -0.447508E-02  0.118E-01    1.23       1.0  T
   6    -42.3910536 -0.243750E-03  0.415E-02    1.24       1.0  T
   7    -42.3911144 -0.607679E-04  0.912E-03    1.25       2.2  T
   8    -42.3911149 -0.522941E-06  0.485E-03    1.25       4.1  T
   9    -42.3911152 -0.261099E-06  0.141E-03    1.25      14.2  T
  10    -42.3911152 -0.144786E-07  0.789E-04    1.25      25.4  T
  11    -42.3911152 -0.866720E-08  0.369E-04    1.25      54.1  T
     SCC iter.                  ...        0 min,  0.015 sec
     gradient                   ...        0 min,  0.013 sec
 * total energy  :   -41.8951437 Eh     change       -0.3161850E-01 Eh
   gradient norm :     0.2018034 Eh/α   predicted    -0.4665112E-01 (  47.54%)
   displ. norm   :     0.2609884 α      lambda       -0.1854447E-01
   maximum displ.:     0.2316732 α      in ANC's #1, #37, #33, ...

........................................................................
.............................. CYCLE    7 ..............................
........................................................................

 iter      E             dE          RMSdq      gap      omega  full diag
   1    -42.4132610 -0.424133E+02  0.300E-01    1.28       0.0  T
   2    -42.4124241  0.836885E-03  0.316E-01    1.31       1.0  T
   3    -42.4136474 -0.122337E-02  0.163E-01    1.27       1.0  T
   4    -42.4120760  0.157142E-02  0.268E-01    1.31       1.0  T
   5    -42.4142891 -0.221304E-02  0.575E-02    1.30       1.0  T
   6    -42.4143784 -0.893404E-04  0.702E-03    1.28       2.8  T
   7    -42.4143793 -0.905640E-06  0.364E-03    1.28       5.5  T
   8    -42.4143794 -0.132818E-06  0.143E-03    1.28      14.0  T
   9    -42.4143795 -0.256430E-07  0.426E-04    1.28      47.0  T
  10    -42.4143795 -0.357169E-09  0.296E-04    1.28      67.6  T
     SCC iter.                  ...        0 min,  0.014 sec
     gradient                   ...        0 min,  0.013 sec
 * total energy  :   -41.9106325 Eh     change       -0.1548883E-01 Eh
   gradient norm :     0.1674569 Eh/α   predicted    -0.9905763E-02 ( -36.05%)
   displ. norm   :     0.4426777 α      lambda       -0.6056699E-01
   maximum displ.:     0.1970171 α      in ANC's #37, #33, #35, ...

........................................................................
.............................. CYCLE    8 ..............................
........................................................................

 iter      E             dE          RMSdq      gap      omega  full diag
   1    -42.4609722 -0.424610E+02  0.738E-01    1.53       0.0  T
   2    -42.4389364  0.220358E-01  0.890E-01    1.39       1.0  T
   3    -42.4579341 -0.189978E-01  0.620E-01    1.53       1.0  T
   4    -42.4678429 -0.990883E-02  0.190E-01    1.50       1.0  T
   5    -42.4683508 -0.507858E-03  0.475E-02    1.48       1.0  T
   6    -42.4683863 -0.354929E-04  0.177E-02    1.48       1.1  T
   7    -42.4683927 -0.640944E-05  0.761E-03    1.48       2.6  T
   8    -42.4683933 -0.595811E-06  0.294E-03    1.48       6.8  T
   9    -42.4683935 -0.163480E-06  0.129E-03    1.48      15.5  T
  10    -42.4683935 -0.215764E-07  0.692E-04    1.48      28.9  T
  11    -42.4683935 -0.643746E-08  0.264E-04    1.48      75.7  T
     SCC iter.                  ...        0 min,  0.015 sec
     gradient                   ...        0 min,  0.013 sec
 * total energy  :   -41.9530063 Eh     change       -0.4237379E-01 Eh
   gradient norm :     0.1053281 Eh/α   predicted    -0.3621797E-01 ( -14.53%)
   displ. norm   :     0.3665040 α      lambda       -0.2520597E-01
   maximum displ.:     0.1674136 α      in ANC's #37, #33, #35, ...

........................................................................
.............................. CYCLE    9 ..............................
........................................................................

 iter      E             dE          RMSdq      gap      omega  full diag
   1    -42.4810328 -0.424810E+02  0.511E-01    1.52       0.0  T
   2    -42.4680972  0.129356E-01  0.663E-01    1.44       1.0  T
   3    -42.4805454 -0.124482E-01  0.386E-01    1.52       1.0  T
   4    -42.4840271 -0.348167E-02  0.124E-01    1.51       1.0  T
   5    -42.4842915 -0.264424E-03  0.295E-02    1.50       1.0  T
   6    -42.4843090 -0.174999E-04  0.106E-02    1.50       1.9  T
   7    -42.4843094 -0.390048E-06  0.504E-03    1.50       4.0  T
   8    -42.4843097 -0.259497E-06  0.240E-03    1.50       8.3  T
   9    -42.4843098 -0.169808E-06  0.845E-04    1.50      23.7  T
  10    -42.4843098 -0.398062E-08  0.385E-04    1.50      51.9  T
     SCC iter.                  ...        0 min,  0.014 sec
     gradient                   ...        0 min,  0.013 sec
 * total energy  :   -41.9696488 Eh     change       -0.1664254E-01 Eh
   gradient norm :     0.1114145 Eh/α   predicted    -0.1429591E-01 ( -14.10%)
   displ. norm   :     0.1953761 α      lambda       -0.8960584E-02
   maximum displ.:     0.0911953 α      in ANC's #33, #37, #35, ...

........................................................................
.............................. CYCLE   10 ..............................
........................................................................

 iter      E             dE          RMSdq      gap      omega  full diag
   1    -42.4885675 -0.424886E+02  0.239E-01    1.50       0.0  T
   2    -42.4854550  0.311250E-02  0.323E-01    1.48       1.0  T
   3    -42.4885696 -0.311459E-02  0.166E-01    1.50       1.0  T
   4    -42.4890751 -0.505479E-03  0.528E-02    1.50       1.0  T
   5    -42.4891577 -0.825926E-04  0.126E-02    1.50       1.6  T
   6    -42.4891609 -0.319056E-05  0.510E-03    1.50       3.9  T
   7    -42.4891610 -0.990495E-07  0.192E-03    1.50      10.4  T
   8    -42.4891610 -0.372497E-07  0.799E-04    1.50      25.0  T
   9    -42.4891610 -0.125918E-07  0.337E-04    1.50      59.3  T
     SCC iter.                  ...        0 min,  0.013 sec
     gradient                   ...        0 min,  0.013 sec
 * total energy  :   -41.9762330 Eh     change       -0.6584134E-02 Eh
   gradient norm :     0.0920049 Eh/α   predicted    -0.4651510E-02 ( -29.35%)
   displ. norm   :     0.1852168 α      lambda       -0.8309399E-02
   maximum displ.:     0.0943909 α      in ANC's #33, #37, #12, ...

........................................................................
.............................. CYCLE   11 ..............................
........................................................................

 iter      E             dE          RMSdq      gap      omega  full diag
   1    -42.4983532 -0.424984E+02  0.198E-01    1.48       0.0  T
   2    -42.4971933  0.115991E-02  0.215E-01    1.47       1.0  T
   3    -42.4979188 -0.725574E-03  0.173E-01    1.48       1.0  T
   4    -42.4986376 -0.718737E-03  0.315E-02    1.47       1.0  T
   5    -42.4986472 -0.964014E-05  0.115E-02    1.48       1.7  T
   6    -42.4986497 -0.249205E-05  0.571E-03    1.48       3.5  T
   7    -42.4986501 -0.411627E-06  0.233E-03    1.47       8.6  T
   8    -42.4986502 -0.275525E-07  0.103E-03    1.47      19.4  T
   9    -42.4986502 -0.215338E-07  0.346E-04    1.47      57.8  T
  10    -42.4986502 -0.720988E-09  0.132E-04    1.47     151.3  T
     SCC iter.                  ...        0 min,  0.014 sec
     gradient                   ...        0 min,  0.013 sec
 * total energy  :   -41.9820005 Eh     change       -0.5767489E-02 Eh
   gradient norm :     0.0576715 Eh/α   predicted    -0.4297338E-02 ( -25.49%)
   displ. norm   :     0.1387208 α      lambda       -0.4852255E-02
   maximum displ.:     0.0794888 α      in ANC's #1, #33, #12, ...

........................................................................
.............................. CYCLE   12 ..............................
........................................................................

 iter      E             dE          RMSdq      gap      omega  full diag
   1    -42.5094957 -0.425095E+02  0.156E-01    1.46       0.0  T
   2    -42.5095491 -0.534149E-04  0.913E-02    1.46       1.0  T
   3    -42.5092996  0.249422E-03  0.116E-01    1.46       1.0  T
   4    -42.5094749 -0.175260E-03  0.583E-02    1.46       1.0  T
   5    -42.5095961 -0.121195E-03  0.199E-02    1.46       1.0  T
   6    -42.5096109 -0.147492E-04  0.391E-03    1.46       5.1  T
   7    -42.5096110 -0.178307E-06  0.198E-03    1.46      10.1  T
   8    -42.5096111 -0.324553E-07  0.760E-04    1.46      26.3  T
   9    -42.5096111 -0.763103E-08  0.256E-04    1.46      78.2  T
     SCC iter.                  ...        0 min,  0.013 sec
     gradient                   ...        0 min,  0.013 sec
 * total energy  :   -41.9854234 Eh     change       -0.3422910E-02 Eh
   gradient norm :     0.0620128 Eh/α   predicted    -0.2472989E-02 ( -27.75%)
   displ. norm   :     0.1513137 α      lambda       -0.3963894E-02
   maximum displ.:     0.1074643 α      in ANC's #1, #33, #2, ...

........................................................................
.............................. CYCLE   13 ..............................
........................................................................

 iter      E             dE          RMSdq      gap      omega  full diag
   1    -42.5178017 -0.425178E+02  0.174E-01    1.44       0.0  T
   2    -42.5177977  0.401143E-05  0.105E-01    1.44       1.0  T
   3    -42.5173506  0.447093E-03  0.122E-01    1.44       1.0  T
   4    -42.5176827 -0.332077E-03  0.896E-02    1.44       1.0  T
   5    -42.5178988 -0.216158E-03  0.715E-03    1.44       2.8  T
   6    -42.5178996 -0.753385E-06  0.284E-03    1.44       7.0  T
   7    -42.5178996 -0.783824E-07  0.156E-03    1.44      12.8  T
   8    -42.5178997 -0.289024E-07  0.406E-04    1.44      49.3  T
   9    -42.5178997 -0.254419E-08  0.149E-04    1.44     134.3  T
     SCC iter.                  ...        0 min,  0.013 sec
     gradient                   ...        0 min,  0.013 sec
 * total energy  :   -41.9885321 Eh     change       -0.3108698E-02 Eh
   gradient norm :     0.0773495 Eh/α   predicted    -0.2027329E-02 ( -34.79%)
   displ. norm   :     0.2547315 α      lambda       -0.6420658E-02
   maximum displ.:     0.1733223 α      in ANC's #1, #33, #2, ...

........................................................................
.............................. CYCLE   14 ..............................
........................................................................

 iter      E             dE          RMSdq      gap      omega  full diag
   1    -42.5227783 -0.425228E+02  0.304E-01    1.41       0.0  T
   2    -42.5228547 -0.763544E-04  0.174E-01    1.41       1.0  T
   3    -42.5224372  0.417435E-03  0.156E-01    1.41       1.0  T
   4    -42.5221780  0.259230E-03  0.175E-01    1.41       1.0  T
   5    -42.5231261 -0.948047E-03  0.149E-02    1.41       1.3  T
   6    -42.5231323 -0.620432E-05  0.403E-03    1.41       5.0  T
   7    -42.5231323 -0.765675E-07  0.246E-03    1.41       8.1  T
   8    -42.5231324 -0.416303E-07  0.598E-04    1.41      33.4  T
   9    -42.5231324 -0.725584E-08  0.176E-04    1.41     113.8  T
     SCC iter.                  ...        0 min,  0.013 sec
     gradient                   ...        0 min,  0.013 sec
 * total energy  :   -41.9934210 Eh     change       -0.4888879E-02 Eh
   gradient norm :     0.0834397 Eh/α   predicted    -0.3418676E-02 ( -30.07%)
   displ. norm   :     0.3265594 α      lambda       -0.7163153E-02
   maximum displ.:     0.2172395 α      in ANC's #1, #33, #15, ...

........................................................................
.............................. CYCLE   15 ..............................
........................................................................

 iter      E             dE          RMSdq      gap      omega  full diag
   1    -42.5201618 -0.425202E+02  0.394E-01    1.34       0.0  T
   2    -42.5204860 -0.324151E-03  0.212E-01    1.34       1.0  T
   3    -42.5201849  0.301045E-03  0.219E-01    1.34       1.0  T
   4    -42.5198918  0.293077E-03  0.176E-01    1.35       1.0  T
   5    -42.5208422 -0.950315E-03  0.476E-02    1.34       1.0  T
   6    -42.5209388 -0.966466E-04  0.563E-03    1.34       3.6  T
   7    -42.5209392 -0.349741E-06  0.297E-03    1.34       6.7  T
   8    -42.5209392 -0.294785E-07  0.851E-04    1.34      23.5  T
   9    -42.5209392 -0.148246E-07  0.270E-04    1.34      74.0  T
     SCC iter.                  ...        0 min,  0.013 sec
     gradient                   ...        0 min,  0.013 sec
 * total energy  :   -41.9989796 Eh     change       -0.5558628E-02 Eh
   gradient norm :     0.0878488 Eh/α   predicted    -0.3963547E-02 ( -28.70%)
   displ. norm   :     0.4039443 α      lambda       -0.8763067E-02
   maximum displ.:     0.2571419 α      in ANC's #1, #33, #15, ...

........................................................................
.............................. CYCLE   16 ..............................
........................................................................

 iter      E             dE          RMSdq      gap      omega  full diag
   1    -42.5113856 -0.425114E+02  0.501E-01    1.22       0.0  T
   2    -42.5108910  0.494532E-03  0.312E-01    1.25       1.0  T
   3    -42.5073844  0.350665E-02  0.472E-01    1.22       1.0  T
   4    -42.5124472 -0.506286E-02  0.134E-01    1.24       1.0  T
   5    -42.5126565 -0.209300E-03  0.491E-02    1.23       1.0  T
   6    -42.5127694 -0.112863E-03  0.852E-03    1.23       2.3  T
   7    -42.5127706 -0.118553E-05  0.422E-03    1.23       4.7  T
   8    -42.5127707 -0.120261E-06  0.136E-03    1.23      14.7  T
   9    -42.5127707 -0.228567E-07  0.461E-04    1.23      43.4  T
  10    -42.5127707 -0.150031E-08  0.274E-04    1.23      73.0  T
     SCC iter.                  ...        0 min,  0.014 sec
     gradient                   ...        0 min,  0.013 sec
 * total energy  :   -42.0060281 Eh     change       -0.7048562E-02 Eh
   gradient norm :     0.1071277 Eh/α   predicted    -0.5097055E-02 ( -27.69%)
   displ. norm   :     0.4807436 α      lambda       -0.1211991E-01
   maximum displ.:     0.3059426 α      in ANC's #1, #33, #15, ...

........................................................................
.............................. CYCLE   17 ..............................
........................................................................

 iter      E             dE          RMSdq      gap      omega  full diag
   1    -42.4992248 -0.424992E+02  0.612E-01    1.03       0.0  T
   2    -42.4948082  0.441660E-02  0.508E-01    1.11       1.0  T
   3    -42.4903967  0.441145E-02  0.668E-01    1.04       1.0  T
   4    -42.5013781 -0.109814E-01  0.142E-01    1.05       1.0  T
   5    -42.5014188 -0.406291E-04  0.447E-02    1.06       1.0  T
   6    -42.5015143 -0.954971E-04  0.137E-02    1.06       1.5  T
   7    -42.5015179 -0.361637E-05  0.711E-03    1.06       2.8  T
   8    -42.5015185 -0.578777E-06  0.225E-03    1.06       8.9  T
   9    -42.5015185 -0.753380E-07  0.782E-04    1.06      25.6  T
  10    -42.5015185 -0.511363E-08  0.370E-04    1.06      54.1  T
     SCC iter.                  ...        0 min,  0.014 sec
     gradient                   ...        0 min,  0.013 sec
 * total energy  :   -42.0157987 Eh     change       -0.9770531E-02 Eh
   gradient norm :     0.1373623 Eh/α   predicted    -0.7460542E-02 ( -23.64%)
   displ. norm   :     0.4130391 α      lambda       -0.1670300E-01
   maximum displ.:     0.2186606 α      in ANC's #1, #57, #33, ...

........................................................................
.............................. CYCLE   18 ..............................
........................................................................

 iter      E             dE          RMSdq      gap      omega  full diag
   1    -42.4933146 -0.424933E+02  0.624E-01    0.84       0.0  T
   2    -42.4843384  0.897617E-02  0.653E-01    0.96       1.0  T
   3    -42.4856240 -0.128561E-02  0.660E-01    0.86       1.0  T
   4    -42.4960244 -0.104003E-01  0.134E-01    0.86       1.0  T
   5    -42.4960729 -0.485221E-04  0.293E-02    0.87       1.0  T
   6    -42.4960925 -0.195620E-04  0.176E-02    0.87       1.1  T
   7    -42.4960971 -0.464709E-05  0.665E-03    0.87       3.0  T
   8    -42.4960980 -0.865383E-06  0.236E-03    0.87       8.5  T
   9    -42.4960981 -0.127032E-06  0.877E-04    0.87      22.8  T
  10    -42.4960981 -0.677188E-08  0.437E-04    0.87      45.8  T
     SCC iter.                  ...        0 min,  0.014 sec
     gradient                   ...        0 min,  0.013 sec
 * total energy  :   -42.0278592 Eh     change       -0.1206055E-01 Eh
   gradient norm :     0.1662581 Eh/α   predicted    -0.9776310E-02 ( -18.94%)
   displ. norm   :     0.4403742 α      lambda       -0.1923639E-01
   maximum displ.:     0.3065993 α      in ANC's #1, #57, #55, ...

........................................................................
.............................. CYCLE   19 ..............................
........................................................................

 iter      E             dE          RMSdq      gap      omega  full diag
   1    -42.4993125 -0.424993E+02  0.565E-01    0.63       0.0  T
   2    -42.4828138  0.164987E-01  0.832E-01    0.80       1.0  T
   3    -42.4972458 -0.144320E-01  0.486E-01    0.64       1.0  T
   4    -42.5022978 -0.505197E-02  0.110E-01    0.64       1.0  T
   5    -42.5023301 -0.323602E-04  0.315E-02    0.64       1.0  T
   6    -42.5023529 -0.227284E-04  0.164E-02    0.64       1.2  T
   7    -42.5023568 -0.393804E-05  0.664E-03    0.64       3.0  T
   8    -42.5023574 -0.653258E-06  0.255E-03    0.64       7.8  T
   9    -42.5023576 -0.187828E-06  0.749E-04    0.64      26.7  T
  10    -42.5023576 -0.298569E-08  0.380E-04    0.64      52.7  T
     SCC iter.                  ...        0 min,  0.014 sec
     gradient                   ...        0 min,  0.013 sec
 * total energy  :   -42.0403071 Eh     change       -0.1244782E-01 Eh
   gradient norm :     0.1794858 Eh/α   predicted    -0.1148347E-01 (  -7.75%)
   displ. norm   :     0.4048568 α      lambda       -0.3572884E-01
   maximum displ.:     0.1621997 α      in ANC's #50, #55, #57, ...

........................................................................
.............................. CYCLE   20 ..............................
........................................................................

 iter      E             dE          RMSdq      gap      omega  full diag
   1    -42.5335737 -0.425336E+02  0.826E-01    0.55       0.0  T
   2    -42.4939309  0.396427E-01  0.138E+00    0.85       1.0  T
   3    -42.5406993 -0.467684E-01  0.457E-01    0.51       1.0  T
   4    -42.5440268 -0.332752E-02  0.178E-01    0.49       1.0  T
   5    -42.5440366 -0.982378E-05  0.680E-02    0.49       1.0  T
   6    -42.5441926 -0.156002E-03  0.281E-02    0.49       1.0  T
   7    -42.5442130 -0.203052E-04  0.121E-02    0.49       1.6  T
   8    -42.5442138 -0.809802E-06  0.602E-03    0.49       3.3  T
   9    -42.5442145 -0.767781E-06  0.135E-03    0.49      14.8  T
  10    -42.5442146 -0.234495E-07  0.523E-04    0.49      38.3  T
  11    -42.5442146  0.274412E-10  0.300E-04    0.49      66.7  T
     SCC iter.                  ...        0 min,  0.015 sec
     gradient                   ...        0 min,  0.013 sec
 * total energy  :   -42.0519698 Eh     change       -0.1166270E-01 Eh
   gradient norm :     0.2004559 Eh/α   predicted    -0.2079275E-01 (  78.28%)
   displ. norm   :     0.1479709 α      lambda       -0.1930842E-01
   maximum displ.:     0.0880796 α      in ANC's #1, #45, #47, ...
 * RMSD in coord.:     0.8071341 α      energy gain  -0.6695491E+01 Eh

generating ANC from model Hessian ...
Using Lindh-Hessian (1995)
 Shifting diagonal of input Hessian by    1.3221541115466879E-002
 Lowest  eigenvalues of input Hessian
    0.010000    0.010054    0.000000    0.000000    0.000000    0.000000
    0.000000    0.000000    0.015528    0.016627    0.018054    0.021091
    0.022687    0.024003    0.025181    0.025853    0.030294    0.034196
 Highest eigenvalues
    2.050823    2.173867    2.205725    2.247631    2.415579    2.788163


........................................................................
.............................. CYCLE   21 ..............................
........................................................................

 iter      E             dE          RMSdq      gap      omega  full diag
   1    -42.5532419 -0.425532E+02  0.214E-01    0.46       0.0  T
   2    -42.5533538 -0.111923E-03  0.143E-01    0.46       1.0  T
   3    -42.5530873  0.266530E-03  0.166E-01    0.47       1.0  T
   4    -42.5534698 -0.382522E-03  0.915E-02    0.46       1.0  T
   5    -42.5536247 -0.154835E-03  0.444E-02    0.46       1.0  T
   6    -42.5536816 -0.569100E-04  0.556E-03    0.46       3.6  T
   7    -42.5536820 -0.400827E-06  0.280E-03    0.46       7.1  T
   8    -42.5536820 -0.635646E-07  0.114E-03    0.46      17.6  T
   9    -42.5536821 -0.219748E-07  0.294E-04    0.46      68.0  T
  10    -42.5536821 -0.151390E-08  0.126E-04    0.46     158.4  T
     SCC iter.                  ...        0 min,  0.014 sec
     gradient                   ...        0 min,  0.013 sec
 * total energy  :   -42.0663716 Eh     change       -0.1440180E-01 Eh
   gradient norm :     0.1210719 Eh/α   predicted     0.0000000E+00 (-100.00%)
   displ. norm   :     0.3889629 α      lambda       -0.2962910E-01
   maximum displ.:     0.1616421 α      in ANC's #23, #14, #18, ...

........................................................................
.............................. CYCLE   22 ..............................
........................................................................

 iter      E             dE          RMSdq      gap      omega  full diag
   1    -42.5862822 -0.425863E+02  0.405E-01    0.41       0.0  T
   2    -42.5773271  0.895517E-02  0.655E-01    0.48       1.0  T
   3    -42.5875120 -0.101849E-01  0.244E-01    0.40       1.0  T
   4    -42.5880104 -0.498449E-03  0.916E-02    0.39       1.0  T
   5    -42.5880857 -0.753037E-04  0.525E-02    0.39       1.0  T
   6    -42.5881793 -0.936142E-04  0.125E-02    0.39       1.6  T
   7    -42.5881816 -0.221755E-05  0.646E-03    0.39       3.1  T
   8    -42.5881820 -0.457063E-06  0.206E-03    0.39       9.7  T
   9    -42.5881821 -0.788854E-07  0.471E-04    0.39      42.5  T
  10    -42.5881821 -0.281866E-08  0.251E-04    0.39      79.6  T
     SCC iter.                  ...        0 min,  0.014 sec
     gradient                   ...        0 min,  0.013 sec
 * total energy  :   -42.0889170 Eh     change       -0.2254546E-01 Eh
   gradient norm :     0.0705046 Eh/α   predicted    -0.1705772E-01 ( -24.34%)
   displ. norm   :     0.4551157 α      lambda       -0.1761263E-01
   maximum displ.:     0.1734024 α      in ANC's #14, #17, #18, ...

........................................................................
.............................. CYCLE   23 ..............................
........................................................................

 iter      E             dE          RMSdq      gap      omega  full diag
   1    -42.6137196 -0.426137E+02  0.528E-01    0.37       0.0  T
   2    -42.5967758  0.169438E-01  0.871E-01    0.48       1.0  T
   3    -42.6159453 -0.191696E-01  0.304E-01    0.35       1.0  T
   4    -42.6170754 -0.113003E-02  0.813E-02    0.32       1.0  T
   5    -42.6171039 -0.285215E-04  0.252E-02    0.32       1.0  T
   6    -42.6171172 -0.133202E-04  0.114E-02    0.32       1.8  T
   7    -42.6171194 -0.218390E-05  0.597E-03    0.32       3.4  T
   8    -42.6171199 -0.485246E-06  0.190E-03    0.32      10.5  T
   9    -42.6171200 -0.808504E-07  0.439E-04    0.32      45.5  T
  10    -42.6171200 -0.212959E-08  0.235E-04    0.32      85.3  T
     SCC iter.                  ...        0 min,  0.014 sec
     gradient                   ...        0 min,  0.013 sec
 * total energy  :   -42.0992742 Eh     change       -0.1035721E-01 Eh
   gradient norm :     0.0357637 Eh/α   predicted    -0.1063330E-01 (   2.67%)
   displ. norm   :     0.2822939 α      lambda       -0.2938605E-02
   maximum displ.:     0.1459209 α      in ANC's #6, #5, #7, ...

........................................................................
.............................. CYCLE   24 ..............................
........................................................................

 iter      E             dE          RMSdq      gap      omega  full diag
   1    -42.6193120 -0.426193E+02  0.326E-01    0.31       0.0  T
   2    -42.6177525  0.155955E-02  0.281E-01    0.30       1.0  T
   3    -42.6173631  0.389349E-03  0.339E-01    0.36       1.0  T
   4    -42.6194844 -0.212131E-02  0.733E-02    0.30       1.0  T
   5    -42.6196436 -0.159225E-03  0.208E-02    0.30       1.0  T
   6    -42.6196598 -0.161064E-04  0.277E-03    0.30       7.2  T
   7    -42.6196599 -0.133720E-06  0.135E-03    0.30      14.8  T
   8    -42.6196599 -0.992981E-08  0.593E-04    0.30      33.7  T
   9    -42.6196599 -0.430700E-08  0.234E-04    0.30      85.4  T
     SCC iter.                  ...        0 min,  0.013 sec
     gradient                   ...        0 min,  0.013 sec
 * total energy  :   -42.1014481 Eh     change       -0.2173895E-02 Eh
   gradient norm :     0.0311227 Eh/α   predicted    -0.1586410E-02 ( -27.02%)
   displ. norm   :     0.3480525 α      lambda       -0.3113161E-02
   maximum displ.:     0.1716741 α      in ANC's #6, #9, #5, ...

........................................................................
.............................. CYCLE   25 ..............................
........................................................................

 iter      E             dE          RMSdq      gap      omega  full diag
   1    -42.6228160 -0.426228E+02  0.326E-01    0.30       0.0  T
   2    -42.6225591  0.256864E-03  0.200E-01    0.29       1.0  T
   3    -42.6208386  0.172051E-02  0.321E-01    0.34       1.0  T
   4    -42.6226351 -0.179649E-02  0.969E-02    0.28       1.0  T
   5    -42.6229655 -0.330333E-03  0.214E-02    0.30       1.0  T
   6    -42.6229825 -0.170354E-04  0.367E-03    0.30       5.4  T
   7    -42.6229827 -0.225486E-06  0.166E-03    0.30      12.1  T
   8    -42.6229827 -0.202854E-07  0.719E-04    0.30      27.8  T
   9    -42.6229828 -0.467309E-08  0.250E-04    0.30      79.9  T
     SCC iter.                  ...        0 min,  0.013 sec
     gradient                   ...        0 min,  0.013 sec
 * total energy  :   -42.1032252 Eh     change       -0.1777037E-02 Eh
   gradient norm :     0.0149424 Eh/α   predicted    -0.1745149E-02 (  -1.79%)
   displ. norm   :     0.2255149 α      lambda       -0.1034502E-02
   maximum displ.:     0.1257894 α      in ANC's #6, #2, #5, ...

........................................................................
.............................. CYCLE   26 ..............................
........................................................................

 iter      E             dE          RMSdq      gap      omega  full diag
   1    -42.6205128 -0.426205E+02  0.216E-01    0.30       0.0  T
   2    -42.6202963  0.216535E-03  0.140E-01    0.28       1.0  T
   3    -42.6192174  0.107888E-02  0.251E-01    0.34       1.0  T
   4    -42.6205524 -0.133501E-02  0.231E-02    0.29       1.0  T
   5    -42.6205651 -0.126637E-04  0.125E-02    0.30       1.6  T
   6    -42.6205711 -0.596710E-05  0.331E-03    0.29       6.0  T
   7    -42.6205712 -0.130216E-06  0.177E-03    0.29      11.3  T
   8    -42.6205712 -0.392191E-07  0.443E-04    0.29      45.1  T
   9    -42.6205712 -0.370436E-08  0.863E-05    0.29     231.8  T
     SCC iter.                  ...        0 min,  0.013 sec
     gradient                   ...        0 min,  0.013 sec
 * total energy  :   -42.1036873 Eh     change       -0.4621569E-03 Eh
   gradient norm :     0.0195058 Eh/α   predicted    -0.5435589E-03 (  17.61%)
   displ. norm   :     0.1008951 α      lambda       -0.6926873E-03
   maximum displ.:     0.0623628 α      in ANC's #2, #9, #42, ...

........................................................................
.............................. CYCLE   27 ..............................
........................................................................

 iter      E             dE          RMSdq      gap      omega  full diag
   1    -42.6245928 -0.426246E+02  0.636E-02    0.30       0.0  T
   2    -42.6245923  0.481323E-06  0.375E-02    0.30       1.0  T
   3    -42.6245464  0.458824E-04  0.554E-02    0.29       1.0  T
   4    -42.6245963 -0.498769E-04  0.183E-02    0.30       1.1  T
   5    -42.6246013 -0.502863E-05  0.120E-02    0.29       1.7  T
   6    -42.6246062 -0.486699E-05  0.256E-03    0.30       7.8  T
   7    -42.6246063 -0.861090E-07  0.136E-03    0.30      14.7  T
   8    -42.6246063 -0.220217E-07  0.284E-04    0.30      70.4  T
   9    -42.6246063 -0.129620E-08  0.936E-05    0.30     213.7  T
     SCC iter.                  ...        0 min,  0.013 sec
     gradient                   ...        0 min,  0.013 sec
 * total energy  :   -42.1040591 Eh     change       -0.3718302E-03 Eh
   gradient norm :     0.0093589 Eh/α   predicted    -0.3498700E-03 (  -5.91%)
   displ. norm   :     0.1139197 α      lambda       -0.2672468E-03
   maximum displ.:     0.0570397 α      in ANC's #5, #2, #6, ...

........................................................................
.............................. CYCLE   28 ..............................
........................................................................

 iter      E             dE          RMSdq      gap      omega  full diag
   1    -42.6249365 -0.426249E+02  0.101E-01    0.30       0.0  T
   2    -42.6248491  0.873962E-04  0.815E-02    0.29       1.0  T
   3    -42.6247314  0.117712E-03  0.102E-01    0.31       1.0  T
   4    -42.6249536 -0.222213E-03  0.833E-03    0.29       2.4  T
   5    -42.6249549 -0.130254E-05  0.480E-03    0.29       4.2  T
   6    -42.6249557 -0.800552E-06  0.848E-04    0.29      23.6  T
   7    -42.6249557 -0.158445E-07  0.350E-04    0.29      57.1  T
     SCC iter.                  ...        0 min,  0.010 sec
     gradient                   ...        0 min,  0.013 sec
 * total energy  :   -42.1042370 Eh     change       -0.1778480E-03 Eh
   gradient norm :     0.0075028 Eh/α   predicted    -0.1353670E-03 ( -23.89%)
   displ. norm   :     0.1194149 α      lambda       -0.1914342E-03
   maximum displ.:     0.0739532 α      in ANC's #2, #5, #4, ...

........................................................................
.............................. CYCLE   29 ..............................
........................................................................

 iter      E             dE          RMSdq      gap      omega  full diag
   1    -42.6249049 -0.426249E+02  0.876E-02    0.29       0.0  T
   2    -42.6248882  0.167075E-04  0.571E-02    0.29       1.0  T
   3    -42.6246296  0.258568E-03  0.102E-01    0.31       1.0  T
   4    -42.6249069 -0.277251E-03  0.111E-02    0.29       1.8  T
   5    -42.6249106 -0.372149E-05  0.427E-03    0.29       4.7  T
   6    -42.6249112 -0.617825E-06  0.875E-04    0.29      22.9  T
   7    -42.6249112 -0.118784E-07  0.397E-04    0.29      50.4  T
     SCC iter.                  ...        0 min,  0.010 sec
     gradient                   ...        0 min,  0.013 sec
 * total energy  :   -42.1043664 Eh     change       -0.1293860E-03 Eh
   gradient norm :     0.0064841 Eh/α   predicted    -0.9709694E-04 ( -24.96%)
   displ. norm   :     0.1107025 α      lambda       -0.1234695E-03
   maximum displ.:     0.0725052 α      in ANC's #2, #5, #4, ...

........................................................................
.............................. CYCLE   30 ..............................
........................................................................

 iter      E             dE          RMSdq      gap      omega  full diag
   1    -42.6247702 -0.426248E+02  0.653E-02    0.29       0.0  T
   2    -42.6247427  0.275702E-04  0.520E-02    0.30       1.0  T
   3    -42.6246975  0.451737E-04  0.613E-02    0.29       1.0  T
   4    -42.6247670 -0.694992E-04  0.172E-02    0.30       1.2  T
   5    -42.6247780 -0.109681E-04  0.299E-03    0.29       6.7  T
   6    -42.6247783 -0.292945E-06  0.673E-04    0.29      29.7  T
   7    -42.6247783 -0.397138E-08  0.379E-04    0.29      52.8  T
     SCC iter.                  ...        0 min,  0.010 sec
     gradient                   ...        0 min,  0.013 sec
 * total energy  :   -42.1044525 Eh     change       -0.8612840E-04 Eh
   gradient norm :     0.0043138 Eh/α   predicted    -0.6249394E-04 ( -27.44%)
   displ. norm   :     0.1151361 α      lambda       -0.8052400E-04
   maximum displ.:     0.0734746 α      in ANC's #2, #4, #5, ...

........................................................................
.............................. CYCLE   31 ..............................
........................................................................

 iter      E             dE          RMSdq      gap      omega  full diag
   1    -42.6250206 -0.426250E+02  0.547E-02    0.29       0.0  T
   2    -42.6250078  0.127709E-04  0.401E-02    0.30       1.0  T
   3    -42.6249532  0.546327E-04  0.561E-02    0.29       1.0  T
   4    -42.6250200 -0.668247E-04  0.114E-02    0.29       1.8  T
   5    -42.6250245 -0.451815E-05  0.289E-03    0.29       6.9  T
   6    -42.6250248 -0.282981E-06  0.601E-04    0.29      33.3  T
   7    -42.6250248 -0.118850E-08  0.347E-04    0.29      57.6  T
     SCC iter.                  ...        0 min,  0.010 sec
     gradient                   ...        0 min,  0.013 sec
 * total energy  :   -42.1045085 Eh     change       -0.5604336E-04 Eh
   gradient norm :     0.0047681 Eh/α   predicted    -0.4080814E-04 ( -27.18%)
   displ. norm   :     0.1073292 α      lambda       -0.5509847E-04
   maximum displ.:     0.0599990 α      in ANC's #2, #4, #5, ...

........................................................................
.............................. CYCLE   32 ..............................
........................................................................

 iter      E             dE          RMSdq      gap      omega  full diag
   1    -42.6251847 -0.426252E+02  0.443E-02    0.29       0.0  T
   2    -42.6251769  0.777708E-05  0.322E-02    0.30       1.0  T
   3    -42.6251342  0.426457E-04  0.472E-02    0.29       1.0  T
   4    -42.6251852 -0.510074E-04  0.734E-03    0.29       2.7  T
   5    -42.6251870 -0.176070E-05  0.207E-03    0.29       9.7  T
   6    -42.6251871 -0.130600E-06  0.616E-04    0.29      32.5  T
   7    -42.6251871 -0.225364E-08  0.382E-04    0.29      52.3  T
     SCC iter.                  ...        0 min,  0.010 sec
     gradient                   ...        0 min,  0.013 sec
 * total energy  :   -42.1045464 Eh     change       -0.3787115E-04 Eh
   gradient norm :     0.0041012 Eh/α   predicted    -0.2786883E-04 ( -26.41%)
   displ. norm   :     0.1088927 α      lambda       -0.3819275E-04
   maximum displ.:     0.0674119 α      in ANC's #2, #4, #5, ...

........................................................................
.............................. CYCLE   33 ..............................
........................................................................

 iter      E             dE          RMSdq      gap      omega  full diag
   1    -42.6253219 -0.426253E+02  0.398E-02    0.29       0.0  T
   2    -42.6253178  0.408778E-05  0.265E-02    0.29       1.0  T
   3    -42.6252719  0.458595E-04  0.454E-02    0.30       1.0  T
   4    -42.6253228 -0.508681E-04  0.311E-03    0.29       6.4  T
   5    -42.6253231 -0.275608E-06  0.917E-04    0.29      21.8  T
   6    -42.6253231 -0.117599E-07  0.483E-04    0.29      41.4  T
     SCC iter.                  ...        0 min,  0.009 sec
     gradient                   ...        0 min,  0.013 sec
 * total energy  :   -42.1045716 Eh     change       -0.2520567E-04 Eh
   gradient norm :     0.0045027 Eh/α   predicted    -0.1932501E-04 ( -23.33%)
   displ. norm   :     0.0693391 α      lambda       -0.2603807E-04
   maximum displ.:     0.0339137 α      in ANC's #4, #2, #1, ...

........................................................................
.............................. CYCLE   34 ..............................
........................................................................

 iter      E             dE          RMSdq      gap      omega  full diag
   1    -42.6255000 -0.426255E+02  0.242E-02    0.29       0.0  T
   2    -42.6254917  0.824325E-05  0.229E-02    0.29       1.0  T
   3    -42.6254929 -0.115263E-05  0.212E-02    0.30       1.0  T
   4    -42.6255015 -0.864042E-05  0.280E-03    0.29       7.1  T
   5    -42.6255017 -0.203374E-06  0.118E-03    0.29      17.0  T
   6    -42.6255017 -0.413959E-07  0.461E-04    0.29      43.4  T
   7    -42.6255017 -0.220285E-08  0.252E-04    0.29      79.2  T
     SCC iter.                  ...        0 min,  0.010 sec
     gradient                   ...        0 min,  0.013 sec
 * total energy  :   -42.1045872 Eh     change       -0.1558372E-04 Eh
   gradient norm :     0.0021102 Eh/α   predicted    -0.1308277E-04 ( -16.05%)
   displ. norm   :     0.0559363 α      lambda       -0.1396159E-04
   maximum displ.:     0.0402211 α      in ANC's #2, #1, #3, ...

   *** GEOMETRY OPTIMIZATION CONVERGED AFTER 34 ITERATIONS ***

------------------------------------------------------------------------
 total energy gain   :        -6.7481087 Eh    -4234.5022 kcal/mol
 total RMSD          :         0.8005041 a0        0.4236 Å
 total power (kW/mol):      -521.0928548 (step)********** (real)
------------------------------------------------------------------------

 ANCopt (total)                0 d,  0 h,  0 min,  1.077 sec
 optimizer setup                ...        0 min,  0.000 sec (  0.038%)
 model hessian                  ...        0 min,  0.018 sec (  1.709%)
 ANC generation                 ...        0 min,  0.002 sec (  0.166%)
 coordinate transformation      ...        0 min,  0.000 sec (  0.032%)
 single point calculation       ...        0 min,  1.047 sec ( 97.230%)
 optimization log               ...        0 min,  0.003 sec (  0.303%)
 hessian update                 ...        0 min,  0.000 sec (  0.044%)
 rational function              ...        0 min,  0.003 sec (  0.319%)

================
 final structure:
================
25
 xtb: 6.6.1 (8d0f1dd)
C            3.29466634004981        1.08714564564309       -0.00529798773562
N            2.33828778163411        0.01276578940706       -0.01012609815568
C            2.60197308253467       -1.29030373562963       -0.04702894024287
N            1.44581295445452       -1.99361515298686       -0.02264002382221
C            0.41278469059889       -1.10650087254204        0.03278029397449
C            0.96941909454441        0.16659367123065        0.04310878915366
C            0.17204201814520        1.35490372698195        0.08906349050722
O            0.55224854360075        2.50424587560249        0.08098512758221
N           -1.22954115245679        1.03898129001334        0.15193975961115
C           -2.08580882735024        2.06816234679289        0.24144988899657
C           -1.79947971247830       -0.26473604308328        0.12173243565982
O           -2.98865807180076       -0.42425376156767        0.14666346520642
N           -0.91516152749293       -1.33920818241058        0.06375493961452
C           -1.45345300978724       -2.68788223748569        0.03710328070337
H            3.79453736430985        1.14540436762047        0.96300471096385
H            4.04366309524835        0.92814479257892       -0.77923414432642
H            2.76997761850076        2.02489878883156       -0.18361902056381
H            3.58028270964536       -1.72510375767020       -0.09275969100598
H           -1.67249934859004        3.05834053063611        0.26614455597699
H           -4.09707231257241        3.45555596706085       -1.40203829021719
H           -3.13748458377863        1.86111587959992        0.28720008114484
H           -1.13231004858809       -3.24308664802814        0.91849429051085
H           -1.13986220148801       -3.20291193616613       -0.87041221891947
H           -2.53985297284270       -2.60957062122764        0.04423098011793
H            1.37591999005950       -3.00084718160133       -0.04332805683459

 Bond Distances (Angstroems)
 ---------------------------
C1-N2=1.4384         C1-H15=1.0913        C1-H16=1.0887        C1-H17=1.0893        N2-C1=1.4384         N2-C3=1.3300         
N2-C6=1.3785         C3-N2=1.3300         C3-N4=1.3535         C3-H18=1.0716        N4-C3=1.3535         N4-C5=1.3628         
N4-H25=1.0099        C5-N4=1.3628         C5-C6=1.3895         C5-N13=1.3485        C6-N2=1.3785         C6-C5=1.3895         
C6-C7=1.4318         C7-C6=1.4318         C7-O8=1.2106         C7-N9=1.4381         O8-C7=1.2106         N9-C7=1.4381         
N9-C10=1.3418        N9-C11=1.4232        C10-N9=1.3418        C10-H19=1.0733       C10-H21=1.0728       C11-N9=1.4232        
C11-O12=1.2001       C11-N13=1.3928       O12-C11=1.2001       N13-C5=1.3485        N13-C11=1.3928       N13-C14=1.4524       
C14-N13=1.4524       C14-H22=1.0901       C14-H23=1.0896       C14-H24=1.0892       H15-C1=1.0913        H16-C1=1.0887        
H17-C1=1.0893        H18-C3=1.0716        H19-C10=1.0733       H21-C10=1.0728       H22-C14=1.0901       H23-C14=1.0896       
H24-C14=1.0892       H25-N4=1.0099        
 C  H  Rav=1.0840 sigma=0.0081  Rmin=1.0716  Rmax=1.0913     9
 C  C  Rav=1.4106 sigma=0.0211  Rmin=1.3895  Rmax=1.4318     2
 N  H  Rav=1.0099 sigma=0.0000  Rmin=1.0099  Rmax=1.0099     1
 N  C  Rav=1.3873 sigma=0.0420  Rmin=1.3300  Rmax=1.4524    11
 O  C  Rav=1.2054 sigma=0.0053  Rmin=1.2001  Rmax=1.2106     2

 selected bond angles (degree)
 --------------------
H15-C1-N2=110.33               H16-C1-N2=110.24               H16-C1-H15=108.87              H17-C1-N2=108.80               
H17-C1-H15=108.66              H17-C1-H16=109.92              C3-N2-C1=126.88                C6-N2-C1=125.22                
C6-N2-C3=107.90                N4-C3-N2=109.83                H18-C3-N2=125.43               H18-C3-N4=124.74               
C5-N4-C3=108.06                H25-N4-C3=125.24               H25-N4-C5=126.70               C6-C5-N4=107.04                
N13-C5-N4=129.42               N13-C5-C6=123.53               C5-C6-N2=107.17                C7-C6-N2=130.31                
C7-C6-C5=122.52                O8-C7-C6=127.79                N9-C7-C6=111.21                N9-C7-O8=120.99                
C10-N9-C7=117.15               C11-N9-C7=126.20               C11-N9-C10=116.65              H19-C10-N9=117.61              
H21-C10-N9=118.71              H21-C10-H19=123.68             

 selected dihedral angles (degree)
 ---------------------------------
C3-N2-C1-H15=287.24           C3-N2-C1-H16= 47.53           C3-N2-C1-H17=168.13           C6-N2-C1-H15=106.24           
C6-N2-C1-H16=226.52           C6-N2-C1-H17=347.13           N4-C3-N2-C1=179.28            N4-C3-N2-C6=  0.14            
H18-C3-N2-C1=359.08           H18-C3-N2-C6=179.94           C5-N4-C3-N2=359.95            C5-N4-C3-H18=180.15           
H25-N4-C3-N2=179.90           H25-N4-C3-H18=  0.09          C6-C5-N4-C3=359.94            C6-C5-N4-H25=180.00           
N13-C5-N4-C3=179.46           N13-C5-N4-H25=359.51          C5-C6-N2-C1=180.67            C5-C6-N2-C3=359.83            
C7-C6-N2-C1=  1.26            C7-C6-N2-C3=180.42            N2-C6-C5-N4=  0.14            N2-C6-C5-N13=180.59           
C7-C6-C5-N4=179.60            C7-C6-C5-N13=  0.05           O8-C7-C6-N2=  0.57            O8-C7-C6-C5=181.24            
N9-C7-C6-N2=180.63            N9-C7-C6-C5=  1.31            C10-N9-C7-C6=177.99           C10-N9-C7-O8=358.04           
C11-N9-C7-C6=357.66           C11-N9-C7-O8=177.71           H19-C10-N9-C7=359.66          H19-C10-N9-C11=179.95         
H21-C10-N9-C7=179.84          H21-C10-N9-C11=  0.14         
           -------------------------------------------------
          |                Final Singlepoint                |
           -------------------------------------------------

          ...................................................
          :                      SETUP                      :
          :.................................................:
          :  # basis functions                  67          :
          :  # atomic orbitals                  67          :
          :  # shells                           39          :
          :  # electrons                        74          :
          :  max. iterations                   250          :
          :  Hamiltonian                  GFN2-xTB          :
          :  restarted?                      false          :
          :  GBSA solvation                  false          :
          :  PC potential                    false          :
          :  electronic temp.         5000.0000000     K    :
          :  accuracy                    1.0000000          :
          :  -> integral cutoff          0.2500000E+02      :
          :  -> integral neglect         0.1000000E-07      :
          :  -> SCF convergence          0.1000000E-05 Eh   :
          :  -> wf. convergence          0.1000000E-03 e    :
          :  Broyden damping             0.4000000          :
          ...................................................

 iter      E             dE          RMSdq      gap      omega  full diag
   1    -42.6255017 -0.426255E+02  0.826E-05    0.29       0.0  T
   2    -42.6255017  0.141547E-09  0.973E-05    0.29     205.5  T
   3    -42.6255017 -0.177849E-09  0.617E-05    0.29     324.0  T

   *** convergence criteria satisfied after 3 iterations ***

         #    Occupation            Energy/Eh            Energy/eV
      -------------------------------------------------------------
         1        2.0000           -0.9115544             -24.8047
       ...           ...                  ...                  ...
        31        1.9998           -0.6190778             -16.8460
        32        1.9997           -0.6145060             -16.7216
        33        1.9997           -0.6133412             -16.6899
        34        1.9982           -0.5854118             -15.9299
        35        1.9940           -0.5668487             -15.4247
        36        1.9901           -0.5588124             -15.2061
        37        1.1092           -0.4782663             -13.0143 (HOMO)
        38        0.7736           -0.4674968             -12.7212 (LUMO)
        39        0.1157           -0.4306152             -11.7176
        40        0.0173           -0.3997345             -10.8773
        41        0.0031           -0.3721702             -10.1273
        42        0.0000           -0.2877513              -7.8301
       ...           ...                  ...                  ...
        67                          0.5482554              14.9188
      -------------------------------------------------------------
                  HL-Gap            0.0107696 Eh            0.2931 eV
             Fermi-level           -0.4747942 Eh          -12.9198 eV

 SCC (total)                   0 d,  0 h,  0 min,  0.023 sec
 SCC setup                      ...        0 min,  0.000 sec (  0.836%)
 Dispersion                     ...        0 min,  0.000 sec (  0.873%)
 classical contributions        ...        0 min,  0.000 sec (  0.311%)
 integral evaluation            ...        0 min,  0.005 sec ( 21.496%)
 iterations                     ...        0 min,  0.005 sec ( 20.325%)
 molecular gradient             ...        0 min,  0.013 sec ( 55.512%)
 printout                       ...        0 min,  0.000 sec (  0.590%)

         :::::::::::::::::::::::::::::::::::::::::::::::::::::
         ::                     SUMMARY                     ::
         :::::::::::::::::::::::::::::::::::::::::::::::::::::
         :: total energy             -42.104587210572 Eh    ::
         :: gradient norm              0.002113207062 Eh/a0 ::
         :: HOMO-LUMO gap              0.293054790476 eV    ::
         ::.................................................::
         :: SCC energy               -42.625501748806 Eh    ::
         :: -> isotropic ES            0.138477374109 Eh    ::
         :: -> anisotropic ES         -0.006782838517 Eh    ::
         :: -> anisotropic XC          0.012857880308 Eh    ::
         :: -> dispersion             -0.022719128719 Eh    ::
         :: repulsion energy           0.520826613931 Eh    ::
         :: add. restraining           0.000001034809 Eh    ::
         :: total charge               1.000000000000 e     ::
         :::::::::::::::::::::::::::::::::::::::::::::::::::::

           -------------------------------------------------
          |                Property Printout                |
           -------------------------------------------------

    * Orbital Energies and Occupations

         #    Occupation            Energy/Eh            Energy/eV
      -------------------------------------------------------------
         1        2.0000           -0.9115544             -24.8047
       ...           ...                  ...                  ...
        25        2.0000           -0.6712426             -18.2654
        26        2.0000           -0.6692600             -18.2115
        27        2.0000           -0.6630846             -18.0435
        28        1.9999           -0.6333767             -17.2351
        29        1.9999           -0.6299788             -17.1426
        30        1.9999           -0.6279753             -17.0881
        31        1.9998           -0.6190778             -16.8460
        32        1.9997           -0.6145060             -16.7216
        33        1.9997           -0.6133412             -16.6899
        34        1.9982           -0.5854118             -15.9299
        35        1.9940           -0.5668487             -15.4247
        36        1.9901           -0.5588124             -15.2061
        37        1.1092           -0.4782663             -13.0143 (HOMO)
        38        0.7736           -0.4674968             -12.7212 (LUMO)
        39        0.1157           -0.4306152             -11.7176
        40        0.0173           -0.3997345             -10.8773
        41        0.0031           -0.3721702             -10.1273
        42        0.0000           -0.2877513              -7.8301
        43                         -0.2080675              -5.6618
        44                         -0.1971538              -5.3648
        45                         -0.1508557              -4.1050
        46                         -0.1452403              -3.9522
        47                         -0.0791568              -2.1540
        48                         -0.0541603              -1.4738
       ...                                ...                  ...
        67                          0.5482554              14.9188
      -------------------------------------------------------------
                  HL-Gap            0.0107696 Eh            0.2931 eV
             Fermi-level           -0.4747942 Eh          -12.9198 eV

     #   Z          covCN         q      C6AA      α(0)
     1   6 C        3.691    -0.094    22.484     6.785
     2   7 N        2.830     0.078    19.890     6.624
     3   6 C        3.050     0.047    26.895     8.505
     4   7 N        2.792    -0.058    22.354     7.022
     5   6 C        3.041     0.106    25.623     8.303
     6   6 C        3.110    -0.023    28.436     8.736
     7   6 C        2.775     0.254    22.724     7.808
     8   8 O        0.857    -0.362    20.930     6.134
     9   7 N        2.741    -0.032    21.857     6.944
    10   6 C        2.816    -0.022    28.549     8.754
    11   6 C        2.738     0.309    21.749     7.636
    12   8 O        0.859    -0.351    20.723     6.103
    13   7 N        2.737    -0.050    22.201     6.998
    14   6 C        3.698    -0.074    22.082     6.721
    15   1 H        0.924     0.108     1.711     2.045
    16   1 H        0.925     0.104     1.747     2.067
    17   1 H        0.925     0.134     1.503     1.917
    18   1 H        0.926     0.124     1.583     1.968
    19   1 H        0.926     0.134     1.502     1.916
    20   1 H        0.000     0.009     7.258     4.926
    21   1 H        0.926     0.132     1.519     1.927
    22   1 H        0.925     0.084     1.934     2.175
    23   1 H        0.925     0.084     1.942     2.179
    24   1 H        0.925     0.128     1.554     1.949
    25   1 H        0.860     0.229     0.969     1.542

 Mol. C6AA /au·bohr⁶  :       6813.714709
 Mol. C8AA /au·bohr⁸  :     155539.677552
 Mol. α(0) /au        :        127.685475


Wiberg/Mayer (AO) data.
largest (>0.10) Wiberg bond orders for each atom

 ---------------------------------------------------------------------------
     #   Z sym  total        # sym  WBO       # sym  WBO       # sym  WBO
 ---------------------------------------------------------------------------
     1   6 C    3.917 --     2 N    0.986    16 H    0.965    17 H    0.961
                            15 H    0.955
     2   7 N    3.650 --     3 C    1.379     6 C    1.146     1 C    0.986
     3   6 C    3.822 --     2 N    1.379     4 N    1.267    18 H    0.953
     4   7 N    3.580 --     3 C    1.267     5 C    1.194    25 H    0.919
     5   6 C    3.900 --     6 C    1.328     4 N    1.194    13 N    1.191
     6   6 C    3.909 --     5 C    1.328     2 N    1.146     7 C    1.116
     7   6 C    3.869 --     8 O    1.676     6 C    1.116     9 N    0.986
     8   8 O    1.960 --     7 C    1.676     9 N    0.108
     9   7 N    3.615 --    10 C    1.341    11 C    1.017     7 C    0.986
                             8 O    0.108
    10   6 C    3.361 --     9 N    1.341    19 H    0.958    21 H    0.956
    11   6 C    3.906 --    12 O    1.707    13 N    1.087     9 N    1.017
    12   8 O    2.021 --    11 C    1.707    13 N    0.134
    13   7 N    3.565 --     5 C    1.191    11 C    1.087    14 C    0.970
                            12 O    0.134
    14   6 C    3.923 --    23 H    0.972    22 H    0.971    13 N    0.970
                            24 H    0.965
    15   1 H    0.983 --     1 C    0.955
    16   1 H    0.986 --     1 C    0.965
    17   1 H    0.982 --     1 C    0.961
    18   1 H    0.984 --     3 C    0.953
    19   1 H    0.981 --    10 C    0.958
    20   1 H    0.032
    21   1 H    0.982 --    10 C    0.956
    22   1 H    0.991 --    14 C    0.971
    23   1 H    0.991 --    14 C    0.972
    24   1 H    0.983 --    14 C    0.965
    25   1 H    0.947 --     4 N    0.919
 ---------------------------------------------------------------------------

Topologies differ in total number of bonds
Writing topology from bond orders to xtbtopo.mol

molecular dipole:
                 x           y           z       tot (Debye)
 q only:        2.420      -2.027       0.026
   full:        2.648      -2.480       0.012       9.220
molecular quadrupole (traceless):
                xx          xy          yy          xz          yz          zz
 q only:       12.753      -8.265       5.899      -0.587       0.591     -18.652
  q+dip:       10.681     -12.065       5.976      -0.360       0.534     -16.658
   full:        9.494     -11.584       4.998      -0.245       0.467     -14.491

           -------------------------------------------------
          |                Geometry Summary                 |
           -------------------------------------------------

      molecular mass/u    :      195.1988581
   center of mass at/Å    :        0.0574277      -0.0413363       0.0587376
  moments of inertia/u·Å² :        0.4863179E+03   0.7266274E+03   0.1200883E+04
rotational constants/cm⁻¹ :        0.3466381E-01   0.2319983E-01   0.1403769E-01

 * 24 selected distances

     #   Z          #   Z                                           value/Å
     1   6 C        2   7 N                                       1.4383935
     2   7 N        3   6 C                                       1.3299933
     3   6 C        4   7 N                                       1.3534949
     4   7 N        5   6 C                                       1.3627879
     2   7 N        6   6 C                                       1.3785133
     5   6 C        6   6 C                                       1.3895030
     6   6 C        7   6 C                                       1.4317832
     7   6 C        8   8 O                                       1.2106238
     9   7 N       10   6 C                                       1.3417974
     9   7 N       11   6 C                                       1.4231731
    11   6 C       12   8 O                                       1.2000887
     5   6 C       13   7 N                                       1.3485376
    11   6 C       13   7 N                                       1.3927924
    13   7 N       14   6 C                                       1.4523740 (max)
     1   6 C       15   1 H                                       1.0912724
     1   6 C       16   1 H                                       1.0886941
     1   6 C       17   1 H                                       1.0892556
     3   6 C       18   1 H                                       1.0715560
    10   6 C       19   1 H                                       1.0732603
    10   6 C       21   1 H                                       1.0728390
    14   6 C       22   1 H                                       1.0900620
    14   6 C       23   1 H                                       1.0895776
    14   6 C       24   1 H                                       1.0892422
     4   7 N       25   1 H                                       1.0098661 (min)

 * 5 distinct bonds (by element types)

   Z      Z             #   av. dist./Å        max./Å        min./Å
   1 H    6 C           9     1.0839732     1.0912724     1.0715560
   6 C    6 C           2     1.4106431     1.4317832     1.3895030
   1 H    7 N           1     1.0098661     1.0098661     1.0098661
   6 C    7 N          10     1.3821857     1.4523740     1.3299933
   6 C    8 O           2     1.2053562     1.2106238     1.2000887


optimized geometry written to: xtbopt.xyz


           -------------------------------------------------
          | TOTAL ENERGY              -42.104587210572 Eh   |
          | GRADIENT NORM               0.002113207062 Eh/α |
          | HOMO-LUMO GAP               0.293054790476 eV   |
           -------------------------------------------------

------------------------------------------------------------------------
 * finished run on 2024/06/05 at 20:00:17.601     
------------------------------------------------------------------------
 total:
 * wall-time:     0 d,  0 h,  0 min,  1.176 sec
 *  cpu-time:     0 d,  0 h,  0 min,  1.150 sec
 * ratio c/w:     0.978 speedup
 SCF:
 * wall-time:     0 d,  0 h,  0 min,  0.046 sec
 *  cpu-time:     0 d,  0 h,  0 min,  0.037 sec
 * ratio c/w:     0.814 speedup
 ANC optimizer:
 * wall-time:     0 d,  0 h,  0 min,  1.104 sec
 *  cpu-time:     0 d,  0 h,  0 min,  1.101 sec
 * ratio c/w:     0.997 speedup

