72
 energy: -99.234806940417 gnorm: 0.500094742084 xtb: 6.6.1 (8d0f1dd)
N           -1.69708827296698        3.12798912951799        2.29760516168855
C           -1.78714811673266        2.28333564639680        1.38036214046753
C           -2.97459177205378        2.14403785127210        0.47166524521428
C           -3.44506274812406        0.69812292198295        0.48738686823877
C           -4.09565153238941        0.16576622084784       -0.56185622037264
C           -4.52473944948392       -1.23857395791318       -0.71633337406100
O           -3.55438444097617       -1.88224013458701       -1.60076206441593
C           -4.06664660020827       -2.15114846830894       -2.88621835367461
C           -4.41675620155899       -1.96799650165838        0.62775454687709
O           -5.04216122451699       -3.14761828121828        0.58866881577230
C           -5.08743205429646       -3.95219781115519        1.74856715299794
C           -3.73875843395195       -1.41650840785574        1.68375329204285
C           -3.22372254155907       -0.12229970906595        1.62581258419853
C           -2.49427172580742        2.52854151371826       -0.95282563699432
C           -1.64091602267843        1.47290236746655       -1.67712825398572
C           -0.31660458608119        1.25880427504292       -1.06469790477649
N            0.25697901657421        0.08835786624264       -0.84756985904386
C            1.62719616312407        0.02143784410797       -0.39397871812723
C            2.59066398692259       -0.37037970293100       -1.53126443259144
C            4.01298537627898       -0.19617284973135       -1.07641415914714
C            4.65244129692262        1.02355690151086       -1.22923774893559
C            5.95336528887603        1.20446163268409       -0.78669770977513
C            6.64162647504607        0.16701156600158       -0.17412498312493
O            7.90197894768711        0.22934915991543        0.29311594239441
C            8.62771650379385        1.42944063514764        0.15548699540328
C            5.99262553851447       -1.08822311257256       -0.00970917436631
O            6.73329165750254       -2.03992126424792        0.59203753993304
C            6.19062025688539       -3.32548993624233        0.77625626536617
C            4.69101813966820       -1.24518738080479       -0.46054668520877
C           -0.37508417364725       -1.16659885645151       -1.17726536860229
C           -4.18793325481691        3.03755477366501        0.86098845740455
C           -4.70896032937639        2.70975619743549        2.25777817241967
C           -3.89025999543936        4.53176863962279        0.76841377063022
H           -5.30380147338333       -1.33156578004845       -1.03013857890737
H           -4.90087531126548       -2.85863170302821       -2.84346275397223
H           -3.24892729989998       -2.59130641986101       -3.45178528980693
H           -4.39844892093860       -1.23147538201593       -3.37988301471311
H           -5.56695151739660       -3.42274502989012        2.57633020912066
H           -5.67712588810784       -4.82616301349671        1.48069936369095
H           -4.08393932743707       -4.26769760143727        2.04853865773606
H           -3.60853059061736       -1.97749421942181        2.59828862130858
H           -2.67100129700725        0.26868187815840        2.46689021025606
H           -3.38139742712687        2.69755840293674       -1.56277360936339
H           -1.93573438236741        3.46285492657547       -0.88950831857100
H           -2.21192269070498        0.54778544539353       -1.75903018575888
H           -1.47767963846629        1.85137779683175       -2.69447827155726
H           -0.98350213568310        1.57095646241204        1.11794641412041
H            0.27415458027188        2.13625820233025       -0.84065556551958
H            1.70287259460250       -0.70986337316534        0.41572820987225
H            1.92512538503279        0.99653655095201       -0.00281768325656
H            2.39810843752786        0.27579266220563       -2.38967032630816
H            2.41223407460943       -1.40412011055727       -1.82796678156744
H            4.14272864562477        1.84497174730589       -1.70974092364931
H            6.42666173695284        2.16207794697332       -0.92869009451351
H            8.14796871512370        2.25192332444797        0.69485610067816
H            8.75120638271338        1.70446680861129       -0.89625620097689
H            9.60404013273011        1.23190321287999        0.59380121473883
H            6.97385246856147       -3.90578522051124        1.26015589669917
H            5.30808844520004       -3.30005225047139        1.42352879257888
H            5.93187483005153       -3.79293882069323       -0.17885408508391
H            4.19412954878013       -2.19604885663660       -0.34752261384870
H           -0.33384083241170       -1.35315626631317       -2.25319701913519
H           -1.42288958789496       -1.18155916743354       -0.87383354329060
H            0.14342559215207       -1.97279244112954       -0.66372514211402
H           -4.97731367079125        2.79315781282679        0.13934625394158
H           -3.95676261487457        2.94906161578793        3.00353300697888
H           -4.97648867299944        1.65904858970953        2.34423511109458
H           -5.59631190970565        3.30264339822943        2.46264567068892
H           -3.07068778256912        4.79020640395383        1.43162258352475
H           -3.64368224747428        4.83591583513262       -0.24465082973411
H           -4.77021400622935        5.08979896643042        1.07727469420081
H           -0.83626191868616        3.15291842069163        2.83546235917722
72
 energy: -99.295430709010 gnorm: 0.053266747787 xtb: 6.6.1 (8d0f1dd)
N           -1.69644610582884        3.12846542276200        2.29808925338533
C           -1.78631881179578        2.28443261009911        1.38065628824961
C           -2.97327507645869        2.14670099135982        0.47277169951446
C           -3.44026140741119        0.70223714807374        0.49250331559313
C           -4.07860773794041        0.16938169170946       -0.55952647516877
C           -4.47061000358762       -1.23645043724972       -0.69880444323621
O           -3.53427328821099       -1.88509556496999       -1.60396466018939
C           -4.06437631898592       -2.15075018204779       -2.88387984668961
C           -4.40440496402969       -1.96981841832464        0.63386021371631
O           -5.03819930583116       -3.14559988941121        0.58955800196303
C           -5.08716367743967       -3.95225976293084        1.74861253848671
C           -3.73471935796467       -1.41611010923511        1.69017604531615
C           -3.22134966737396       -0.12114086504308        1.62936903714586
C           -2.49407865901000        2.52879711950073       -0.95265295067316
C           -1.64107607151626        1.47293008404351       -1.67707849475489
C           -0.31665922536040        1.25865298482180       -1.06477865347487
N            0.25699254987023        0.08848254317298       -0.84778088320466
C            1.62714078681987        0.02143049144698       -0.39396294439624
C            2.59074990718152       -0.37027125985028       -1.53127695957848
C            4.01307528059588       -0.19609748388616       -1.07640564825332
C            4.65253360848826        1.02361485137637       -1.22923803774742
C            5.95343403695567        1.20453560518477       -0.78665569572422
C            6.64153776287379        0.16701751767430       -0.17414238880001
O            7.90197477488107        0.22925766221160        0.29312039599676
C            8.62771772778943        1.42935250151479        0.15548534634338
C            5.99258279718532       -1.08823352849145       -0.00970460509035
O            6.73335213079878       -2.03990752797113        0.59200100537078
C            6.19057574265475       -3.32546178257180        0.77617112915587
C            4.69100626597839       -1.24520516108656       -0.46047806766837
C           -0.37503896595928       -1.16651408366537       -1.17724704636175
C           -4.18799383602561        3.03812342551009        0.86122524495292
C           -4.70897980880563        2.70986693756047        2.25795564169074
C           -3.89030729492912        4.53215931317470        0.76849187886686
H           -5.43180428093866       -1.34903714529641       -1.08438925783787
H           -4.89922307387720       -2.85774549481946       -2.84028931104747
H           -3.24960562953154       -2.59259246455166       -3.45354697552099
H           -4.39703735946472       -1.23143180669992       -3.37838458294327
H           -5.56688938775775       -3.42271050905896        2.57606471104798
H           -5.67771018824190       -4.82562491396676        1.48001325771490
H           -4.08431746574046       -4.26830489965046        2.04896642473466
H           -3.60769035654901       -1.97731889867217        2.60267312926031
H           -2.67033650473528        0.26997193636487        2.46942015165289
H           -3.38142178891732        2.69741817265418       -1.56252488248718
H           -1.93566182494465        3.46317469221125       -0.88997775135090
H           -2.21215628298331        0.54790374156494       -1.75879797181875
H           -1.47769881883832        1.85133922513352       -2.69434580099455
H           -0.98322196228439        1.57147298897608        1.11869453580869
H            0.27410405656164        2.13593079478330       -0.84062746135794
H            1.70276248070534       -0.70999247445125        0.41558666054696
H            1.92515425105634        0.99645746268978       -0.00270221503286
H            2.39815462901150        0.27596898601891       -2.38960508483785
H            2.41229751486364       -1.40395815653983       -1.82810869221990
H            4.14264773098043        1.84491036658320       -1.70974024345949
H            6.42671523592273        2.16212629285532       -0.92859301318228
H            8.14800408718897        2.25183193998579        0.69485711143007
H            8.75120119898733        1.70436344772862       -0.89625557855529
H            9.60403461453170        1.23182720260208        0.59376387808994
H            6.97375533810427       -3.90585890601875        1.26004045605143
H            5.30804868187634       -3.30001375740151        1.42346964767678
H            5.93179422252600       -3.79285091598575       -0.17895609668404
H            4.19394454700937       -2.19595780370896       -0.34754908273678
H           -0.33357594890027       -1.35308890870640       -2.25278258788069
H           -1.42239116055099       -1.18140366468348       -0.87417719651991
H            0.14336180115621       -1.97279522794591       -0.66397596401474
H           -4.97714411225092        2.79325184613200        0.13941619682582
H           -3.95680455302462        2.94924883144833        3.00364443848728
H           -4.97625760621037        1.65903081099051        2.34425536783345
H           -5.59649553332695        3.30253768887344        2.46273954844723
H           -3.07056725525805        4.79039187197030        1.43159245244254
H           -3.64387036188482        4.83606779025212       -0.24471566928383
H           -4.77027020655993        5.09002240983590        1.07756520499701
H           -0.83584691829210        3.15305412654154        2.83607785458684
72
 energy: -99.296870080425 gnorm: 0.029203301047 xtb: 6.6.1 (8d0f1dd)
N           -1.69526443495609        3.13192229838480        2.29947329471815
C           -1.78459728104887        2.28808082952554        1.38162168176754
C           -2.97220361014288        2.14679699813769        0.47433030105288
C           -3.43827598593922        0.70061664803998        0.49115531625211
C           -4.07704561003730        0.16389664386726       -0.56376665250108
C           -4.47235149824956       -1.24112469552801       -0.70219741203091
O           -3.54211742407681       -1.89093351806192       -1.60437671012867
C           -4.06178525568970       -2.15550747293011       -2.88621493262199
C           -4.40286424364838       -1.97145860290563        0.63037382995165
O           -5.03613663120113       -3.14685761471282        0.58862815711620
C           -5.08548024301874       -3.95175527917621        1.74938915016211
C           -3.73441449609246       -1.41528105613027        1.69043088244664
C           -3.22088371388057       -0.12037140660742        1.63028260686818
C           -2.49386999805267        2.52942278955399       -0.95144829790147
C           -1.64110833937239        1.47375925426269       -1.67653438616362
C           -0.31644465651495        1.25885770814975       -1.06478939423091
N            0.25756754007357        0.08887509142659       -0.84832728552481
C            1.62746202682973        0.02161434045088       -0.39399289810699
C            2.59115430170099       -0.36910883308883       -1.53160125877520
C            4.01334541844931       -0.19536385241113       -1.07638843369508
C            4.65296772146679        1.02424754682173       -1.22896996685925
C            5.95384444826941        1.20488506665594       -0.78622295538989
C            6.64156258607363        0.16695538845688       -0.17402458547552
O            7.90209416187998        0.22863507848632        0.29312848320452
C            8.62810011668789        1.42853516423401        0.15541157027209
C            5.99239930429566       -1.08820388387846       -0.00978772923007
O            6.73313668171119       -2.04013679319793        0.59154145760526
C            6.18992479146553       -3.32556402224421        0.77526301767561
C            4.69079200638455       -1.24480566149005       -0.46049158041571
C           -0.37379056536347       -1.16623573994712       -1.17822505816276
C           -4.18654976362222        3.03916375556618        0.86254274874919
C           -4.70820448193923        2.71069487279007        2.25903055853963
C           -3.89035011251227        4.53366912218845        0.76961035751635
H           -5.45607769695248       -1.35345416836438       -1.09490575140715
H           -4.89915064814253       -2.85839017168296       -2.83941096900003
H           -3.24669857396055       -2.60197240468547       -3.45320432756953
H           -4.38980609454013       -1.23459081920773       -3.38024736546111
H           -5.56625026171872       -3.42126020350960        2.57556504224469
H           -5.67765287787825       -4.82401411455049        1.48054229571509
H           -4.08370522982263       -4.26943386844084        2.05114247144468
H           -3.61249973763922       -1.97285895346690        2.60684739182993
H           -2.67262945767978        0.27266941226839        2.47212733027911
H           -3.38188370898194        2.69701474982977       -1.56059657814389
H           -1.93597416139869        3.46431216735679       -0.89024469169680
H           -2.21284734720802        0.54904713106498       -1.75854152879120
H           -1.47799656228641        1.85245152055191       -2.69366828931293
H           -0.98142602434645        1.57459406453153        1.12179378754024
H            0.27424630374892        2.13587796357608       -0.83994237343790
H            1.70268058985896       -0.71072568380467        0.41473895953205
H            1.92541572929565        0.99622183676182       -0.00167216804613
H            2.39866926423391        0.27791321072442       -2.38935398558282
H            2.41275022232044       -1.40251129935705       -1.82940912769056
H            4.14302234637423        1.84547840172272       -1.70950028972760
H            6.42730737394516        2.16242941738493       -0.92780387909442
H            8.14862660708140        2.25108205053832        0.69487015394455
H            8.75143228312575        1.70347125253915       -0.89636120145414
H            9.60443137662287        1.23078519902102        0.59351017053625
H            6.97290598169883       -3.90653286610682        1.25875991028119
H            5.30749906404146       -3.29997623340757        1.42269660919846
H            5.93080483252688       -3.79235625235032       -0.18006006928415
H            4.19316985952162       -2.19528096022488       -0.34771984220854
H           -0.33147184982521       -1.35269842400970       -2.25351428544304
H           -1.42102920985815       -1.18108918941075       -0.87617250070444
H            0.14430500017196       -1.97267883957923       -0.66497787192669
H           -4.97534569493550        2.79368788626461        0.14060690141747
H           -3.95675097022897        2.95086945107300        3.00517446839571
H           -4.97444504335527        1.65955113015900        2.34504675129361
H           -5.59661738419469        3.30226807828710        2.46326652408022
H           -3.06981376139994        4.79231363109147        1.43158010661895
H           -3.64538329071387        4.83761127354322       -0.24397509244318
H           -4.77009891632850        5.09133980945115        1.07983241710552
H           -0.83580949407505        3.15505417222984        2.83959186288873
72
 energy: -99.297551113451 gnorm: 0.005618625941 xtb: 6.6.1 (8d0f1dd)
N           -1.69674159797659        3.13273726870367        2.30166949605128
C           -1.78549284012369        2.28748396674822        1.38491503184893
C           -2.97147818251514        2.14682942780519        0.47474428404412
C           -3.43812901297131        0.69998519778762        0.49020731583128
C           -4.07239998081246        0.16001830562855       -0.56830039607374
C           -4.46952214738576       -1.24554767413814       -0.70539257145895
O           -3.54789210392532       -1.90060094568102       -1.60198131557119
C           -4.05933030288104       -2.16236964301696       -2.88654741737191
C           -4.40332967022706       -1.97187432302713        0.62835299935312
O           -5.03296642783086       -3.14861959045082        0.58934074474847
C           -5.08358543814668       -3.95196361004518        1.75155753741671
C           -3.73842905419337       -1.41309127765395        1.69134753926120
C           -3.22483051908425       -0.11837179988261        1.63149832716812
C           -2.49303852606520        2.53092121415990       -0.95083103648515
C           -1.64024110705194        1.47586114582293       -1.67668165798320
C           -0.31599244674320        1.25969010915966       -1.06454890920265
N            0.25808548442004        0.08962074672637       -0.84893901990205
C            1.62775330668457        0.02180606266903       -0.39413952247700
C            2.59181363119507       -0.36676278727438       -1.53220743987335
C            4.01387155888760       -0.19381695959015       -1.07646993860711
C            4.65392188925654        1.02559229669742       -1.22846980415382
C            5.95477146491714        1.20556007315064       -0.78538485660461
C            6.64179050359194        0.16687035763064       -0.17375620986997
O            7.90246766959202        0.22751708124563        0.29324986825512
C            8.62908920966750        1.42700368547880        0.15540740389487
C            5.99212365650111       -1.08807834415704       -0.00999084603189
O            6.73263042657303       -2.04059093396846        0.59070582133208
C            6.18860434274499       -3.32580136877529        0.77350997726048
C            4.69047434089115       -1.24389952363964       -0.46070097035014
C           -0.37259612744648       -1.16541612393791       -1.18036750328673
C           -4.18583586263846        3.03933476712777        0.86368671120443
C           -4.70707438350849        2.71130491217288        2.26055574000709
C           -3.88946321981989        4.53400907198188        0.77092881175401
H           -5.48049162445648       -1.35572409610705       -1.10640482903553
H           -4.90278242033060       -2.85818419058557       -2.84240869008222
H           -3.24538543256016       -2.61751741323681       -3.44858277722374
H           -4.37602228090598       -1.23996134362937       -3.38519347997113
H           -5.56547527408941       -3.41971731682216        2.57583608924128
H           -5.67668749649665       -4.82368773436186        1.48243242753173
H           -4.08275299619323       -4.26997717131688        2.05510554130815
H           -3.61864966463729       -1.96869179239426        2.60953264718899
H           -2.68000163132129        0.27665996939088        2.47506519449240
H           -3.38164343302071        2.69763967442904       -1.55936360366909
H           -1.93591647583327        3.46634147963265       -0.89014495801223
H           -2.21312989048997        0.55175714982217       -1.75939841765125
H           -1.47685983335981        1.85530857806638       -2.69342106846707
H           -0.97935136699816        1.57765593632381        1.12439801234444
H            0.27473267533421        2.13623716309174       -0.83822382599708
H            1.70262337385429       -0.71206019217543        0.41320458992977
H            1.92565419674657        0.99564978296756        0.00006995631426
H            2.39945177085360        0.28182987901876       -2.38879532619143
H            2.41350006838556       -1.39961593317960       -1.83194929841556
H            4.14404767309687        1.84694694383021       -1.70885476913095
H            6.42863041633685        2.16298918227470       -0.92631044299190
H            8.15018748799823        2.24975322170880        0.69504880777512
H            8.75217516267834        1.70187959519845       -0.89641151446637
H            9.60545225215234        1.22873706847713        0.59316320571515
H            6.97124756694424       -3.90782069449254        1.25627491059832
H            5.30637139556879       -3.30007020783437        1.42120317807774
H            5.92885822170761       -3.79151037878286       -0.18217279596150
H            4.19193571274545       -2.19393381228174       -0.34830615317309
H           -0.32815526517266       -1.35152038905027       -2.25559558259084
H           -1.42011874564024       -1.18027513848054       -0.87988720302082
H            0.14484041171864       -1.97207996760831       -0.66676364773422
H           -4.97490593673788        2.79416825838574        0.14196701739800
H           -3.95625383930228        2.95331154327401        3.00680906204359
H           -4.97155831127188        1.65975545660941        2.34701005903739
H           -5.59658270160307        3.30146272623070        2.46422954472450
H           -3.06748654098912        4.79311910940685        1.43099962820144
H           -3.64746805683259        4.83888383492187       -0.24314277426035
H           -4.76867768957342        5.09109444360233        1.08379235840534
H           -0.83586441485448        3.15996551271897        2.83948557619528
72
 energy: -99.297600832851 gnorm: 0.001721727040 xtb: 6.6.1 (8d0f1dd)
N           -1.69675683746808        3.13397642539272        2.30025478534861
C           -1.78475110374322        2.28894583499293        1.38317056703701
C           -2.97167041837206        2.14666221619917        0.47438946300462
C           -3.43816931482467        0.69966143291083        0.48932958723550
C           -4.06835595307391        0.15855339195471       -0.57057815951606
C           -4.46634298318705       -1.24737161202432       -0.70624800475103
O           -3.54846533437520       -1.90719800439099       -1.60048302445048
C           -4.05811445047790       -2.16660408047388       -2.88645270224866
C           -4.40444089191304       -1.97181022624943        0.62892082199192
O           -5.03167844567325       -3.14978098114256        0.59016904051551
C           -5.08317404678635       -3.95214483920196        1.75306222954369
C           -3.74225211511993       -1.41178127976362        1.69248829343859
C           -3.22862933266181       -0.11711961103792        1.63227265407982
C           -2.49296269716864        2.53168465323047       -0.95060776588128
C           -1.63958731614524        1.47735593514463       -1.67682094333492
C           -0.31570778127197        1.26054022355436       -1.06416679884717
N            0.25825834210514        0.09019427271516       -0.84923097119687
C            1.62785773269257        0.02199156963260       -0.39428096473324
C            2.59214711183063       -0.36495824346295       -1.53271990298982
C            4.01413379384001       -0.19255543628814       -1.07655986988123
C            4.65461229973775        1.02668226261701       -1.22805328091158
C            5.95550122620421        1.20601565580521       -0.78480767068736
C            6.64207716261370        0.16680534645450       -0.17358446649780
O            7.90283296696404        0.22674138300601        0.29336366408924
C            8.63002087286373        1.42588013711128        0.15550180563047
C            5.99193661433353       -1.08795052664864       -0.01024612081254
O            6.73211765857758       -2.04097425070560        0.59006462268019
C            6.18755509344132       -3.32605516229675        0.77219443774853
C            4.69025025754061       -1.24311868932975       -0.46104243637391
C           -0.37220498448185       -1.16461546870004       -1.18209572002298
C           -4.18585858346388        3.03922412680850        0.86412049518390
C           -4.70659784646955        2.71137573202806        2.26120909861616
C           -3.88948763937762        4.53392405214899        0.77128701613911
H           -5.48418431156626       -1.35494179908986       -1.10850013818385
H           -4.90700907987463       -2.85628648452510       -2.84504013863676
H           -3.24555371540572       -2.62833936258437       -3.44518509494114
H           -4.36660316454202       -1.24259183529502       -3.38750521217358
H           -5.56559873116481       -3.41919370480997        2.57656892814476
H           -5.67584680923247       -4.82417738444136        1.48415338180860
H           -4.08247951289443       -4.26970289625808        2.05751869830462
H           -3.62388194229403       -1.96671566098883        2.61108761359482
H           -2.68598043776368        0.27892875504252        2.47670270997425
H           -3.38160582896237        2.69842537653357       -1.55905243011857
H           -1.93627125582014        3.46726325648118       -0.88898315831543
H           -2.21275963887059        0.55343485545727       -1.76036131611722
H           -1.47573482242411        1.85751935692380       -2.69322114449765
H           -0.97991767408565        1.57638381152508        1.12603668637176
H            0.27503615973041        2.13684425586384       -0.83684765039354
H            1.70270011939087       -0.71290451813854        0.41212810818794
H            1.92558206577862        0.99535542154036        0.00125369204109
H            2.39987237413426        0.28479010318022       -2.38845536768895
H            2.41395254754836       -1.39742460630813       -1.83389206840858
H            4.14502244060500        1.84833606740442       -1.70822781781945
H            6.42970940300459        2.16332877466555       -0.92531303560208
H            8.15163854272070        2.24881567765452        0.69532232586805
H            8.75299642016595        1.70079074961084       -0.89632502090925
H            9.60638730985810        1.22710881932193        0.59301895159245
H            6.97000967643273       -3.90874684850534        1.25444911268584
H            5.30545345108620       -3.30030506850660        1.42006532101961
H            5.92740760228917       -3.79104853683959       -0.18373018362806
H            4.19123813585379       -2.19294149872550       -0.34900262582427
H           -0.32643433436256       -1.35022659776493       -2.25740158629203
H           -1.42006357112130       -1.17954370415698       -0.88266867947466
H            0.14457332042466       -1.97156076737087       -0.66822533725938
H           -4.97539441291266        2.79429280094082        0.14288822508348
H           -3.95599916199352        2.95474579445552        3.00721209495428
H           -4.97004046183584        1.65963839096222        2.34848839003569
H           -5.59668304389137        3.30077590546576        2.46453082710233
H           -3.06630421112191        4.79254259592170        1.43003464324548
H           -3.64917637269370        4.83919763270493       -0.24306007716077
H           -4.76800876627292        5.09106639150761        1.08606664345163
H           -0.83762576757975        3.15902976365564        2.84091679343699
