72
 energy: -103.312258724474 gnorm: 0.084731907044 xtb: 6.6.1 (8d0f1dd)
N           -1.55732548896904        2.81996028078984        2.29976599105834
C           -1.60769833331154        2.15817954817864        1.24996076117922
C           -2.78145390575477        2.07206211109651        0.31982622310008
C           -3.33366127873134        0.64950236335493        0.37112597809415
C           -4.29882798921147        0.24607324481285       -0.54967926061240
C           -4.84533250760171       -1.01632579522549       -0.51446938492994
O           -5.81030591058752       -1.48324551854617       -1.37430873511170
C           -6.34382998301070       -0.59564686879235       -2.31018654515311
C           -4.42225125354433       -1.93316563356451        0.46331313158378
O           -5.03153663268076       -3.16241907245429        0.41654443071967
C           -4.72728597938548       -4.08724881711140        1.42446385073227
C           -3.46142048065084       -1.53630861215218        1.36789400977512
C           -2.92177458719894       -0.25736773979330        1.31569603548861
C           -2.19093607613891        2.30218248662697       -1.12621303902409
C           -1.24756598044116        1.20077784648047       -1.66898290070767
C            0.04105659300900        1.16677084761615       -0.89187166832808
N            0.67780298034056       -0.04974966689121       -0.56352784092070
C            2.03507157018706       -0.04044389605017       -0.17135684372880
C            2.96380848199275       -0.54224749146102       -1.29756800777510
C            4.38323460313376       -0.43885857811208       -0.86250619468511
C            5.11225162365397        0.72264028460813       -1.06978146641794
C            6.43179829679733        0.83032150423646       -0.61836194700176
C            7.03844476767216       -0.22371862126171        0.04690030681334
O            8.30821492727299       -0.22407231710395        0.52465999066336
C            9.11131172751692        0.91009907582783        0.30660119651189
C            6.30153020230174       -1.40454282875905        0.26791530524957
O            6.97222687170987       -2.39139185564488        0.92907719348983
C            6.32895243430947       -3.61604714114276        1.14919207470990
C            4.98896903040163       -1.49803482184936       -0.18164011000311
C           -0.01428567753339       -1.30790439316590       -0.62028943388985
C           -4.00649316124397        3.05502921554124        0.54075320958962
C           -4.59224434476256        2.77333041933544        1.90780583372761
C           -3.50451338090236        4.52289055876420        0.51182507777978
H           -4.61014792060913        0.94232085977025       -1.30796280403162
H           -6.79301343772638        0.28168476183411       -1.82461680548008
H           -7.12436890280299       -1.15705370924110       -2.82891079063045
H           -5.60108099869791       -0.26843908287671       -3.03573163790767
H           -4.95486405842033       -3.69265220716829        2.42467308461106
H           -5.36002026173419       -4.96270785588280        1.22925155858074
H           -3.67563729613613       -4.38853263476137        1.39309864597794
H           -3.13321666124993       -2.21277871316347        2.13868914023077
H           -2.19376601443961        0.02296336427584        2.05049535872043
H           -3.01845211798225        2.42463417277968       -1.81896344907461
H           -1.63233728214884        3.24569318108484       -1.13068147610214
H           -1.77420478042089        0.24963805492837       -1.62391882018176
H           -1.03031110492144        1.40257644252900       -2.72316133479022
H           -0.75402792955524        1.63128983022314        0.83425502744291
H            0.71115885878086        1.99168102871948       -1.00357512667525
H            2.16786049778332       -0.67288866230773        0.72289885336717
H            2.30936259298548        0.97751937428092        0.08631028468711
H            2.80413835922000        0.07163207392452       -2.19126648964649
H            2.71116728041558       -1.57642352062855       -1.54011717710441
H            4.66934600724037        1.55292155963609       -1.59058267874025
H            6.97769799312720        1.74813092903045       -0.79444582376841
H            8.68904318304927        1.79120624091605        0.79009825183447
H            9.24406010136890        1.11491795132174       -0.76784435425626
H           10.07667626651729        0.68846991112799        0.74892237943160
H            7.05578849657591       -4.24679424714406        1.65397661822634
H            5.43994606096662       -3.49780128439080        1.78699964919607
H            6.02336312602175       -4.09368308398567        0.20641699589606
H            4.42402546127799       -2.39973893835692       -0.02183236685598
H           -0.21116161324217       -1.60851090309258       -1.65843497400976
H           -0.92688020821580       -1.26620041150414       -0.07708274205687
H            0.60484929803337       -2.07606403521597       -0.13909557612263
H           -4.76701315414650        2.91960987692377       -0.24480512394923
H           -3.82907657304084        2.89630408905585        2.68507696540161
H           -4.95881074067222        1.74470119748027        1.92564497900349
H           -5.43615672029017        3.45008839004568        2.11467516479864
H           -2.69884294042432        4.68658184321108        1.22394138340213
H           -3.14534970178072        4.79387315535707       -0.48068813025709
H           -4.33885703409352        5.18185247564558        0.76156590972948
H           -0.69194636835518        2.79325177001565        2.82668810836836
72
 energy: -103.315976300297 gnorm: 0.031831736816 xtb: 6.6.1 (8d0f1dd)
N           -1.58399800598141        2.83831090666504        2.30019123558839
C           -1.62007262132033        2.17073624714596        1.23711897241178
C           -2.78005914672330        2.06287584030285        0.28863848276956
C           -3.33327172060618        0.64611067827001        0.36154664591024
C           -4.30087147068247        0.24296188868072       -0.55880800576437
C           -4.84943952716700       -1.02100618545514       -0.51915119942212
O           -5.81143191361873       -1.48550680300986       -1.37448540193206
C           -6.34706965830631       -0.59545232567389       -2.31243288468877
C           -4.42588679170935       -1.93784009624881        0.46397840965982
O           -5.03160077023124       -3.16338477234647        0.42008511874979
C           -4.72496709330349       -4.08852601102692        1.42751774462227
C           -3.46478726680311       -1.54067688678985        1.37189656479230
C           -2.92618753404551       -0.25954415542181        1.31996823048401
C           -2.18807826903477        2.31135577128171       -1.13621172483531
C           -1.25079841288317        1.20022956145362       -1.65401652395792
C            0.03643103967630        1.15186250696788       -0.89413593236348
N            0.66834153794636       -0.04766524513634       -0.56282507276492
C            2.03669741864378       -0.03910365716435       -0.17482739250975
C            2.97111131344402       -0.54165886941186       -1.29881490753395
C            4.39624416632207       -0.44010481483007       -0.86504930491796
C            5.12051431088742        0.72059432057394       -1.06872035317980
C            6.43080638900445        0.82967789536025       -0.61794679901756
C            7.03755598663001       -0.22203138440877        0.04760484083004
O            8.31209737834475       -0.22446523044903        0.52373251279231
C            9.10978160600177        0.91189216016442        0.30551295878896
C            6.30279653896319       -1.40648300000424        0.26796199079937
O            6.97374211282331       -2.39297907929125        0.92924311936889
C            6.32545987486856       -3.61615938000496        1.14861525978703
C            4.99754801005835       -1.49793740050903       -0.18320581104677
C           -0.01748987482036       -1.30811705874489       -0.62069604121173
C           -3.95669938096730        3.06318690114592        0.56459569695871
C           -4.59459461845122        2.76805949306349        1.91319668784685
C           -3.50408999624444        4.52822446284063        0.50685147666490
H           -4.61951570426895        0.94049241425835       -1.31416695654163
H           -6.79477790094648        0.28140057893921       -1.82872326250541
H           -7.12659250330117       -1.15357189555888       -2.83168209105216
H           -5.59882488899168       -0.26578004113955       -3.03866508868270
H           -4.95574163331467       -3.69479270707868        2.42461900389487
H           -5.35498099627100       -4.95822440091122        1.23165148715667
H           -3.67300452741332       -4.39151278729409        1.39418104616992
H           -3.12910884936664       -2.21770168790625        2.14063814997066
H           -2.19278827018701        0.02180069952555        2.05682142158216
H           -3.01885285301777        2.42749902119382       -1.83061625098884
H           -1.63107976299333        3.25144593091699       -1.12425535797107
H           -1.77034659749010        0.24462035944623       -1.61183984580169
H           -1.04667889184146        1.41620054603746       -2.71227929644998
H           -0.75774357227609        1.61805549191686        0.83175405608912
H            0.70888025815390        1.98386169365175       -1.00924212924539
H            2.17826471593624       -0.67182391610453        0.71402448839414
H            2.32201546776768        0.97921804695739        0.08907046335384
H            2.79966818478173        0.07228254263688       -2.18652787809868
H            2.71241201449745       -1.57418263334829       -1.54027323074921
H            4.67293153803806        1.55250554347902       -1.58934264121209
H            6.97264439759795        1.74576448991878       -0.79703335033950
H            8.68820802369382        1.79679607109859        0.79071414592366
H            9.24219301155054        1.11373973868644       -0.76532684110598
H           10.07684799170589        0.68526032261833        0.74844883856664
H            7.05273920463340       -4.24769002778347        1.65450409587872
H            5.44092113443153       -3.49866322764195        1.78769437652317
H            6.02491874266690       -4.09311795382794        0.20714634217960
H            4.42832989691456       -2.39918188448286       -0.02140987239478
H           -0.21184419843480       -1.61485185845577       -1.65532211808605
H           -0.95468235973005       -1.26274489654260       -0.07842088140347
H            0.60658804487571       -2.07092649235019       -0.14835631277928
H           -4.71030956524009        2.91611934063113       -0.22020944154777
H           -3.84432835733771        2.89588657770781        2.68918706495671
H           -4.96668378103383        1.74488510121845        1.94388680850459
H           -5.42863804535105        3.44499159105085        2.11069794804286
H           -2.70605624605960        4.68337654179709        1.22509975053281
H           -3.14812862179927        4.79802285081979       -0.48476468044387
H           -4.33798860785117        5.18120764452907        0.76013098653321
H           -0.71172858254719        2.80625035598663        2.82379635870937
72
 energy: -103.317172779583 gnorm: 0.014112375124 xtb: 6.6.1 (8d0f1dd)
N           -1.56621489950897        2.82772797235191        2.31408190494941
C           -1.61719451293804        2.16459657857706        1.24516746302824
C           -2.78517053507398        2.07045078683438        0.29506844837354
C           -3.33448138556251        0.65437611450930        0.36850640944128
C           -4.29926223874249        0.25003957763994       -0.55400810043938
C           -4.84738364759843       -1.01584890640026       -0.51765816984334
O           -5.80591178290917       -1.48207936822519       -1.37086364825094
C           -6.34705229133091       -0.59436646352957       -2.30980298573750
C           -4.42302192824674       -1.93480295885583        0.46409696181888
O           -5.02957951504060       -3.15761408099111        0.41920166256063
C           -4.72733105760875       -4.08681735435737        1.42517570721273
C           -3.46120053309353       -1.53752798252558        1.37218921124805
C           -2.92340648498015       -0.25553264455867        1.32324254593814
C           -2.18815187512065        2.30429756646818       -1.12587621893856
C           -1.24654746312890        1.20182103774579       -1.65686643020503
C            0.03725959518570        1.14917560614386       -0.89771465404274
N            0.66613154708051       -0.04358508491394       -0.56232660141453
C            2.03561518434610       -0.03755509826954       -0.17121074339093
C            2.96801626296830       -0.54108075753010       -1.29855863768463
C            4.39332687750216       -0.43761615892426       -0.86143063479202
C            5.11755025556655        0.72216308873570       -1.06625746346623
C            6.42692847972893        0.83049436497705       -0.61874174649218
C            7.03334948398713       -0.22117752920878        0.04599580472624
O            8.31079432919967       -0.22583171696416        0.52153168548236
C            9.10841227122297        0.91012486196974        0.30361974310260
C            6.29776923849602       -1.40614976768490        0.26828683140185
O            6.97184790221108       -2.39178604254509        0.92766170450134
C            6.32459241566312       -3.61599288396092        1.14784880173108
C            4.99341674243623       -1.49578526293550       -0.18033715447056
C           -0.00849587402057       -1.30881239290918       -0.62096698367495
C           -3.97330427529734        3.06174295604018        0.54713921161338
C           -4.59792838227280        2.76941846557458        1.90450194925727
C           -3.50900140610548        4.51771901927069        0.50479141998102
H           -4.61490508800089        0.94745775552229       -1.30995797178583
H           -6.79356027429359        0.28183131226307       -1.82567017580342
H           -7.12427610998379       -1.15577995493062       -2.82690752318261
H           -5.59818078260867       -0.26499924892061       -3.03776313903707
H           -4.95667129702913       -3.69292493453506        2.42162137763182
H           -5.35758223021523       -4.95418433034733        1.22731877268894
H           -3.67536216677159       -4.39015759596460        1.39200028193851
H           -3.12730851850293       -2.21340446631059        2.14224107165914
H           -2.18735336346829        0.02554142381248        2.05895229867968
H           -3.02063818240470        2.41862973911572       -1.81967689522561
H           -1.63346637236176        3.24301735345499       -1.12101848584092
H           -1.76703558442302        0.24647864907284       -1.62235293522277
H           -1.03799160670011        1.41507701952650       -2.71845139307764
H           -0.74999889899277        1.62185993758141        0.82314716819102
H            0.70791732425474        1.98941171883189       -1.00255032246807
H            2.17027508403861       -0.66837173964683        0.71906267734506
H            2.31812035732768        0.98269800560856        0.09231773869938
H            2.79927666586691        0.07052678810692       -2.18731464663343
H            2.71004260139753       -1.57432957534913       -1.53847011460337
H            4.66794726088920        1.55328947927967       -1.58948908491806
H            6.97008723240436        1.74560159849089       -0.79646207962423
H            8.68713052230672        1.79531637264478        0.79036025534052
H            9.24271395397568        1.11307058663773       -0.76528111424579
H           10.07564920028403        0.68410019684666        0.74928910529391
H            7.05486153228256       -4.24607484212947        1.65334074144327
H            5.44212682438920       -3.49913534300325        1.78773910493723
H            6.02498113832940       -4.09298498956035        0.20741601484545
H            4.42266977500194       -2.39785502118275       -0.02051936328166
H           -0.20939929420219       -1.61317072588038       -1.65475476840713
H           -0.94945190298192       -1.26418211019106       -0.07365863986969
H            0.61314328557399       -2.07031526843032       -0.14781670062485
H           -4.74608326634193        2.91681554067418       -0.22936633880248
H           -3.83796114382021        2.89541470822858        2.67028955176771
H           -4.96443043146872        1.74607242332732        1.93030738965474
H           -5.42816437201879        3.44456313600721        2.10969227969434
H           -2.70883793845986        4.67224791082487        1.22266267309592
H           -3.15065385364647        4.79078285306742       -0.48340018245643
H           -4.33650565190316        5.17582036218637        0.76080247631253
H           -0.68062400384162        2.78241309630674        2.81937150160943
72
 energy: -103.317227297775 gnorm: 0.012292722135 xtb: 6.6.1 (8d0f1dd)
N           -1.58046193246992        2.84271080523777        2.31010759674996
C           -1.62178111943874        2.16866942913372        1.25013092986372
C           -2.78821752219862        2.07081168117912        0.29770972160255
C           -3.33499665812031        0.65117553575167        0.36497405617135
C           -4.30007338205314        0.24436362878479       -0.55603619844153
C           -4.85067709514010       -1.02094629055543       -0.52019153075434
O           -5.80918051236701       -1.48596723686489       -1.37308305058805
C           -6.34904158949278       -0.59693749750981       -2.31226859979890
C           -4.42683109365560       -1.94006978593437        0.46130346358831
O           -5.03243192095102       -3.16328467417477        0.41909496564129
C           -4.72772933787577       -4.09085212496587        1.42719210442122
C           -3.46408548264942       -1.54127552042326        1.36695102691354
C           -2.92392927167797       -0.26094668628011        1.31606356754671
C           -2.18909544618433        2.30663051742570       -1.12518224445788
C           -1.24691868617023        1.20219681566971       -1.65629025782849
C            0.03876037587438        1.15030569271145       -0.89715376856667
N            0.66672022901107       -0.04395563733954       -0.56241643420874
C            2.03688792805230       -0.04243683010189       -0.17304232619490
C            2.96879576609598       -0.54300246357457       -1.30192000335034
C            4.39396688548429       -0.43892626976594       -0.86340026284798
C            5.12012717167609        0.72083561477569       -1.06837532626305
C            6.43087541791887        0.82953946763150       -0.61970486906254
C            7.03637323772121       -0.22190548743947        0.04636674224928
O            8.31367852701639       -0.22527202373311        0.52432369707701
C            9.11070515572563        0.91076823982032        0.30457866830287
C            6.30036681666331       -1.40730542776646        0.26770333446359
O            6.97405114332297       -2.39207879332083        0.92878781084604
C            6.32550101999422       -3.61627109699853        1.14879039226492
C            4.99568464728252       -1.49757628080750       -0.18284370728165
C           -0.00786650665860       -1.30899710361341       -0.62287223336123
C           -3.97870392446645        3.06377656378937        0.54746100302615
C           -4.59285876624177        2.77369438289986        1.91327875261687
C           -3.50471906173272        4.52069412016525        0.51091751407858
H           -4.61388957273314        0.94007373634899       -1.31336105835463
H           -6.79317000309866        0.27986680752279       -1.82729651333330
H           -7.12596122068027       -1.15688920698506       -2.83116379098135
H           -5.59894761425446       -0.26921923130488       -3.03889544177659
H           -4.95447044722012       -3.69458099455549        2.42373037187789
H           -5.35572612093729       -4.96171716572792        1.23261590973784
H           -3.67454449925516       -4.39008879058758        1.39385179275098
H           -3.13288110579504       -2.21559930614516        2.13890825509664
H           -2.19171739338874        0.02101209503222        2.05321206778272
H           -3.01750273290522        2.42462818244391       -1.82379739280395
H           -1.63253434319980        3.24500175514547       -1.12816775090073
H           -1.77372865106309        0.24994178250726       -1.61774235025492
H           -1.03726389925305        1.40523723601972       -2.72047210191684
H           -0.74909589251651        1.63010263565458        0.83626759544677
H            0.71019093491273        1.99001686365294       -1.00515231982640
H            2.16989073298002       -0.67408893146590        0.71693939900980
H            2.31668199054707        0.97811346433517        0.08849047940907
H            2.80372139171182        0.07032305826477       -2.19046112733612
H            2.71322478045145       -1.57664224881224       -1.54284902984751
H            4.67088496437637        1.55180033163650       -1.59205200140410
H            6.97635426142007        1.74482018797495       -0.79495758083071
H            8.68904746831906        1.79507539020518        0.79151040713240
H            9.24415161415013        1.11450019256088       -0.76460797685269
H           10.07864843483101        0.68837369075866        0.75024242369367
H            7.05454557827579       -4.24722996346998        1.65552453279419
H            5.44171210788121       -3.49737281409156        1.78664754452430
H            6.02573067823031       -4.09291727482126        0.20804280778741
H            4.42598564370850       -2.40060499572719       -0.02433294568812
H           -0.21397693876215       -1.61003611376687       -1.65702724268089
H           -0.94569945613619       -1.26294794137433       -0.07465977991245
H            0.60489642734599       -2.07402868981368       -0.14481579937512
H           -4.75256854212638        2.92005667053342       -0.23211113727926
H           -3.83461744380233        2.89793406273134        2.68515737478771
H           -4.95689730142692        1.74904926791439        1.93411616115791
H           -5.42709251461716        3.44702610787036        2.11520610155457
H           -2.70238657370571        4.68842558476099        1.22621831725424
H           -3.14482401886596        4.79598619467746       -0.47681061652997
H           -4.33332661007718        5.18089861136376        0.76219333987748
H           -0.70086820472008        2.80188785751238        2.82344244103429
72
 energy: -103.317496545636 gnorm: 0.006488855692 xtb: 6.6.1 (8d0f1dd)
N           -1.57085795016271        2.83381580790716        2.30486371535933
C           -1.61440259891064        2.16349233976133        1.24381128164410
C           -2.78273709759961        2.06827740125699        0.29608124395213
C           -3.33245345723814        0.65070574956068        0.36576911151195
C           -4.29915077557731        0.24572596214761       -0.55381897994553
C           -4.84968489078258       -1.01885211279788       -0.51811895500830
O           -5.80813575097553       -1.48321208751544       -1.37150264741858
C           -6.34788792625661       -0.59360809018681       -2.31055206703673
C           -4.42546023076364       -1.93748739414934        0.46364708051193
O           -5.03058045689847       -3.16059833564145        0.41930184552335
C           -4.72705637730336       -4.08892849412870        1.42690312509258
C           -3.46343582707276       -1.53901506433087        1.37036628723392
C           -2.92315480518161       -0.25932160334996        1.31899888101671
C           -2.18887832115484        2.30819811626809       -1.12832971252186
C           -1.24764266107342        1.20197160833680       -1.65674604041268
C            0.03799342601016        1.15118199638031       -0.89681921024109
N            0.66625130914000       -0.04303789718266       -0.56028588678857
C            2.03665716628950       -0.03960451956513       -0.17108899584203
C            2.96683552435635       -0.54143910474575       -1.29934827327940
C            4.39210233353185       -0.43821488045351       -0.86247174932997
C            5.11807455447369        0.72173673807984       -1.06753228042312
C            6.42904892161055        0.83067245742754       -0.61873155006880
C            7.03474210150898       -0.22120498073552        0.04670275673368
O            8.31193157051305       -0.22494710107826        0.52425263118379
C            9.10918803546979        0.91042331521148        0.30361087273597
C            6.29920993354537       -1.40667744345666        0.26836019407636
O            6.97307770060834       -2.39171076055876        0.92875479217603
C            6.32479314129608       -3.61640673587364        1.14817565629986
C            4.99407488760970       -1.49673363234225       -0.18143604573761
C           -0.00818507659337       -1.30844301217176       -0.62212303893082
C           -3.97122014176462        3.06097523276184        0.55172763992148
C           -4.59684644381534        2.76901932053598        1.91239661368074
C           -3.50636473821776        4.52074625507452        0.50706086720230
H           -4.61508151827518        0.94242223883605       -1.30973773371829
H           -6.79316049087935        0.28254608431789       -1.82552037308517
H           -7.12462530630875       -1.15369484072512       -2.82962032273992
H           -5.59824771479320       -0.26498897952185       -3.03680145301970
H           -4.95531069745233       -3.69353967812671        2.42366250717571
H           -5.35657111266954       -4.95830834491733        1.22982676388107
H           -3.67420697928656       -4.38962550527236        1.39375443423268
H           -3.13015354895446       -2.21431094920028        2.14083678976651
H           -2.19162918722762        0.02359505179097        2.05621655820019
H           -3.01812528845411        2.42638749996064       -1.82625898093321
H           -1.63251572138655        3.24758287030945       -1.12780995692502
H           -1.77209310161238        0.24787039635935       -1.61913751323283
H           -1.03988572490393        1.41088948756115       -2.71960787158842
H           -0.74821751386303        1.61700852976305        0.83099300330504
H            0.70918388355777        1.98996551804392       -1.00601256335039
H            2.17234671717029       -0.67061396295338        0.71860954333724
H            2.31678167627710        0.98106870250649        0.08886526897862
H            2.80023025465778        0.07221356651006       -2.18739910930132
H            2.71063246341670       -1.57503091863974       -1.53896983090084
H            4.66863200781885        1.55328455059625       -1.58952533280524
H            6.97421634832394        1.74613223554430       -0.79495007632244
H            8.68836780848229        1.79507879713918        0.79045550101554
H            9.24196241929699        1.11354291538864       -0.76602351863986
H           10.07698498026492        0.68662967616174        0.74838870780984
H            7.05424180215780       -4.24759787275665        1.65365306423870
H            5.44137092021024       -3.49847026782083        1.78708859539659
H            6.02431539608459       -4.09247085670228        0.20710762736701
H            4.42416859463385       -2.39894098427068       -0.02062572745837
H           -0.21097790368282       -1.61152976637926       -1.65621556948306
H           -0.94665113629955       -1.26471181426183       -0.07629168091243
H            0.60627857624692       -2.07184936091290       -0.14366461897127
H           -4.73628784473057        2.91476983286142       -0.23288905222301
H           -3.84266861888017        2.89421548269278        2.68784909365394
H           -4.96373493471093        1.74467423770958        1.93369116839079
H           -5.43173248007052        3.44428424755382        2.10829021095298
H           -2.70433966521663        4.68639855691632        1.22279983819766
H           -3.14794716302051        4.79518027399320       -0.48247984977084
H           -4.33780289631075        5.17849916593416        0.75864549465138
H           -0.69272145733600        2.78829849615008        2.81946570120106
72
 energy: -103.317480947275 gnorm: 0.006880679296 xtb: 6.6.1 (8d0f1dd)
N           -1.57708164487591        2.83356997864100        2.31009720140074
C           -1.61937939191344        2.16689523147402        1.24554775848473
C           -2.78578724726697        2.06927477914653        0.29571775109300
C           -3.33486615142342        0.65252045016176        0.36712709733690
C           -4.29969554941440        0.24735348074508       -0.55443638090137
C           -4.84862231539693       -1.01789621286679       -0.51901346778437
O           -5.80630023268118       -1.48380581410630       -1.37205400851781
C           -6.34787611499045       -0.59593785258922       -2.31197849465053
C           -4.42403333575424       -1.93605142798970        0.46349668321440
O           -5.02928310447768       -3.15879150837436        0.41837020863919
C           -4.72696002978207       -4.08780280422127        1.42561789318693
C           -3.46266143439581       -1.53760340211126        1.37129637894262
C           -2.92487275000051       -0.25675282787089        1.32160517918944
C           -2.18941298749322        2.30532787748156       -1.12646504511225
C           -1.24699039096096        1.20089547197946       -1.65508874610703
C            0.03796644651622        1.14968719641238       -0.89579237947961
N            0.66626434445245       -0.04398415985536       -0.56078509037096
C            2.03744683088048       -0.03987589057992       -0.17234013235036
C            2.96806809803324       -0.54205413626290       -1.29996007997791