72
 energy: 0.000000000000 xtb: 6.6.1 (8d0f1dd)
N           -1.47310921155849        2.74401293103706        2.22063921685122
C           -1.55658879776851        2.16490285539332        1.13274273951491
C           -2.74549199786261        2.05621232186130        0.23826248438941
C           -3.31377553111525        0.64333411542669        0.32332512650568
C           -4.30230156009016        0.24487110156316       -0.58026161703006
C           -4.85238763031941       -1.02286490450319       -0.53363588718165
O           -5.81419972815119       -1.48606034185536       -1.36157882725342
C           -6.39655633239252       -0.60827000183299       -2.29568474302620
C           -4.39972501531283       -1.94646102182611        0.44396929121966
O           -4.98748311285188       -3.16145997157803        0.41085992006324
C           -4.66362127904578       -4.10093827755394        1.40909127743729
C           -3.42072513477031       -1.54561384810496        1.33436546260297
C           -2.88302799614223       -0.26315800396994        1.27400150770375
C           -2.19303798107274        2.30467000305896       -1.18742977106749
C           -1.26651538239283        1.17243369445008       -1.65249429687285
C            0.01082524939134        1.09745454476277       -0.89354803499847
N            0.61779393476578       -0.02034948052406       -0.57705522512502
C            2.00145210352228       -0.02376006389122       -0.15611399603240
C            2.92554934655222       -0.53865282675074       -1.27700088804721
C            4.35756843073516       -0.43050757231754       -0.83075544324989
C            5.07346135469827        0.73206409086248       -1.03980965825901
C            6.38627986649936        0.84224441421807       -0.60344822702769
C            7.00047264773336       -0.20824756335880        0.05722314418200
O            8.26703657141718       -0.21011313101264        0.52410943644933
C            9.06912227848686        0.92943601033931        0.31863058007678
C            6.27039964270142       -1.40439753960823        0.28033466008274
O            6.94829939911432       -2.38012925705718        0.92751999079483
C            6.31537317745639       -3.61583200086742        1.15217711710877
C            4.96302794628964       -1.49347471867959       -0.16064430359178
C           -0.05511211367372       -1.29906247805359       -0.62085686319744
C           -3.86758037025447        3.07992600430699        0.58498060215443
C           -4.49286159663096        2.77383493050346        1.94313289484366
C           -3.39165179876499        4.52917666589254        0.54797523472093
H           -4.66030026466202        0.94509067363451       -1.31640568823548
H           -6.85037928558380        0.25803162192116       -1.80468845313260
H           -7.17287442604349       -1.18600110843259       -2.79318157561361
H           -5.66836817451085       -0.26952966318766       -3.04040255244073
H           -4.88416720672258       -3.71589460520039        2.40913542187496
H           -5.29223570620378       -4.96637458756866        1.20969236903657
H           -3.61139813139015       -4.39919835331056        1.35529357841967
H           -3.07077796610445       -2.21868765711333        2.10002662693138
H           -2.14562754426994        0.02067850696302        2.01001344383370
H           -3.02188875377605        2.38238012313952       -1.88813545054866
H           -1.65198530896729        3.25146700677685       -1.20556284570283
H           -1.81103374245520        0.23006524641044       -1.62116301628650
H           -0.99335688527853        1.37490212198123       -2.69443256973690
H           -0.67628064361333        1.65183887049447        0.61785727145403
H            0.63525841192517        1.98466369793744       -0.92314021190751
H            2.11132552493482       -0.65949692842762        0.72532613231274
H            2.30680473056284        0.98978251704176        0.11078972794250
H            2.76694198818247        0.06750735147374       -2.17075252200790
H            2.67954581369920       -1.57455627803457       -1.51167743520200
H            4.62169998552446        1.56295612048703       -1.56123579000624
H            6.92357674630170        1.75715815945204       -0.79119596719031
H            8.65159112996149        1.81001823324363        0.81701555159939
H            9.20136171144928        1.14042857828877       -0.74698991949293
H           10.03428838009630        0.69003240176163        0.76064937965836
H            7.05567174969094       -4.23621171795340        1.65347565939075
H            5.43848001056755       -3.50813558175093        1.79970565785717
H            6.02060041905269       -4.09420497120334        0.21253282636366
H            4.40102758497114       -2.40127266373392       -0.00490198249042
H           -0.22071299714579       -1.61775583601871       -1.65116008982042
H           -1.01972258008625       -1.24102717432227       -0.10935206830928
H            0.55899954147532       -2.04486085926761       -0.12333730421426
H           -4.63991875734388        2.95501092798550       -0.18098088071825
H           -3.76095216473977        2.90314704960906        2.73380821053058
H           -4.87457614030224        1.75695641518947        1.97884603101694
H           -5.31925552549014        3.45579210326349        2.12325564252114
H           -2.60025590131176        4.69225046143352        1.27368918226171
H           -3.03987406413880        4.81897652321898       -0.43870975059559
H           -4.22191740670577        5.18069648090034        0.80616693961239
H           -0.59832433787845        2.77744694953323        2.72958984441332
72
 energy: -6.806264257502 xtb: 6.6.1 (8d0f1dd)
N           -1.57397918327363        2.83515755000692        2.30888008304698
C           -1.61719090441145        2.16634613002088        1.24578029900612
C           -2.78485161580673        2.06947536788379        0.29605288631147
C           -3.33399864319876        0.65181679687362        0.36612414633844
C           -4.29945966147243        0.24624824493120       -0.55472422746518
C           -4.84964763194544       -1.01884784788442       -0.51916213917402
O           -5.80759079070078       -1.48397562795662       -1.37185392603741
C           -6.34815009020782       -0.59485978390547       -2.31154145146599
C           -4.42530005357655       -1.93759000626627        0.46306096256782
O           -5.03068048433128       -3.16037388045762        0.41906296644569
C           -4.72707395697348       -4.08909667938265        1.42670803379230
C           -3.46325416272133       -1.53901621227204        1.36989844592509
C           -2.92410401550940       -0.25867461301527        1.31956361696366
C           -2.18865547525604        2.30675964545398       -1.12693711215487
C           -1.24701419959451        1.20170677062298       -1.65630483418677
C            0.03815818301788        1.15017497830675       -0.89700968981367
N            0.66589872145895       -0.04345698919519       -0.56072643549411
C            2.03711449079726       -0.03994339364860       -0.17190140391290
C            2.96767207941389       -0.54177335395907       -1.29979788183764
C            4.39307097242317       -0.43845190095022       -0.86285592952125
C            5.11864257136542        0.72137401207685       -1.06768187386626
C            6.42911892120124        0.83026872106510       -0.61904995415977
C            7.03481550362217       -0.22146216165130        0.04606699845419
O            8.31235832601157       -0.22525625551939        0.52359135033564
C            9.10923000076254        0.91036962757889        0.30408432427312
C            6.29943900509742       -1.40703099273556        0.26809615333763
O            6.97325616325015       -2.39175003279053        0.92844556267330
C            6.32487278847620       -3.61653585603223        1.14835200365466
C            4.99468336921657       -1.49686764838071       -0.18176478560608
C           -0.00860026462831       -1.30862950635330       -0.62208290420775
C           -3.97271587272995        3.06246995327126        0.55038809422614
C           -4.59599752284284        2.77044574189408        1.91103614224473
C           -3.50663877616336        4.52044631944333        0.50736357686042
H           -4.61517369894372        0.94284058273229       -1.31139797016121
H           -6.79348597905324        0.28107461365454       -1.82654571914890
H           -7.12492790089786       -1.15561808266797       -2.82961657752713
H           -5.59833011595036       -0.26655520826792       -3.03787583110609
H           -4.95565551419534       -3.69395560530241        2.42322677034794
H           -5.35633793750486       -4.95828383046074        1.22997000104410
H           -3.67440692494193       -4.39006925232095        1.39324262377012
H           -3.13037473417504       -2.21454792798530        2.14060400422721
H           -2.19066606076419        0.02335387708080        2.05580404688137
H           -3.01879032882823        2.42335469617020       -1.82390186319642
H           -1.63229765308134        3.24587636421499       -1.12556508403086
H           -1.77089369825249        0.24756035195774       -1.61902236051069
H           -1.03885612557796        1.41111332881592       -2.71904746460773
H           -0.75070490457569        1.62258796236222        0.83027698429798
H            0.70909212588174        1.98940636003901       -1.00469592745442
H            2.17130583940127       -0.67097623891931        0.71767587294440
H            2.31743358804722        0.98048605056017        0.08988869412949
H            2.80102706732783        0.07115889042823       -2.18815432173441
H            2.71147327320408       -1.57516172560986       -1.54001155224745
H            4.66961831978448        1.55267637792399       -1.59051714677562
H            6.97357634583769        1.74563739690912       -0.79582292120892
H            8.68805396328586        1.79521809993455        0.79081203894118
H            9.24293734642053        1.11380405743436       -0.76523143423099
H           10.07689410568025        0.68620203865686        0.74933131060888
H            7.05454960855860       -4.24699038332706        1.65423587036425
H            5.44171519474451       -3.49839830517417        1.78730562736744
H            6.02505807736365       -4.09295257497576        0.20745527968503
H            4.42466034355915       -2.39923642208344       -0.02196245453283
H           -0.21137279758425       -1.61194798551225       -1.65592427393295
H           -0.94770519808500       -1.26424674285452       -0.07531844487475
H            0.60823860604297       -2.07153556348409       -0.14591374011503
H           -4.74249174422136        2.91742424453827       -0.22959348851636
H           -3.83791817984813        2.89624511620957        2.68120949698692
H           -4.96194003549315        1.74621832310851        1.93354150742088
H           -5.42908943577257        3.44547975677100        2.11155308133542
H           -2.70491336605980        4.68238271372564        1.22384012957848
H           -3.14805395363197        4.79408856362389       -0.48199909448481
H           -4.33636655334765        5.17908268014046        0.76053584803175
H           -0.69343783422839        2.79208964746536        2.82098528412296
72
 energy: -3.429787918204 xtb: 6.6.1 (8d0f1dd)
N           -1.68973895449755        2.89612174367388        2.39376530393415
C           -1.70782028386650        2.19110451684203        1.35353674694735
C           -2.83060056452514        2.07804718197827        0.35060903159919
C           -3.35162243646771        0.65278950480714        0.41142700958476
C           -4.28853277196392        0.24394393097491       -0.53278578494494
C           -4.84803160694705       -1.01518627954504       -0.50577722391983
O           -5.78897744200397       -1.47474391670691       -1.38039924361595
C           -6.29901727526553       -0.58023071325356       -2.32919499056702
C           -4.45215530582122       -1.93330076528104        0.48522863476866
O           -5.07080128200764       -3.15080620293774        0.43187526725050
C           -4.79114083441195       -4.07721032168123        1.44764874507594
C           -3.50345321787171       -1.53729098017998        1.40654274786062
C           -2.96018151307999       -0.25920666472412        1.36745792375552
C           -2.17674072332087        2.31722691970816       -1.05883698889066
C           -1.21759954815709        1.23045788709617       -1.61620051030036
C            0.10432182958371        1.17917954484146       -0.89091198863502
N            0.71552854415290       -0.03693529751723       -0.56233689760470
C            2.08471508147224       -0.04295510442367       -0.18849787217561
C            3.00462934133387       -0.54187002074250       -1.32564597465416
C            4.42978051796571       -0.44385959619655       -0.89037941580865
C            5.16251488989048        0.71188476534652       -1.09477584992436
C            6.47243915753202        0.81764705972094       -0.63845759904791
C            7.07284229047631       -0.23460216444003        0.03188498822205
O            8.35002811375228       -0.24049404754629        0.51508147422618
C            9.15057694240176        0.89161277709082        0.28812676871824
C            6.32945387201813       -1.41469164788115        0.25407368911552
O            6.99550169809686       -2.40142562589921        0.92186763813786
C            6.33582044493335       -3.61938469810519        1.14300912229793
C            5.02486972945155       -1.50096704011877       -0.20175262723186
C            0.04344215509297       -1.30561436575278       -0.62863186003025
C           -4.07912603995106        3.03835801470138        0.51675042304880
C           -4.70205968238320        2.76105964273585        1.87765400593117
C           -3.62398894726125        4.50655629422225        0.46202576042324
H           -4.56943399433414        0.93821209862665       -1.30383810452335
H           -6.73833693464728        0.30331285725304       -1.85185280494900
H           -7.07406815341203       -1.12851779698269       -2.86358656578321
H           -5.52929378543825       -0.26578734031740       -3.03873404523074
H           -5.02902655296004       -3.67333124465934        2.43896181687510
H           -5.42382650669970       -4.94496107074181        1.24898530436045
H           -3.73984312360875       -4.38345018451410        1.43215200421746
H           -3.18897040409646       -2.21202954070569        2.18411184625980
H           -2.23827993486251        0.02145176685463        2.11241975189096
H           -2.99614948851021        2.46347704505964       -1.76301548794097
H           -1.61350525058342        3.25152053872496       -1.04232984440958
H           -1.73015506510352        0.26718670141057       -1.59617952422871
H           -1.05351819430515        1.46093420748888       -2.68300566484591
H           -0.84555954608897        1.59446110834190        1.05644631573552
H            0.81989767627488        1.97760027587934       -1.06454252881173
H            2.22923714299941       -0.67495810398531        0.70087659245100
H            2.35048985247926        0.97998108423383        0.06879294820584
H            2.83681381605596        0.07550848605242       -2.21086471808991
H            2.74328821559758       -1.57352978447617       -1.57027482515760
H            4.71758011202075        1.54338643101592       -1.62061999530297
H            7.02348477258286        1.73154407295951       -0.80881453663365
H            8.72774189087526        1.77925144991118        0.76657211385893
H            9.28665618624790        1.08789533438585       -0.78302965913767
H           10.11853505395708        0.67580371863693        0.73685262981751
H            7.05654165347556       -4.25750570016673        1.65327778739849
H            5.44883024589134       -3.48867949014738        1.77544347469540
H            6.03325432788135       -4.09544660913137        0.20212759355930
H            4.44838424015745       -2.39896384398545       -0.03996669319039
H           -0.18935219364771       -1.57350887028810       -1.66417224433444
H           -0.86767394634178       -1.28621404657417       -0.04209097088134
H            0.67101828040233       -2.08514689937602       -0.19013359173938
H           -4.83098209583009        2.83251712154084       -0.28486220028294
H           -3.94264532302786        2.89057298107988        2.64844109354553
H           -5.05640636723336        1.73307141283404        1.89297599251840
H           -5.54052683258355        3.43051002348523        2.07899987406055
H           -2.81927393761935        4.68603312583254        1.17420795066356
H           -3.25993921896702        4.77515437615183       -0.52671367433093
H           -4.45431895212816        5.16686732239494        0.71017308280767
H           -0.81665832285493        2.82166688034885        2.91870160660979
72
 energy: 3.711592557508 xtb: 6.6.1 (8d0f1dd)
N           -1.81891798901236        2.95421098413514        2.48115548085820
C           -1.80759886565006        2.21863548975302        1.46189114889950
C           -2.87978044230970        2.08646392780546        0.40609533126559
C           -3.36869941535080        0.65343370898618        0.45862566912163
C           -4.27169530040404        0.23967470939502       -0.51208851655215
C           -4.84463515799453       -1.01144439705045       -0.49193498347403
O           -5.76638957070632       -1.46271211767066       -1.38997593596501
C           -6.24855160569442       -0.56387776188260       -2.34737686808615
C           -4.48052607983638       -1.92858267013571        0.50925995213240
O           -5.11238941807804       -3.13976949967788        0.44869306568515
C           -4.85432751899211       -4.06485409241619        1.47078966837464
C           -3.54509124203970       -1.53581816804181        1.44499607160957
C           -2.99697967249617       -0.26023959897294        1.41774336982775
C           -2.16166762396263        2.32913824865402       -0.98518924045773
C           -1.18443417299084        1.25959834614519       -1.56396991406085
C            0.17890757843133        1.20685978709705       -0.87840635862691
N            0.77156389603793       -0.03094220246295       -0.56506622891417
C            2.13743361322517       -0.04568026906062       -0.20763823465694
C            3.04319494975358       -0.54207045316594       -1.35398414692650
C            4.46731334021912       -0.44941007060907       -0.91841406309644
C            5.20623460608561        0.70251922955956       -1.12216220082271
C            6.51562320219081        0.80480018346166       -0.65992996700188
C            7.11046395351661       -0.24797497784905        0.01551823456878
O            8.38753303688339       -0.25641603267808        0.50315852125503
C            9.19181542995530        0.87243761617567        0.27129522337213
C            6.35933951569331       -1.42293052226452        0.23895577991673
O            7.01817036080552       -2.41158101981517        0.91316035625840
C            6.34753349698241       -3.62274512054513        1.13691422427735
C            5.05490369222407       -1.50521824549277       -0.22177647781483
C            0.09786514248906       -1.30092622780422       -0.63788429108448
C           -4.18457727831648        3.01352635136527        0.48300926789896
C           -4.80981953781687        2.74795764880302        1.84155602378609
C           -3.74219719027288        4.49244001888590        0.41412762884458
H           -4.51962868548919        0.93038765224026       -1.29700276668725
H           -6.68303859321719        0.32676080656057       -1.87858617076187
H           -7.02169953200884       -1.10026889545755       -2.89721335076337
H           -5.45996517653154       -0.26339886068446       -3.04015507815364
H           -5.10197612511440       -3.65502547605015        2.45737569811555
H           -5.49046121114294       -4.92977044264433        1.26858165595790
H           -3.80485383474354       -4.37664442115414        1.47175326473811
H           -3.24890416026041       -2.20970207013207        2.22946618242872
H           -2.28675324690935        0.01708125935048        2.17265828049054
H           -2.96481904111728        2.50355678777223       -1.70111148275248
H           -1.59274298750837        3.25858849785792       -0.95456082547330
H           -1.68707770987365        0.28728742389567       -1.56442401570119
H           -1.06562464788702        1.51984218896603       -2.62907239108187
H           -0.95575883715793        1.57234858762780        1.28492909526244
H            0.93187482653139        1.96383860119353       -1.11589780314054
H            2.28918744957679       -0.68011388939679        0.67882910220631
H            2.39408000162301        0.97845628299311        0.04745763736787
H            2.87293170638827        0.08015836724213       -2.23536368657156
H            2.77554726215259       -1.57165095545311       -1.60193837264537
H            4.76545032366959        1.53380432243669       -1.65175158884035
H            7.07328879595119        1.71605567818279       -0.82788329929913
H            8.76858595362362        1.76296400035320        0.74307979232323
H            9.33079065796487        1.06290714985301       -0.80095874288027
H           10.15950164405463        0.66122833294552        0.72321877327763
H            7.05986993001339       -4.26798643340594        1.65163864852379
H            5.45789080117109       -3.47917136371046        1.76388906312013
H            6.04333926807786       -4.09953003890264        0.19657940057900
H            4.47184249007241       -2.39875875446031       -0.05860782634938
H           -0.17034771111938       -1.52661334678280       -1.67221626866102
H           -0.78219027056389       -1.30926934801544       -0.00880039708765
H            0.74074715635248       -2.09708298585890       -0.25070330435398
H           -4.92073503056212        2.75138324648542       -0.33743030039666
H           -4.05889758940197        2.88812460180467        2.61891277796233
H           -5.15007108709299        1.71591841588043        1.85324611894532
H           -5.65523193712895        3.40978393236790        2.03260010083930
H           -2.93903177349540        4.69221701010054        1.12523139695723
H           -3.37188255932500        4.75750871783523       -0.57338354190433
H           -4.57439960980568        5.15307292256411        0.65493180259168
H           -0.95171501801727        2.85317545522548        3.01543175400392
72
 energy: 12.758751632855 xtb: 6.6.1 (8d0f1dd)
N           -1.94779488141161        3.00250888849525        2.56580636748486
C           -1.90504951666501        2.24266847860131        1.56500988351617
C           -2.93038849645662        2.09449880741725        0.46125461149446
C           -3.38640717687093        0.65453597297598        0.50661920695700
C           -4.25176675491303        0.23453795522548       -0.49199020566095
C           -4.83991345210534       -1.00746449752432       -0.47770671911802
O           -5.74139446720031       -1.44925401208355       -1.39979217781454
C           -6.19665266906479       -0.54699774789616       -2.36592185033839
C           -4.50949409322233       -1.92280956001478        0.53441802759065
O           -5.15484064873354       -3.12705551861941        0.46828893954118
C           -4.91729742393142       -4.05173579070993        1.49521644753024
C           -3.58716397046829       -1.53346528634744        1.48431909230691
C           -3.03465392611310       -0.26026979859570        1.46893823339845
C           -2.14704897263508        2.34172611077931       -0.90971759387796
C           -1.15621291403100        1.28599232722368       -1.50511970951091
C            0.23802811625894        1.22698637231515       -0.85313111954736
N            0.82861488450568       -0.02742709377553       -0.57005795847910
C            2.19088378190069       -0.04757395841779       -0.22972942490845
C            3.08205562007191       -0.54158260802248       -1.38402206453321
C            4.50467077701902       -0.45488847597466       -0.94664606164771
C            5.24929250577855        0.69334013799738       -1.14988144870721
C            6.55857167744558        0.79177393959276       -0.68374287600232
C            7.14770308502472       -0.26156909483643       -0.00337524654903
O            8.42466595225410       -0.27297982154216        0.48807684930605
C            9.23291164010819        0.85275742871061        0.25387685056144
C            6.38907908903068       -1.43147058398259        0.22225488054304
O            7.04110382055191       -2.42194004119187        0.90221267598561
C            6.35969232297740       -3.62609358216363        1.12995017663178
C            5.08447567090597       -1.50962626895642       -0.24216064526810
C            0.15169918559629       -1.29764099938101       -0.64777347318223
C           -4.28981761141627        2.99636863523973        0.45187498022230
C           -4.91902251243723        2.73320413066508        1.80447778888552
C           -3.85440093432780        4.48195502513857        0.36800618257644
H           -4.46846716857205        0.92087927162401       -1.29038932658834
H           -6.62723313533714        0.35063002673532       -1.90676181688528
H           -6.96788670981749       -1.07199214574659       -2.93024441759321
H           -5.39027532132851       -0.26072188985569       -3.04212109999058
H           -5.17521464669993       -3.63824088717439        2.47756290794546
H           -5.55774499526584       -4.91211762241143        1.28748878650975
H           -3.87037455145810       -4.37038446366690        1.51156743659577
H           -3.30790029269416       -2.20652738672216        2.27523613730979
H           -2.33636227942502        0.01344082356321        2.23449922191119
H           -2.93034025560615        2.54199611883384       -1.63875095140907
H           -1.57128240886855        3.26543059952874       -0.86360218062708
H           -1.64890096441860        0.30612977846900       -1.52553044072464
H           -1.07450422642478        1.58189689793230       -2.56306945919154
H           -1.06263048657096        1.56265517693214        1.48131929043093
H            1.00554776725761        1.95673476555883       -1.14117818665303
H            2.34996512405697       -0.68555270110865        0.65238130185660
H            2.44321706737601        0.97658766557077        0.02494619438089
H            2.90968316977018        0.08622763485430       -2.26086497905122
H            2.80764252027154       -1.56878110921594       -1.63515092062703
H            4.81280715675431        1.52421274477267       -1.68339929066373
H            7.12279102758274        1.69952037850040       -0.85305771170011
H            8.81022405348466        1.74615165755197        0.72024662350646
H            9.37582326543302        1.03857542634393       -0.81892229894838
H           10.19957586396695        0.64284228965608        0.70912155592769
H            7.06409713918250       -4.27734007424114        1.64974504750350
H            5.46823344144093       -3.46935273951777        1.75229873245444
H            6.05474216059531       -4.10501783585914        0.19073680652359
H            4.49514167457711       -2.39874804904379       -0.07767607466200
H           -0.16439092379723       -1.48568168965735       -1.67303427883905
H           -0.69267108065213       -1.33350843213688        0.02557245931890
H            0.81419600969564       -2.10611577971641       -0.32048047896027
H           -5.02791306004721        2.71335265606002       -0.37956583713248
H           -4.18364763561556        2.88610715484643        2.59213815874352
H           -5.24384452303406        1.69653140313161        1.81174043643684
H           -5.77359220595452        3.38485623447312        1.97805650074417
H           -3.05470754966974        4.70769414455789        1.07634343822505
H           -3.48217409804073        4.73794058498274       -0.62149195571903
H           -4.69377876958247        5.13617163917289        0.59927624974442
H           -1.08678103861735        2.88516179622864        3.10996190612091
72
 energy: 22.035128003645 xtb: 6.6.1 (8d0f1dd)
N           -2.05959642585544        3.03182540912143        2.65122820883978
C           -1.98932747169463        2.26093066393632        1.66034034982294
C           -2.97856452269690        2.10399791710031        0.51663284433201
C           -3.40284885128827        0.65722046775494        0.55531667088377
C           -4.23016943888782        0.23032473196083       -0.47078326485669
C           -4.83382316269212       -1.00295739392402       -0.46322601736623
O           -5.71591807510048       -1.43587449629512       -1.40757483309825
C           -6.14460480855739       -0.53163712936653       -2.38394114795516
C           -4.53807815997593       -1.91652026831490        0.55972913639506
O           -5.19731559383573       -3.11294724927269        0.48881159578367
C           -4.98044838394267       -4.03794245688554        1.51971884392274
C           -3.62872986641561       -1.53109667523108        1.52374499812582
C           -3.07157956852116       -0.25988955396694        1.52092608855437
C           -2.13487861340258        2.35544196753355       -0.83432960211026
C           -1.13603451638039        1.30703230170818       -1.43868047273298
C            0.26276294158226        1.22911743634093       -0.78815387059428
N            0.88238045155847       -0.02742348628004       -0.57462440338685
C            2.24316245343596       -0.04832652064660       -0.25357958326652
C            3.12003393854652       -0.54049028682316       -1.41537860987215
C            4.54167210780699       -0.46010746544287       -0.97494148479181