25
 energy: 0.000000000000 xtb: 6.6.1 (8d0f1dd)
C            3.23720132972391        1.16630909158653        0.08434468864950
N            2.29877796055224        0.07527476373246        0.03981602671198
C            2.58028186251803       -1.21425391179017        0.03006175752192
N            1.43813944744728       -1.93419254010258        0.00098261751768
C            0.39035684826767       -1.05887462812143       -0.00790371763344
C            0.93510047688824        0.21347817468824        0.01709077332874
C            0.09450143016486        1.40504290868848       -0.00410946993748
O            0.49712746915594        2.54126690785742       -0.00342325656480
N           -1.25076628431515        1.06271869620815       -0.03085477937476
C           -2.21907191394203        2.15522079838987       -0.05001256521996
C           -1.81739470187490       -0.20012724136556       -0.04692818139228
O           -2.99983858926755       -0.37846413507442       -0.07008877579474
N           -0.92618577614240       -1.30210203518959       -0.03682761236648
C           -1.46982251276835       -2.64643077634382       -0.06029819901142
H            3.71247229913541        1.21471443890471        1.06488839270555
H            4.00791460421487        1.03430799217987       -0.67357688121503
H            2.69909982127087        2.09770098766290       -0.09130154035862
H            3.56654087521359       -1.63682977417947        0.04233139674524
H           -1.67107945562430        3.09322822573871       -0.02552706696334
H           -2.82428927394145        2.09428605349656       -0.95318074103337
H           -2.87644002486466        2.07745706351925        0.81450059976605
H           -1.17061985538665       -3.19584861009707        0.83242224714061
H           -1.14560246782873       -3.17511580834413       -0.95688266944647
H           -2.55549768731684       -2.55659960601237       -0.07459039105944
H            1.38130842369251       -2.94313824728853       -0.01389874052104
25
 energy: -5.917205553724 xtb: 6.6.1 (8d0f1dd)
C            3.24032149310147        1.17289224444735        0.08695661650863
N            2.31274219205433        0.09545665121361        0.03390461680295
C            2.63577824807546       -1.24697066011204        0.03287213744331
N            1.44245426143098       -1.94481627888927        0.00184676706704
C            0.41123068972178       -1.06945360884704       -0.00860203969114
C            0.92559601858751        0.21805778111148        0.01293934364674
C            0.11508238093905        1.38081329830302       -0.00603915084416
O            0.48925402160573        2.55756987563770       -0.00522685128622
N           -1.26940573450953        1.04954661432534       -0.03155123978691
C           -2.22315828947719        2.14874433689293       -0.04922099816055
C           -1.81619678250527       -0.19663377707463       -0.04747294815306
O           -3.01518188959757       -0.38422108607567       -0.07019700710584
N           -0.93385871498418       -1.30117496884677       -0.03740249282071
C           -1.47829268705668       -2.63925048027824       -0.06069086848869
H            3.71494263830184        1.21653193246698        1.07110043474434
H            4.00895958883154        1.03451675946969       -0.67555486191473
H            2.69506985142545        2.09755313447247       -0.09133823810422
H            3.64742272379440       -1.62568705232903        0.04552460475394
H           -1.66620044873609        3.08302969032899       -0.02504747744270
H           -2.83032489920548        2.09572965227867       -0.95278029809416
H           -2.88069219018062        2.07866348637815        0.81691614774798
H           -1.17842112016028       -3.19255717064983        0.83187282476056
H           -1.15302852003195       -3.17240158297546       -0.95679404704388
H           -2.56437329262829       -2.54846863013182       -0.07533073709400
H            1.37224947730608       -2.94907096089654       -0.01070713301572
25
 energy: -4.231317658239 xtb: 6.6.1 (8d0f1dd)
C            3.23972762506841        1.17130411817130        0.08705643890416
N            2.32192103464058        0.08787975792867        0.03121067978795
C            2.67169003879747       -1.25520607308161        0.03316528337441
N            1.46344360229051       -1.95023020456948        0.00277632629693
C            0.42271190854640       -1.07761347814628       -0.00888675258731
C            0.93195484581171        0.21036935959845        0.01125622170561
C            0.11466322384423        1.37425154142157       -0.00657439989467
O            0.48338602681003        2.55336470243970       -0.00520446149355
N           -1.27195870333411        1.04743167541689       -0.03166497539045
C           -2.22689839967031        2.14793648865232       -0.04915902868027
C           -1.81823597613472       -0.19814893858237       -0.04778525112854
O           -3.01766862500193       -0.38601530634552       -0.07045190479853
N           -0.93028935838228       -1.30204446241624       -0.03762723428785
C           -1.48503534396383       -2.63689203003883       -0.06081190252544
H            3.71242566708537        1.21285464168664        1.07231124749655
H            4.00620965786496        1.03242824910253       -0.67719459352599
H            2.69167884580661        2.09468039675583       -0.09080983341392
H            3.71922726019133       -1.60229819543546        0.04779929922229
H           -1.66988985868048        3.08203648614164       -0.02493717973290
H           -2.83541688217881        2.09795101775714       -0.95236347675927
H           -2.88569294358148        2.08091002286053        0.81664724336097
H           -1.18900221446220       -3.19181078533635        0.83166174155344
H           -1.16330049774928       -3.17165947136629       -0.95685163994324
H           -2.57163766881913       -2.54179881889743       -0.07558945090658
H            1.37001797415797       -2.95308782043045       -0.00821447230629
25
 energy: -1.206832928714 xtb: 6.6.1 (8d0f1dd)
C            3.23759874892288        1.17007627144829        0.08678081899709
N            2.32835499985761        0.08077142472013        0.02751869560706
C            2.70637535742473       -1.26047629002847        0.03338273008552
N            1.48351447259853       -1.95409247195431        0.00337611343684
C            0.43271247913774       -1.08548492295978       -0.00889381553554
C            0.93550940922520        0.20392237235155        0.01078393168200
C            0.11300271266769        1.36731504432754       -0.00660944508755
O            0.47705287730125        2.54776084017110       -0.00490080267866
N           -1.27506276430547        1.04497756177688       -0.03167874766526
C           -2.22978280022919        2.14739426448113       -0.04930951088042
C           -1.82074378647901       -0.19984415722238       -0.04810042513485
O           -3.02053044478587       -0.38799823898551       -0.07084154581882
N           -0.92751870210720       -1.30387495656917       -0.03737655194329
C           -1.49231692597562       -2.63531988401694       -0.06068635192162
H            3.70873266669897        1.21131648877205        1.07272982065136
H            4.00232222984345        1.03171346961120       -0.67861356968898
H            2.68803563471192        2.09272646659022       -0.09020316559391
H            3.79249282217998       -1.56858605674704        0.05019627864778
H           -1.67204148744801        3.08098931877336       -0.02468128345361
H           -2.83874181109663        2.10033203243210       -0.95260157302196
H           -2.88970459204798        2.08318785826351        0.81607922882486
H           -1.19976529784334       -3.19175082801437        0.83169836401594
H           -1.17435551473078       -3.17156325176413       -0.95692030727729
H           -2.57930986518743       -2.53537358972974       -0.07523241807211
H            1.36592300585265       -2.95423335602780       -0.00872230555961
25
 energy: 3.170677532151 xtb: 6.6.1 (8d0f1dd)
C            3.23453974407356        1.16791162940316        0.08666279753416
N            2.33135129038178        0.07379181959536        0.02456007704116
C            2.73907188024991       -1.26567928321212        0.03389710939424
N            1.50004663054582       -1.95736253497520        0.00420117701548
C            0.43832641800704       -1.09207995776643       -0.00869574371825
C            0.93664722986180        0.19822726667240        0.01060920745021
C            0.11079956042479        1.36107971104585       -0.00644685354677
O            0.47097005852216        2.54230146387581       -0.00443861156015
N           -1.27884491790572        1.04334499676577       -0.03167798998895
C           -2.23311140920848        2.14754186632060       -0.04928605373362
C           -1.82455192079627       -0.20038280354492       -0.04869081632527
O           -3.02469725743502       -0.38869703049540       -0.07144404437704
N           -0.92735159594284       -1.30466146631180       -0.03811899202118
C           -1.49928922357279       -2.63363452703549       -0.06077714482378
H            3.70500517362081        1.20823296457218        1.07281382252169
H            3.99888321182889        1.03227438594647       -0.67896227225024
H            2.68436184545089        2.09007212068184       -0.08973458562844
H            3.86503837579618       -1.54305978893869        0.05204465272464
H           -1.67508668725334        3.08084779081637       -0.02430848694235
H           -2.84240101460666        2.10246595510622       -0.95263615694754
H           -2.89388490806961        2.08507076607863        0.81575701697696
H           -1.20891500653402       -3.19096780651272        0.83162037447234
H           -1.18366393333610       -3.17114147893273       -0.95691800368267
H           -2.58648902439921       -2.52994385441804       -0.07517490031853
H            1.35967974569604       -2.95452171484738       -0.01056866155524
25
 energy: 8.981144913799 xtb: 6.6.1 (8d0f1dd)
C            3.22978175972827        1.16522284435335        0.08671273154232
N            2.33119240693452        0.06693972854854        0.02788796955298
C            2.76187233428204       -1.27387474825212        0.03796547383610
N            1.50126228600166       -1.95942461042267        0.00354042567324
C            0.43559710085793       -1.09295352562577       -0.00933463260228
C            0.93560871507088        0.19517648155879        0.01016907603527
C            0.10906731628894        1.36006177930641       -0.00511550158311
O            0.46713750104583        2.54023387911768       -0.00251871448092
N           -1.28205978070923        1.04322081191340       -0.03106583902467
C           -2.23638225574580        2.14875972208020       -0.05001173931254
C           -1.82926197241932       -0.20005460927852       -0.04851429599410
O           -3.02941668571865       -0.38897983162935       -0.07195273951179
N           -0.93081792672355       -1.30404575037980       -0.03940819664533
C           -1.50629951245273       -2.63142785215082       -0.06086027469926
H            3.70171780986908        1.20660589609448        1.07184144744581
H            3.99324754188016        1.02903598313542       -0.67976003239768
H            2.67777697281446        2.08654625439419       -0.08875336858666
H            3.93607235753724       -1.54450566760645        0.05335511309016
H           -1.67891696168276        3.08219391958180       -0.02482226334641
H           -2.84532448202482        2.10515962295295       -0.95365378304765
H           -2.89889262219377        2.08844823096138        0.81380848612688
H           -1.21759528347019       -3.18971381510850        0.83153924961936
H           -1.19338597086520       -3.17023203261674       -0.95715431652546
H           -2.59321725270447       -2.52174676927321       -0.07443989391871
H            1.34795968201334       -2.95491582804252       -0.01670720891811
25
 energy: 16.294117523673 xtb: 6.6.1 (8d0f1dd)
C            3.22401942743539        1.16081285808466        0.08841955404496
N            2.32522590204595        0.06335182987115        0.03441330964464
C            2.75836669232449       -1.27581141611465        0.06407192502997
N            1.49391304205820       -1.96068936677250        0.00044246645589
C            0.42862692653750       -1.09228898346651       -0.01136933713302
C            0.92963663449145        0.19507881909051        0.00876834627317
C            0.10441816489228        1.36209398893800       -0.00423094398625
O            0.46136698333754        2.54091885623330       -0.00220439413886
N           -1.28757330644309        1.04446255900549       -0.03034555097011
C           -2.24167829003151        2.15175712558932       -0.05114974984447
C           -1.83404053188630       -0.19926134524689       -0.04754322600334
O           -3.03332559448659       -0.39071047554920       -0.07621729657355
N           -0.93624160977655       -1.30308532952773       -0.03918615621012
C           -1.51345520174014       -2.62892831709597       -0.06012596716422
H            3.69245481520507        1.20721179325834        1.07465509277694
H            3.98979148947464        1.01676319440737       -0.67461393414090
H            2.67040965866199        2.07989021180457       -0.09426075242753
H            4.00783523952928       -1.55281184654522        0.03944822916310
H           -1.68424692755450        3.08532351391648       -0.02652227359556
H           -2.85260841776586        2.11204165792101       -0.95363292352251
H           -2.90510349789290        2.09587815606268        0.81203841967292
H           -1.22609036512776       -3.18981560231921        0.83125111775142
H           -1.20257778029375       -3.16654529395015       -0.95771057230521
H           -2.59990650990720       -2.51374587214673       -0.07273679437874
H            1.33761284150187       -2.95567779994116       -0.02356004166135
25
 energy: 45.928559221770 xtb: 6.6.1 (8d0f1dd)
C            3.20828787824593        1.14502525870992        0.08854557777399
N            2.29076225367731        0.04099403418679        0.05352842821426
C            2.63420854400679       -1.25486794421911        0.13485722559786
N            1.43884866687207       -1.94343396940513        0.00591376006190
C            0.38111243184909       -1.07474197979903       -0.02820133674206
C            0.90675011172707        0.20051396008218       -0.00920090494814
C            0.08362637812811        1.37812859775395       -0.01831546911463
O            0.44639212740680        2.54081609823758       -0.00448081514300
N           -1.29359186038980        1.05297408466205       -0.03172708499435
C           -2.24924283097765        2.15721819212139       -0.04865903892736
C           -1.85215958519047       -0.19979105350621       -0.05063944020499
O           -3.04948365704153       -0.37612595048286       -0.07328076472375
N           -0.96902922935426       -1.29367997851821       -0.04662863228566
C           -1.52882803329304       -2.62685141264757       -0.06312378236039
H            3.68626490781818        1.18962727675503        1.06646666176676
H            3.97258182374801        1.00020515072350       -0.67551498502358
H            2.66473512206016        2.07293728032555       -0.08874673507153
H            4.46877342633394       -1.60243296973989        0.00633126602278
H           -1.69017363073349        3.08945031378797       -0.02323232728837
H           -2.85825330644354        2.11661857623381       -0.95161240191720
H           -2.91088061395418        2.09832081278645        0.81474764589017
H           -1.23698974801115       -3.18329525899350        0.82953397596644
H           -1.21159083946516       -3.16505220499465       -0.95783716816070
H           -2.61416359596195       -2.51397072675211       -0.07691484237140
H            1.31685831431201       -2.94481743409204       -0.01517611685072
25
 energy: 46.271042506001 xtb: 6.6.1 (8d0f1dd)
C            3.20223047278889        1.14061004750278        0.08839466876595
N            2.27833788987982        0.03848913509521        0.05702619044700
C            2.61665510498543       -1.25331522048937        0.12505516576610
N            1.42211695646644       -1.93876137945803        0.01167208898881
C            0.36672180293706       -1.06935295224488       -0.02450810550365
C            0.89705195699276        0.20334101137736       -0.00562202347202
C            0.07556323777671        1.38494517799883       -0.01717565365157
O            0.43906382277577        2.54366506837948       -0.00478978914741
N           -1.29701726609137        1.05770394690040       -0.03303145523191
C           -2.25415031288840        2.15974057341780       -0.04939189797150
C           -1.85926202667381       -0.19825860577887       -0.05069252229726
O           -3.05648196651077       -0.37005384212700       -0.07219092572286
N           -0.97983846370627       -1.28995522450286       -0.04670280784768
C           -1.53856993438757       -2.62365854446819       -0.06297874970559
H            3.67956180436979        1.18735563283745        1.06619218515321
H            3.96959312332252        0.99148426597698       -0.67107064568096
H            2.66387211691797        2.07049370174701       -0.09504205758397
H            4.60894761210648       -1.61915166431697        0.00651460293834
H           -1.69536152754582        3.09231205766394       -0.02436775948716
H           -2.86342071222109        2.11649998291106       -0.95177720130188
H           -2.91526785685628        2.09859699053504        0.81421976780255
H           -1.24755255872615       -3.18138335831979        0.82931275094029
H           -1.22299029926923       -3.16303175459541       -0.95772060420243
H           -2.62304725865461       -2.50518684130078       -0.07616687284996
H            1.30558395792138       -2.93987112714375       -0.01402949863846
25
 energy: 46.732410076638 xtb: 6.6.1 (8d0f1dd)
C            3.19721758358899        1.13510740790066        0.08799492722258
N            2.26613436144303        0.03797255263992        0.05506205435343
C            2.59890288873079       -1.25259735189484        0.12126341809900
N            1.40585490277441       -1.93544234582639        0.01309701320601
C            0.35355170006321       -1.06465133944230       -0.02626284341648
C            0.88650156020357        0.20699064683628       -0.00800729914083
C            0.06696419427873        1.38997229573917       -0.01705254637865
O            0.43064061370676        2.54741538786169       -0.00467892382260
N           -1.30411547318273        1.06140781695260       -0.03408732959715
C           -2.26013048513526        2.16372218840159       -0.05014868186915
C           -1.86779653745373       -0.19558549788482       -0.05057316850486
O           -3.06523249681909       -0.36519664374951       -0.06933350962442
N           -0.99060478674248       -1.28689352946046       -0.04770550435672
C           -1.54681145743690       -2.62124708834009       -0.06246677328136
H            3.67611476563455        1.17507392942593        1.06507260266618
H            3.96526402008588        0.98690609241013       -0.67056381873628
H            2.66447796446071        2.06849560823226       -0.09403788291500
H            4.73182469061567       -1.63045245705641       -0.00116468495192
H           -1.69976647670289        3.09556809672049       -0.02509157699765
H           -2.86933481180337        2.11962592569725       -0.95252145076520
H           -2.92234601370387        2.10225697890355        0.81274986712851
H           -1.25492168852324       -3.17976316241940        0.82941817895956
H           -1.23214485691439       -3.16168112910001       -0.95714548239854
H           -2.63066662955241       -2.49960083184054       -0.07441060274932
H            1.29304666081483       -2.93617390700873       -0.00383179420215
25
 energy: 47.668254384841 xtb: 6.6.1 (8d0f1dd)
C            3.19159091813975        1.13000755075176        0.08856173921080
N            2.25301259351578        0.03830253963894        0.05769589940175
C            2.57704581689051       -1.25191286411808        0.12407636977077
N            1.38738202761553       -1.93298772563141        0.01470696698151
C            0.33971872433358       -1.05996161903922       -0.02715115068849
C            0.87557702374356        0.21047352999167       -0.00986599397040
C            0.05885712417692        1.39291879110837       -0.01881397023899
O            0.42494742052746        2.54876983905370       -0.00483552506794
N           -1.31096623650198        1.06478783334646       -0.03494336805342
C           -2.26510291176912        2.16740203299208       -0.04943942017229
C           -1.87617240781382       -0.19246445661936       -0.05116196151462
O           -3.07379746090102       -0.35979138580742       -0.06881679767799
N           -1.00185680702110       -1.28377591432819       -0.04858867622988
C           -1.55649214465630       -2.61826439746810       -0.06324082995728
H            3.67209362925351        1.17097134226559        1.06480054443067
H            3.95950776295409        0.97842748711581       -0.66921321790360
H            2.66342854071061        2.06499562538005       -0.09613092637605
H            4.85691208416157       -1.64488577638695       -0.00832542340390
H           -1.70305586770250        3.09846303887227       -0.02483424338357
H           -2.87486900622317        2.12240064560280       -0.95154203606399
H           -2.92644817104851        2.10531414424945        0.81411305513371
H           -1.26667997571195       -3.17771022689854        0.82909211460184
H           -1.24183707284932       -3.16035838610529       -0.95729349565427
H           -2.63961532293291       -2.49228858940465       -0.07643265298385
H            1.27524731778689       -2.93390659951292       -0.00143496536266
25
 energy: 48.904294270523 xtb: 6.6.1 (8d0f1dd)
C            3.18641381122431        1.12535774263060        0.08945569743952
N            2.24123834929258        0.03915917892567        0.05935571855350
C            2.55977981728542       -1.25111178487457        0.12912169354815
N            1.37107656577871       -1.92961120042679        0.01612775590511
C            0.32705984553008       -1.05491385570683       -0.02922243924220
C            0.86560714232959        0.21474156649715       -0.01331469912798
C            0.05135503925160        1.39738497140652       -0.02320257237098
O            0.41751624521936        2.55370318327845       -0.00622047799221
N           -1.31693733851765        1.06908659400000       -0.03585625763179
C           -2.26917215168041        2.17225491023712       -0.04913486690877
C           -1.88417663669399       -0.18850035760880       -0.05254430387639
O           -3.08203577373942       -0.35366331889173       -0.06916334587498
N           -1.01260393467889       -1.28049695051933       -0.05061290122749
C           -1.56583346216827       -2.61577370897065       -0.06365804268264
H            3.66823415032617        1.16409883523044        1.06521179318017
H            3.95299101089433        0.97120001223333       -0.66935556934527
H            2.66239832004968        2.06204562191509       -0.09433619522243
H            4.98873606190341       -1.66098464674186       -0.01648776033025
H           -1.70550332068198        3.10225792058364       -0.02419128153581
H           -2.87964319673325        2.12781492185431       -0.95070272882084
H           -2.92942140635446        2.11019541674069        0.81540474332520
H           -1.27668789146365       -3.17568183651846        0.82894617444045
H           -1.25176805277452       -3.15963231621672       -0.95714756015614
H           -2.64890917586464       -2.48957646571654       -0.07680234261108
H            1.26112224082471       -2.93112460796020        0.00123100213678
25
 energy: 50.122146718765 xtb: 6.6.1 (8d0f1dd)
C            3.18177096409458        1.12091723722422        0.08909376035710
N            2.23505045869846        0.03605538068487        0.05776172422115
C            2.55775606846736       -1.25811453424163        0.13880104859739
N            1.36212834343714       -1.92792914904339        0.01828405409351
C            0.31843618259802       -1.05272582828132       -0.03210891940906
C            0.85956915028731        0.21614250974420       -0.01743661022721
C            0.04526716790307        1.39910229210681       -0.02215024482331
O            0.41046553253132        2.55696947157472       -0.00399697858458
N           -1.32287608496632        1.07166959713926       -0.03550586666305
C           -2.27326310180755        2.17632085552316       -0.04851710484159
C           -1.89192277277952       -0.18525227422740       -0.05298861089227
O           -3.08990318365720       -0.34902805208197       -0.06882367308493
N           -1.02137142918186       -1.27828098513381       -0.05277728420521
C           -1.57322052133428       -2.61512270330712       -0.06385593990103
H            3.66209013279080        1.15833145926140        1.06588939322972
H            3.94915903817188        0.96426107191669       -0.66893559862027
H            2.65924951912380        2.05804306360389       -0.09591313725356
H            5.12412779811535       -1.67892691335803       -0.02286526523131
H           -1.70833868713200        3.10573663824705       -0.02274931556650
H           -2.88190058985600        2.13290299823755       -0.95133195199134
H           -2.93384010422201        2.11528102979906        0.81584935823182
H           -1.28454269448882       -3.17483568193565        0.82892177942427
H           -1.26006811330004       -3.15886820331811       -0.95750698429825
H           -2.65619864445406       -2.49614617649204       -0.07621415134441
H            1.26155819010443       -2.93009916092424        0.00787893128144
25
 energy: 50.957803202149 xtb: 6.6.1 (8d0f1dd)
C            3.17684496171252        1.11787549247227        0.09024586834190
N            2.22390972153729        0.03847580147651        0.06099534227230
C            2.54139974970187       -1.25721615118975        0.12566068903087
N            1.34848270737172       -1.92532145796862        0.01584098396798
C            0.30675148204637       -1.04892342821694       -0.03282463600598
C            0.85091666530790        0.21840218988918       -0.01138805069110
C            0.03740948044137        1.39984495029380       -0.01910390341119
O            0.40634675021543        2.55746379897482       -0.00391650399428
N           -1.33092221569345        1.07412901241076       -0.03632388653878
C           -2.27858091236629        2.18039008003980       -0.04729789697312
C           -1.90086503812619       -0.18225240999786       -0.05382465942808
O           -3.09922565575696       -0.34505240893558       -0.06847159344631
N           -1.03210012156455       -1.27563739433811       -0.05384323960075
C           -1.58163267270204       -2.61471458550613       -0.06425353890672
H            3.66047270412632        1.15450942598686        1.06589885118492
H            3.94179024311358        0.95748258629583       -0.67013663396808
H            2.65826880844752        2.05733376813550       -0.09172231009816
H            5.26101639394476       -1.69781103045900       -0.02436199610443
H           -1.70978575187402        3.10755139875587       -0.02162633978684
H           -2.88805228631170        2.13924991949084       -0.94972415681001
H           -2.93781982623032        2.12003907728979        0.81840112493077
H           -1.29069715109131       -3.17201689914044        0.82892177509588
H           -1.26697596530042       -3.15751977046882       -0.95751390807105
H           -2.66534724928114       -2.50116861205072       -0.07601651392106
H            1.27012606857539       -2.92868445173800        0.01057231286709
25
 energy: 51.572642322981 xtb: 6.6.1 (8d0f1dd)
C            3.17527307954953        1.11752616016499        0.09131535334340
N            2.22007634737133        0.04099835399371        0.05903102314802
C            2.53382297404586       -1.25767082109973        0.09817074421776
N            1.33884573587341       -1.92358687630226        0.01558803063872
C            0.29937989526010       -1.04463271095402       -0.02888289987112
C            0.84736377510815        0.21984478440634       -0.00238027916343
C            0.03327070965991        1.39943802193338       -0.01382642203378
O            0.41021919531646        2.55478746364799       -0.00331003817074
N           -1.33424038571234        1.07550737594244       -0.03591156871888
C           -2.27981169427932        2.18237919689433       -0.04793838089709
C           -1.90568832190894       -0.18061241296884       -0.05310442207739
O           -3.10495699522730       -0.34061138831481       -0.06816115336834
N           -1.03963621603685       -1.27277029425705       -0.05188007587297
C           -1.58716826021443       -2.61354944448191       -0.06372983703941
H            3.66399597382713        1.15578950397399        1.06526210272335
H            3.93805285233793        0.95654829355487       -0.67078888391193
H            2.65924181889648        2.05831426834968       -0.09159278914396
H            5.39848114319932       -1.72001538729417       -0.02445501297724
H           -1.70734820792779        3.10721127454758       -0.02296717035953
H           -2.88870065283502        2.14024260477605       -0.95052583452117
H           -2.93840509701056        2.12090013443631        0.81734168395572
H           -1.29165462784527       -3.16634532333862        0.82982057661677
H           -1.26874102633140       -3.15315357920097       -0.95681529618910
H           -2.67131382688954       -2.50960332876591       -0.07621475640410
H            1.27367613372242       -2.92754169065590        0.00563213170291
25