72
 energy: -99.373468176573 gnorm: 0.002105903420 xtb: 6.6.1 (8d0f1dd)
N           -0.70228436259101        2.01593571573018        1.49182478030198
C           -1.68492050618253        1.88796207119171        0.91713869165668
C           -2.90766609987868        1.75398410409413        0.15290274521715
C           -3.45530346598438        0.33986458857930        0.27716106166737
C           -4.51215623349890       -0.06734317117757       -0.53832838872234
C           -5.03599011543819       -1.34628106457362       -0.44728576606958
O           -6.04720056141046       -1.83218796378243       -1.19474537749612
C           -6.68270091146333       -0.99416354214213       -2.13095110473931
C           -4.49232156698396       -2.26205159703960        0.49526912945346
O           -5.05854615798259       -3.48414125384276        0.50446422709539
C           -4.60609541928815       -4.44216679826283        1.43297541258368
C           -3.45283413524810       -1.84325563425400        1.30958723112541
C           -2.93972975192732       -0.55635551076143        1.20019312417566
C           -2.54594475053277        2.08174753089639       -1.31536949943264
C           -1.63491826085698        1.01411952657657       -1.94807543900942
C           -0.30917545561066        0.98940656730253       -1.29591202541957
N            0.28795865601138       -0.06571234029006       -0.78414065678222
C            1.61334264686000        0.06037548161071       -0.22269550143999
C            2.68439438180026       -0.35003902334252       -1.25099023888153
C            4.06704296586782       -0.10691630081610       -0.71520097825996
C            4.63667788859396        1.15481703514100       -0.79289164950043
C            5.91579222168868        1.38767819845394       -0.31422090594817
C            6.65316626852360        0.35982422570314        0.25745429025300
O            7.90384889090650        0.46315869136265        0.73959817360173
C            8.57407353666663        1.70027761667428        0.66003387491915
C            6.07159719029672       -0.93561396362649        0.35439818595210
O            6.85622463554758       -1.87202387043892        0.92051137708500
C            6.38176810777517       -3.19188793614230        1.04089540700357
C            4.78878113901951       -1.14305098250400       -0.12939458632755
C           -0.28302508449114       -1.38836867757871       -0.84515683664003
C           -3.95260938206320        2.76646249141828        0.71793837289860
C           -4.30683719589891        2.40811862970128        2.16049434490349
C           -3.45784497280231        4.20991251035422        0.64976268570501
H           -4.93791548156684        0.62684880138754       -1.24410440113069
H           -7.14178042295989       -0.12661047641237       -1.64733014590122
H           -7.46029834572200       -1.60407725204934       -2.58647885951568
H           -5.98766900784607       -0.65815090219324       -2.90739912088652
H           -4.73957291611267       -4.09766128503869        2.46258672054532
H           -5.22110315346299       -5.32404468941607        1.26526194411467
H           -3.55462159623493       -4.69665134911655        1.26555680376287
H           -3.03244819042882       -2.50902518188162        2.04538503427421
H           -2.14063354350283       -0.25685978864182        1.86130985549490
H           -3.46014997365945        2.16300184952556       -1.90286419618910
H           -2.03579005640941        3.04478467249196       -1.35145986048091
H           -2.12435125932055        0.04147852478118       -1.91604807617908
H           -1.49699817668828        1.29152506869630       -2.99959331767712
H            0.22145925853628        1.92672874846282       -1.22441198063381
H            0.81598502064131        4.24383913492471       -1.09007840938569
H            1.68609425762604       -0.57111427869746        0.66481898948447
H            1.77627282422913        1.09423251093176        0.08430188179079
H            2.53526846439157        0.24099337226811       -2.15690323603749
H            2.56324129933674       -1.40398395576413       -1.50440981075774
H            4.08755752285568        1.96732479060973       -1.24376851226021
H            6.33545829405986        2.37656930488228       -0.39873236419481
H            8.05051106616511        2.47707887986587        1.22512925033715
H            8.69611439086437        2.02229408776198       -0.37847594875516
H            9.55351540382815        1.52987008283477        1.10272234348508
H            7.19331093775127       -3.75268305892063        1.50042482536507
H            5.49750635341804       -3.24280124575920        1.68401697260478
H            6.15042904340562       -3.62615349926973        0.06326367874299
H            4.34337830722709       -2.12365502877655       -0.06863863667239
H           -0.41625070875886       -1.71254223895155       -1.87864318307336
H           -1.25289610990590       -1.40987348242588       -0.34196088280063
H            0.37939344526982       -2.08909731803389       -0.34458076033914
H           -4.85454713131046        2.67366150637923        0.10377643955635
H           -3.42225306702671        2.45001050155685        2.79288255152294
H           -4.73334410846028        1.40967039984874        2.22608755448545
H           -5.03561899381634        3.11532967304975        2.54733508945874
H           -2.50830322047102        4.31809029017836        1.17009980933978
H           -3.33959554623266        4.55294006614802       -0.37487571167527
H           -4.18227315406179        4.86060128094014        1.13294630846624
H            0.73286973194621        4.13016565205850       -0.32312795663634
