72
 energy: -99.347163669666 gnorm: 0.002914159171 xtb: 6.6.1 (8d0f1dd)
N           -1.94807247523246        3.04572288408283        1.87363699455122
C           -2.05842458527517        2.22694575980142        0.93445804385797
C           -3.32619115868612        2.00854075507508        0.15207014895858
C           -3.74207955772904        0.55132267400212        0.25515585692135
C           -4.72304595258600        0.04368860676550       -0.59798409820830
C           -5.14552283107291       -1.27338069746771       -0.51300580624804
O           -6.08224019445161       -1.84400878449835       -1.29673771417833
C           -6.74719188096222       -1.06259547499780       -2.26126124697015
C           -4.57162059429573       -2.13094039879644        0.46607865802318
O           -5.03922138753555       -3.39376959816511        0.47522962011640
C           -4.56690599560793       -4.29378941594526        1.45058139067430
C           -3.60623334000382       -1.61577494169641        1.31804461420717
C           -3.20042283051604       -0.29327478576218        1.21404902917010
C           -2.98440648630080        2.37714096575318       -1.31876502046912
C           -2.14720541857184        1.33859515610985       -2.07405549381762
C           -0.70593183998341        1.30772378683657       -1.65522460824169
N            0.03281822147308        0.33169669077366       -1.36980285166630
C            3.11351505231362       -0.26526624821639        0.31620927810283
C            3.33180518612395       -0.70479751139151       -1.07277896459084
C            4.55327549370671       -0.27293910353135       -0.23487606653127
C            5.17470707702261        0.99887772170617       -0.53658711740247
C            6.51414538608561        1.19385931615960       -0.37391639379431
C            7.35262198983771        0.16582949881151        0.08886358293745
O            8.66610998713135        0.26048192895841        0.27897355833834
C            9.33760209145491        1.47358239652480        0.01391022420955
C            6.78263639483308       -1.12022565833151        0.39013972403584
O            7.67615872312091       -2.03823258469765        0.80983582578171
C            7.23035142443527       -3.35023713175857        1.06880911218583
C            5.44236742988688       -1.32263028400362        0.23763911710136
C           -0.39369646963410       -1.03282538374113       -1.32581115929592
C           -4.51752391056885        2.87860670047388        0.65233050514889
C           -4.89929945172496        2.52717771440962        2.08847399710553
C           -4.26109713263437        4.37899100695836        0.54146701970746
H           -5.16765937596831        0.69074336271656       -1.33604222948837
H           -7.27767485139555       -0.22316641334670       -1.80174496098347
H           -7.46767359922618       -1.72964724747177       -2.73050871771126
H           -6.05470096512734       -0.68744746975866       -3.02162109994219
H           -4.79184457034224       -3.94161419035490        2.46177683180897
H           -5.09584326432943       -5.22709371425497        1.26723151896472
H           -3.48972742456621       -4.46231262288147        1.35320645189429
H           -3.16515145979515       -2.23776770926892        2.07976599617710
H           -2.46373920589381        0.07784558000278        1.90914962667294
H           -3.91904006491036        2.52201875413345       -1.86172603185196
H           -2.45385833697077        3.33100751272486       -1.32210752722029
H           -2.59630054687150        0.34884629333803       -1.99115599896121
H           -2.14348758765380        1.61685055105892       -3.13278306166034
H           -1.22248598714977        1.61841830578511        0.56007911044275
H           -0.21665684338341        2.28023333080449       -1.64305751220417
H            2.89299935275473       -0.99913606760192        1.07539710956129
H            2.66725303126104        0.70100161624890        0.48389256650358
H            3.03605870004107       -0.04687144743272       -1.87384866946662
H            3.26711156040808       -1.75485122250272       -1.31079646152367
H            4.54585071192197        1.79759786028174       -0.89714470838734
H            6.93895035451036        2.15684266417009       -0.60900419374745
H            8.94099251248164        2.29174802957631        0.62161958628980
H            9.27602977345408        1.73806715261730       -1.04597438592698
H           10.37772829567585        1.29433555447446        0.28239795317259
H            8.12585381110307       -3.92039069779441        1.31066068236435
H            6.54005987861790       -3.37845828415018        1.91885026504544
H            6.74787482750433       -3.78567081379656        0.18882814029901
H            4.99480850202666       -2.27618787815675        0.46526113378087
H           -0.24163769952274       -1.48809853031473       -2.30681916306846
H           -1.44137840483223       -1.16485274762889       -1.03528095364940
H            0.24524463759654       -1.54972534747633       -0.60997034806686
H           -5.37068380323315        2.63149230634864        0.00888970796256
H           -4.08419272325945        2.77628391782858        2.76134798265820
H           -5.12969166292109        1.46879252822987        2.18766886536222
H           -5.77631808958786        3.09728621384882        2.38367678497599
H           -3.39164641376420        4.65463493592499        1.13063415230573
H           -4.11118250160757        4.69118715132443       -0.48839963405171
H           -5.12158231304079        4.91678330525923        0.93110800836225
H           -1.03792362101120        3.14131943983251        2.31265826620590
