      -----------------------------------------------------------      
     |                   =====================                   |     
     |                           x T B                           |     
     |                   =====================                   |     
     |                         S. Grimme                         |     
     |          Mulliken Center for Theoretical Chemistry        |     
     |                    University of Bonn                     |     
      -----------------------------------------------------------      

   * xtb version 6.6.1 (8d0f1dd) compiled by 'conda@1efc2f54142f' on 2023-08-01

   xtb is free software: you can redistribute it and/or modify it under
   the terms of the GNU Lesser General Public License as published by
   the Free Software Foundation, either version 3 of the License, or
   (at your option) any later version.
   
   xtb is distributed in the hope that it will be useful,
   but WITHOUT ANY WARRANTY; without even the implied warranty of
   MERCHANTABILITY or FITNESS FOR A PARTICULAR PURPOSE.  See the
   GNU Lesser General Public License for more details.
   
   Cite this work as:
   * C. Bannwarth, E. Caldeweyher, S. Ehlert, A. Hansen, P. Pracht,
     J. Seibert, S. Spicher, S. Grimme, WIREs Comput. Mol. Sci., 2020, 11,
     e01493. DOI: 10.1002/wcms.1493
   
   for GFN2-xTB:
   * C. Bannwarth, S. Ehlert and S. Grimme., J. Chem. Theory Comput., 2019,
     15, 1652-1671. DOI: 10.1021/acs.jctc.8b01176
   for GFN1-xTB:
   * S. Grimme, C. Bannwarth, P. Shushkov, J. Chem. Theory Comput., 2017,
     13, 1989-2009. DOI: 10.1021/acs.jctc.7b00118
   for GFN0-xTB:
   * P. Pracht, E. Caldeweyher, S. Ehlert, S. Grimme, ChemRxiv, 2019, preprint.
     DOI: 10.26434/chemrxiv.8326202.v1
   for GFN-FF:
   * S. Spicher and S. Grimme, Angew. Chem. Int. Ed., 2020, 59, 15665-15673.
     DOI: 10.1002/anie.202004239
   
   for ALPB and GBSA implicit solvation:
   * S. Ehlert, M. Stahn, S. Spicher, S. Grimme, J. Chem. Theory Comput.,
     2021, 17, 4250-4261. DOI: 10.1021/acs.jctc.1c00471
   
   for DFT-D4:
   * E. Caldeweyher, C. Bannwarth and S. Grimme, J. Chem. Phys., 2017,
     147, 034112. DOI: 10.1063/1.4993215
   * E. Caldeweyher, S. Ehlert, A. Hansen, H. Neugebauer, S. Spicher,
     C. Bannwarth and S. Grimme, J. Chem. Phys., 2019, 150, 154122.
     DOI: 10.1063/1.5090222
   * E. Caldeweyher, J.-M. Mewes, S. Ehlert and S. Grimme, Phys. Chem. Chem. Phys.
     2020, 22, 8499-8512. DOI: 10.1039/D0CP00502A
   
   for sTDA-xTB:
   * S. Grimme and C. Bannwarth, J. Chem. Phys., 2016, 145, 054103.
     DOI: 10.1063/1.4959605
   
   in the mass-spec context:
   * V. Asgeirsson, C. Bauer and S. Grimme, Chem. Sci., 2017, 8, 4879.
     DOI: 10.1039/c7sc00601b
   * J. Koopman and S. Grimme, ACS Omega 2019, 4, 12, 15120-15133.
     DOI: 10.1021/acsomega.9b02011
   
   for metadynamics refer to:
   * S. Grimme, J. Chem. Theory Comput., 2019, 155, 2847-2862
     DOI: 10.1021/acs.jctc.9b00143
   
   for SPH calculations refer to:
   * S. Spicher and S. Grimme, J. Chem. Theory Comput., 2021, 17, 1701-1714
     DOI: 10.1021/acs.jctc.0c01306
   
   with help from (in alphabetical order)
   P. Atkinson, C. Bannwarth, F. Bohle, G. Brandenburg, E. Caldeweyher
   M. Checinski, S. Dohm, S. Ehlert, S. Ehrlich, I. Gerasimov, C. Hölzer
   A. Katbashev, J. Koopman, C. Lavigne, S. Lehtola, F. März, M. Müller,
   F. Musil, H. Neugebauer, J. Pisarek, C. Plett, P. Pracht, F. Pultar,
   J. Seibert, P. Shushkov, S. Spicher, M. Stahn, M. Steiner, T. Strunk,
   J. Stückrath, T. Rose, and J. Unsleber
   
 * started run on 2024/06/05 at 19:58:08.572     

           -------------------------------------------------
          |                Calculation Setup                |
           -------------------------------------------------

          program call               : xtb struc.xyz --opt loose --input .xc1 --gfn2
          hostname                   : n-62-21-71
          coordinate file            : struc.xyz
          omp threads                :                     1

   ID    Z sym.   atoms
    1    6 C      1, 3, 5-7, 10, 11, 14
    2    7 N      2, 4, 9, 13
    3    8 O      8, 12
    4    1 H      15-25
constraining bond 3 15 to    3.7133300 Å, actual value:    2.8727362 Å

           -------------------------------------------------
          |                 G F N 2 - x T B                 |
           -------------------------------------------------

        Reference                      10.1021/acs.jctc.8b01176
      * Hamiltonian:
        H0-scaling (s, p, d)           1.850000    2.230000    2.230000
        zeta-weighting                 0.500000
      * Dispersion:
        s8                             2.700000
        a1                             0.520000
        a2                             5.000000
        s9                             5.000000
      * Repulsion:
        kExp                           1.500000    1.000000
        rExp                           1.000000
      * Coulomb:
        alpha                          2.000000
        third order                    shell-resolved
        anisotropic                    true
        a3                             3.000000
        a5                             4.000000
        cn-shift                       1.200000
        cn-exp                         4.000000
        max-rad                        5.000000


          ...................................................
          :                      SETUP                      :
          :.................................................:
          :  # basis functions                  67          :
          :  # atomic orbitals                  67          :
          :  # shells                           39          :
          :  # electrons                        74          :
          :  max. iterations                   250          :
          :  Hamiltonian                  GFN2-xTB          :
          :  restarted?                      false          :
          :  GBSA solvation                  false          :
          :  PC potential                    false          :
          :  electronic temp.         2500.0000000     K    :
          :  accuracy                    1.0000000          :
          :  -> integral cutoff          0.2500000E+02      :
          :  -> integral neglect         0.1000000E-07      :
          :  -> SCF convergence          0.1000000E-05 Eh   :
          :  -> wf. convergence          0.1000000E-03 e    :
          :  Broyden damping             0.4000000          :
          ...................................................

 iter      E             dE          RMSdq      gap      omega  full diag
   1    -42.5894761 -0.425895E+02  0.446E+00    3.52       0.0  T
   2    -42.7660496 -0.176573E+00  0.253E+00    3.37       1.0  T
   3    -42.7736311 -0.758158E-02  0.147E+00    3.27       1.0  T
   4    -42.7712089  0.242228E-02  0.522E-01    3.20       1.0  T
   5    -42.7763755 -0.516665E-02  0.115E-01    3.24       1.0  T
   6    -42.7764786 -0.103096E-03  0.599E-02    3.22       1.0  T
   7    -42.7764977 -0.190557E-04  0.265E-02    3.24       1.0  T
   8    -42.7765022 -0.458752E-05  0.826E-03    3.24       2.4  T
   9    -42.7765028 -0.511866E-06  0.435E-03    3.24       4.6  T
  10    -42.7765028 -0.741126E-07  0.110E-03    3.24      18.2  T
  11    -42.7765028 -0.615289E-08  0.514E-04    3.24      38.9  T
  12    -42.7765028 -0.131732E-08  0.162E-04    3.24     123.6  T

   *** convergence criteria satisfied after 12 iterations ***

         #    Occupation            Energy/Eh            Energy/eV
      -------------------------------------------------------------
         1        2.0000           -0.9218663             -25.0853
       ...           ...                  ...                  ...
        31        2.0000           -0.6245728             -16.9955
        32        2.0000           -0.6188521             -16.8398
        33        2.0000           -0.5946289             -16.1807
        34        1.9999           -0.5766508             -15.6915
        35        1.9996           -0.5616187             -15.2824
        36        1.9994           -0.5584494             -15.1962
        37        1.9993           -0.5575820             -15.1726 (HOMO)
        38        0.0017           -0.4385664             -11.9340 (LUMO)
        39        0.0000           -0.4059970             -11.0477
        40        0.0000           -0.3720875             -10.1250
        41                         -0.2883077              -7.8453
        42                         -0.2064013              -5.6165
       ...                                ...                  ...
        67                          0.5638960              15.3444
      -------------------------------------------------------------
                  HL-Gap            0.1190156 Eh            3.2386 eV
             Fermi-level           -0.4943591 Eh          -13.4522 eV

 SCC (total)                   0 d,  0 h,  0 min,  0.061 sec
 SCC setup                      ...        0 min,  0.000 sec (  0.395%)
 Dispersion                     ...        0 min,  0.000 sec (  0.482%)
 classical contributions        ...        0 min,  0.000 sec (  0.127%)
 integral evaluation            ...        0 min,  0.005 sec (  8.650%)
 iterations                     ...        0 min,  0.030 sec ( 50.136%)
 molecular gradient             ...        0 min,  0.024 sec ( 39.923%)
 printout                       ...        0 min,  0.000 sec (  0.264%)

         :::::::::::::::::::::::::::::::::::::::::::::::::::::
         ::                     SUMMARY                     ::
         :::::::::::::::::::::::::::::::::::::::::::::::::::::
         :: total energy             -43.506936729583 Eh    ::
         :: gradient norm              2.246440042352 Eh/a0 ::
         :: HOMO-LUMO gap              3.238579380711 eV    ::
         ::.................................................::
         :: SCC energy               -42.776502838750 Eh    ::
         :: -> isotropic ES            0.143394945287 Eh    ::
         :: -> anisotropic ES         -0.005231236584 Eh    ::
         :: -> anisotropic XC          0.012162721064 Eh    ::
         :: -> dispersion             -0.022660936007 Eh    ::
         :: repulsion energy           0.531105277918 Eh    ::
         :: add. restraining          -1.261653327761 Eh    ::
         :: total charge               1.000000000000 e     ::
         :::::::::::::::::::::::::::::::::::::::::::::::::::::

      ----------------------------------------------------------- 
     |                   =====================                   |
     |                        A N C O P T                        |
     |                   =====================                   |
     |               Approximate Normal Coordinate               |
     |                Rational Function Optimizer                |
      ----------------------------------------------------------- 

          ...................................................
          :                      SETUP                      :
          :.................................................:
          :   optimization level             loose          :
          :   max. optcycles                   200          :
          :   ANC micro-cycles                  20          :
          :   degrees of freedom                69          :
          :.................................................:
          :   RF solver                   davidson          :
          :   write xtbopt.log                true          :
          :   linear?                        false          :
          :   energy convergence         0.5000000E-04 Eh   :
          :   grad. convergence          0.4000000E-02 Eh/α :
          :   maxmium RF displ.          1.0000000          :
          :   Hlow (freq-cutoff)         0.1000000E-01      :
          :   Hmax (freq-cutoff)         5.0000000          :
          :   S6 in model hess.         20.0000000          :
          ...................................................

generating ANC from model Hessian ...
Using Lindh-Hessian (1995)
 Shifting diagonal of input Hessian by    1.5706101125878773     
 Lowest  eigenvalues of input Hessian
    0.010000    0.000000    0.000000    0.000000    0.000000    0.000000
    0.000000    1.575225    1.576195    1.579503    1.580442    1.581983
    1.582957    1.585721    1.590585    1.594772    1.605673    1.611541
 Highest eigenvalues
    3.618820    3.704100    3.820042    3.886287    3.983043    4.112605


........................................................................
.............................. CYCLE    1 ..............................
........................................................................

 iter      E             dE          RMSdq      gap      omega  full diag
   1    -42.7765028 -0.427765E+02  0.540E-05    3.24       0.0  T
   2    -42.7765028 -0.643041E-11  0.289E-05    3.24     692.1  T
   3    -42.7765028  0.881073E-12  0.138E-05    3.24    1448.6  T
     SCC iter.                  ...        0 min,  0.005 sec
     gradient                   ...        0 min,  0.025 sec
 * total energy  :   -43.5069367 Eh     change       -0.6633627E-10 Eh
   gradient norm :     2.2464393 Eh/α   predicted     0.0000000E+00 (-100.00%)
   displ. norm   :     0.9889433 α      lambda       -0.2195513E+01
   maximum displ.:     0.9822811 α      in ANC's #1, #64, #51, ...

........................................................................
.............................. CYCLE    2 ..............................
........................................................................

 iter      E             dE          RMSdq      gap      omega  full diag
   1    -42.7270818 -0.427271E+02  0.130E+00    3.72       0.0  T
   2    -42.7410365 -0.139547E-01  0.683E-01    3.49       1.0  T
   3    -42.7420170 -0.980496E-03  0.379E-01    3.59       1.0  T
   4    -42.7420482 -0.311693E-04  0.144E-01    3.47       1.0  T
   5    -42.7424132 -0.365042E-03  0.269E-02    3.52       1.0  T
   6    -42.7424193 -0.606632E-05  0.119E-02    3.52       1.7  T
   7    -42.7424196 -0.307299E-06  0.399E-03    3.52       5.0  T
   8    -42.7424198 -0.156273E-06  0.118E-03    3.52      17.0  T
   9    -42.7424198 -0.447083E-08  0.509E-04    3.52      39.3  T
  10    -42.7424198 -0.212336E-08  0.153E-04    3.52     130.7  T
     SCC iter.                  ...        0 min,  0.025 sec
     gradient                   ...        0 min,  0.020 sec
 * total energy  :   -46.5442482 Eh     change       -0.3037311E+01 Eh
   gradient norm :     3.9507625 Eh/α   predicted    -0.2171372E+01 ( -28.51%)
   displ. norm   :     0.9936938 α      lambda       -0.3910275E+01
   maximum displ.:     0.9870463 α      in ANC's #1, #64, #42, ...

........................................................................
.............................. CYCLE    3 ..............................
........................................................................

 iter      E             dE          RMSdq      gap      omega  full diag
   1    -42.5450369 -0.425450E+02  0.128E+00    3.14       0.0  T
   2    -42.5554123 -0.103754E-01  0.908E-01    2.95       1.0  T
   3    -42.5640312 -0.861884E-02  0.448E-01    3.14       1.0  T
   4    -42.5645242 -0.492992E-03  0.212E-01    2.97       1.0  T
   5    -42.5652690 -0.744790E-03  0.522E-02    3.03       1.0  T
   6    -42.5653050 -0.360765E-04  0.190E-02    3.03       1.1  T
   7    -42.5653068 -0.172609E-05  0.640E-03    3.03       3.1  T
   8    -42.5653070 -0.267136E-06  0.199E-03    3.03      10.1  T
   9    -42.5653070 -0.120223E-07  0.581E-04    3.03      34.4  T
  10    -42.5653070 -0.230967E-08  0.255E-04    3.03      78.4  T
     SCC iter.                  ...        0 min,  0.015 sec
     gradient                   ...        0 min,  0.014 sec
 * total energy  :   -51.3574130 Eh     change       -0.4813165E+01 Eh
   gradient norm :     5.8301941 Eh/α   predicted    -0.3885765E+01 ( -19.27%)
   displ. norm   :     0.9929969 α      lambda       -0.5770105E+01
   maximum displ.:     0.9813080 α      in ANC's #1, #64, #67, ...

........................................................................
.............................. CYCLE    4 ..............................
........................................................................

 iter      E             dE          RMSdq      gap      omega  full diag
   1    -42.3395824 -0.423396E+02  0.242E+00    1.08       0.0  T
   2    -42.3267527  0.128298E-01  0.188E+00    1.35       1.0  T
   3    -42.4201730 -0.934203E-01  0.849E-01    1.46       1.0  T
   4    -42.4239811 -0.380803E-02  0.418E-01    1.27       1.0  T
   5    -42.4267735 -0.279248E-02  0.115E-01    1.39       1.0  T
   6    -42.4270371 -0.263583E-03  0.799E-02    1.36       1.0  T
   7    -42.4271585 -0.121419E-03  0.214E-02    1.38       1.0  T
   8    -42.4271598 -0.128596E-05  0.988E-03    1.38       2.0  T
   9    -42.4271609 -0.105294E-05  0.249E-03    1.38       8.0  T
  10    -42.4271609 -0.724307E-07  0.129E-03    1.38      15.5  T
  11    -42.4271610 -0.180017E-07  0.450E-04    1.38      44.5  T
  12    -42.4271610 -0.202247E-08  0.156E-04    1.38     128.1  T
     SCC iter.                  ...        0 min,  0.017 sec
     gradient                   ...        0 min,  0.013 sec
 * total energy  :   -57.9024685 Eh     change       -0.6545055E+01 Eh
   gradient norm :     6.4271231 Eh/α   predicted    -0.5729899E+01 ( -12.45%)
   displ. norm   :     0.9914545 α      lambda       -0.6348224E+01
   maximum displ.:     0.9751710 α      in ANC's #1, #64, #65, ...

........................................................................
.............................. CYCLE    5 ..............................
........................................................................

 iter      E             dE          RMSdq      gap      omega  full diag
   1    -42.3927821 -0.423928E+02  0.162E+00    0.98       0.0  T
   2    -42.3812940  0.114881E-01  0.125E+00    1.12       1.0  T
   3    -42.4157970 -0.345030E-01  0.740E-01    1.09       1.0  T
   4    -42.4229426 -0.714563E-02  0.282E-01    1.08       1.0  T
   5    -42.4241388 -0.119620E-02  0.115E-01    1.08       1.0  T
   6    -42.4243308 -0.191960E-03  0.537E-02    1.10       1.0  T
   7    -42.4243906 -0.597899E-04  0.164E-02    1.09       1.2  T
   8    -42.4243921 -0.147038E-05  0.346E-03    1.09       5.8  T
   9    -42.4243921 -0.905987E-07  0.138E-03    1.09      14.5  T
  10    -42.4243922 -0.190880E-07  0.496E-04    1.09      40.3  T
  11    -42.4243922 -0.160000E-08  0.121E-04    1.09     164.8  T
     SCC iter.                  ...        0 min,  0.015 sec
     gradient                   ...        0 min,  0.013 sec
 * total energy  :   -31.7702187 Eh     change        0.2613225E+02 Eh
   gradient norm :   403.9271449 Eh/α   predicted    -0.6294233E+01 (-124.09%)
   displ. norm   :     0.9989841 α      lambda       -0.3989636E+03
   maximum displ.:     0.8287361 α      in ANC's #1, #46, #58, ...

........................................................................
.............................. CYCLE    6 ..............................
........................................................................

 iter      E             dE          RMSdq      gap      omega  full diag
   1    -42.2905433 -0.422905E+02  0.219E+00    0.28       0.0  T
   2    -42.2295424  0.610008E-01  0.173E+00    0.86       1.0  T
   3    -42.2055050  0.240375E-01  0.204E+00    0.44       1.0  T
   4    -42.3249091 -0.119404E+00  0.643E-01    0.56       1.0  T
   5    -42.3297513 -0.484224E-02  0.348E-01    0.49       1.0  T
   6    -42.3304438 -0.692514E-03  0.142E-01    0.54       1.0  T
   7    -42.3308068 -0.362962E-03  0.728E-02    0.52       1.0  T
   8    -42.3308622 -0.553866E-04  0.292E-02    0.52       1.0  T
   9    -42.3308686 -0.643622E-05  0.159E-02    0.52       1.3  T
  10    -42.3308729 -0.428098E-05  0.462E-03    0.52       4.3  T
  11    -42.3308731 -0.196362E-06  0.177E-03    0.52      11.3  T
  12    -42.3308731 -0.284779E-07  0.650E-04    0.52      30.8  T
  13    -42.3308731 -0.742141E-09  0.363E-04    0.52      55.1  T
     SCC iter.                  ...        0 min,  0.017 sec
     gradient                   ...        0 min,  0.013 sec
 * total energy  :   -56.6932483 Eh     change       -0.2492303E+02 Eh
   gradient norm :     7.0854203 Eh/α   predicted    -0.4031051E+03 (1517.40%)
   displ. norm   :     0.1657337 α      lambda       -0.1616345E+00
   maximum displ.:     0.0900666 α      in ANC's #41, #50, #1, ...

........................................................................
.............................. CYCLE    7 ..............................
........................................................................

 iter      E             dE          RMSdq      gap      omega  full diag
   1    -42.3428921 -0.423429E+02  0.450E-01    0.66       0.0  T
   2    -42.3212004  0.216917E-01  0.802E-01    0.42       1.0  T
   3    -42.3443332 -0.231328E-01  0.280E-01    0.64       1.0  T
   4    -42.3459099 -0.157663E-02  0.927E-02    0.59       1.0  T
   5    -42.3461013 -0.191476E-03  0.172E-02    0.58       1.2  T
   6    -42.3461062 -0.484052E-05  0.106E-02    0.58       1.9  T
   7    -42.3461066 -0.409374E-06  0.580E-03    0.58       3.4  T
   8    -42.3461074 -0.763758E-06  0.152E-03    0.58      13.2  T
   9    -42.3461074 -0.218988E-07  0.942E-04    0.58      21.2  T
  10    -42.3461074 -0.174841E-07  0.322E-04    0.58      62.0  T
     SCC iter.                  ...        0 min,  0.014 sec
     gradient                   ...        0 min,  0.013 sec
 * total energy  :   -56.8175470 Eh     change       -0.1242987E+00 Eh
   gradient norm :     7.0719369 Eh/α   predicted    -0.8304154E-01 ( -33.19%)
   displ. norm   :     0.7947950 α      lambda       -0.1510057E+01
   maximum displ.:     0.3449610 α      in ANC's #41, #50, #67, ...

........................................................................
.............................. CYCLE    8 ..............................
........................................................................

 iter      E             dE          RMSdq      gap      omega  full diag
   1    -42.3195010 -0.423195E+02  0.183E+00    1.16       0.0  T
   2    -42.1965854  0.122916E+00  0.209E+00    0.53       1.0  T
   3    -42.3279209 -0.131335E+00  0.119E+00    1.32       1.0  T
   4    -42.3558454 -0.279245E-01  0.572E-01    1.12       1.0  T
   5    -42.3594394 -0.359398E-02  0.178E-01    1.06       1.0  T
   6    -42.3596702 -0.230801E-03  0.107E-01    1.09       1.0  T
   7    -42.3598143 -0.144110E-03  0.368E-02    1.09       1.0  T
   8    -42.3598363 -0.219258E-04  0.137E-02    1.10       1.5  T
   9    -42.3598371 -0.839404E-06  0.758E-03    1.10       2.6  T
  10    -42.3598378 -0.739687E-06  0.379E-03    1.10       5.3  T
  11    -42.3598381 -0.234592E-06  0.127E-03    1.10      15.7  T
  12    -42.3598381 -0.417745E-07  0.468E-04    1.10      42.7  T
  13    -42.3598381 -0.312679E-08  0.134E-04    1.10     148.8  T
     SCC iter.                  ...        0 min,  0.017 sec
     gradient                   ...        0 min,  0.013 sec
 * total energy  :   -57.7131513 Eh     change       -0.8956043E+00 Eh
   gradient norm :     6.6593051 Eh/α   predicted    -0.1231980E+01 (  37.56%)
   displ. norm   :     0.7413300 α      lambda       -0.4206543E+01
   maximum displ.:     0.4098027 α      in ANC's #1, #46, #56, ...

........................................................................
.............................. CYCLE    9 ..............................
........................................................................

 iter      E             dE          RMSdq      gap      omega  full diag
   1    -42.4365150 -0.424365E+02  0.172E+00    1.78       0.0  T
   2    -42.4058724  0.306426E-01  0.135E+00    1.38       1.0  T
   3    -42.4281443 -0.222720E-01  0.120E+00    1.65       1.0  T
   4    -42.4537306 -0.255863E-01  0.307E-01    1.71       1.0  T
   5    -42.4549688 -0.123817E-02  0.114E-01    1.62       1.0  T
   6    -42.4551068 -0.138007E-03  0.624E-02    1.65       1.0  T
   7    -42.4551629 -0.561258E-04  0.177E-02    1.63       1.1  T
   8    -42.4551685 -0.555764E-05  0.610E-03    1.63       3.3  T
   9    -42.4551693 -0.818528E-06  0.181E-03    1.63      11.1  T
  10    -42.4551693 -0.842333E-08  0.802E-04    1.63      24.9  T
  11    -42.4551693 -0.114841E-07  0.233E-04    1.63      85.7  T
     SCC iter.                  ...        0 min,  0.015 sec
     gradient                   ...        0 min,  0.013 sec
 * total energy  :   -58.7962371 Eh     change       -0.1083086E+01 Eh
   gradient norm :     9.5031553 Eh/α   predicted    -0.3259170E+01 ( 200.92%)
   displ. norm   :     0.4403627 α      lambda       -0.2863842E+01
   maximum displ.:     0.1918214 α      in ANC's #41, #67, #50, ...

........................................................................
.............................. CYCLE   10 ..............................
........................................................................

 iter      E             dE          RMSdq      gap      omega  full diag
   1    -42.4307707 -0.424308E+02  0.655E-01    1.29       0.0  T
   2    -42.4194567  0.113140E-01  0.654E-01    1.44       1.0  T
   3    -42.4308431 -0.113864E-01  0.462E-01    1.32       1.0  T
   4    -42.4352413 -0.439819E-02  0.121E-01    1.32       1.0  T
   5    -42.4354561 -0.214864E-03  0.409E-02    1.37       1.0  T
   6    -42.4354584 -0.224479E-05  0.312E-02    1.35       1.0  T
   7    -42.4354754 -0.170682E-04  0.115E-02    1.36       1.7  T
   8    -42.4354777 -0.223537E-05  0.357E-03    1.36       5.6  T
   9    -42.4354779 -0.193498E-06  0.113E-03    1.36      17.7  T
  10    -42.4354779 -0.247746E-08  0.332E-04    1.36      60.2  T
  11    -42.4354779 -0.132609E-08  0.116E-04    1.36     172.2  T
     SCC iter.                  ...        0 min,  0.015 sec
     gradient                   ...        0 min,  0.013 sec
 * total energy  :   -58.7349233 Eh     change        0.6131377E-01 Eh
   gradient norm :     5.3326972 Eh/α   predicted    -0.1709599E+01 (*******%)
   displ. norm   :     0.3713869 α      lambda       -0.1152671E+01
   maximum displ.:     0.1718581 α      in ANC's #67, #1, #46, ...

........................................................................
.............................. CYCLE   11 ..............................
........................................................................

 iter      E             dE          RMSdq      gap      omega  full diag
   1    -42.4052454 -0.424052E+02  0.559E-01    1.10       0.0  T
   2    -42.4052812 -0.357797E-04  0.402E-01    1.20       1.0  T
   3    -42.4062275 -0.946273E-03  0.281E-01    1.17       1.0  T
   4    -42.4052092  0.101823E-02  0.231E-01    1.10       1.0  T
   5    -42.4072902 -0.208091E-02  0.491E-02    1.20       1.0  T
   6    -42.4073641 -0.739015E-04  0.134E-02    1.18       1.5  T
   7    -42.4073640  0.879370E-07  0.815E-03    1.18       2.5  T
   8    -42.4073652 -0.128294E-05  0.286E-03    1.18       7.0  T
   9    -42.4073654 -0.125534E-06  0.109E-03    1.18      18.3  T
  10    -42.4073654 -0.232300E-07  0.378E-04    1.18      52.9  T
  11    -42.4073654 -0.178989E-08  0.129E-04    1.18     154.7  T
     SCC iter.                  ...        0 min,  0.015 sec
     gradient                   ...        0 min,  0.013 sec
 * total energy  :   -59.3566189 Eh     change       -0.6216955E+00 Eh
   gradient norm :     2.3307428 Eh/α   predicted    -0.6558281E+00 (   5.49%)
   displ. norm   :     0.1364245 α      lambda       -0.2052705E+00
   maximum displ.:     0.0659186 α      in ANC's #67, #58, #64, ...

........................................................................
.............................. CYCLE   12 ..............................
........................................................................

 iter      E             dE          RMSdq      gap      omega  full diag
   1    -42.4180185 -0.424180E+02  0.299E-01    1.23       0.0  T
   2    -42.4178381  0.180376E-03  0.222E-01    1.23       1.0  T
   3    -42.4185681 -0.730025E-03  0.155E-01    1.26       1.0  T
   4    -42.4187808 -0.212647E-03  0.642E-02    1.22       1.0  T
   5    -42.4188781 -0.973375E-04  0.402E-02    1.26       1.0  T
   6    -42.4189200 -0.418857E-04  0.893E-03    1.25       2.2  T
   7    -42.4189204 -0.402926E-06  0.369E-03    1.24       5.4  T
   8    -42.4189206 -0.192080E-06  0.143E-03    1.24      14.0  T
   9    -42.4189206 -0.220520E-07  0.533E-04    1.24      37.5  T
  10    -42.4189206 -0.249587E-08  0.164E-04    1.24     122.1  T
     SCC iter.                  ...        0 min,  0.014 sec
     gradient                   ...        0 min,  0.013 sec
 * total energy  :   -59.4544028 Eh     change       -0.9778396E-01 Eh
   gradient norm :     0.5548056 Eh/α   predicted    -0.1045458E+00 (   6.92%)
   displ. norm   :     0.0730580 α      lambda       -0.1749577E-01
   maximum displ.:     0.0299157 α      in ANC's #50, #41, #67, ...

........................................................................
.............................. CYCLE   13 ..............................
........................................................................

 iter      E             dE          RMSdq      gap      omega  full diag
   1    -42.4206568 -0.424207E+02  0.125E-01    1.23       0.0  T
   2    -42.4206558  0.985799E-06  0.115E-01    1.25       1.0  T
   3    -42.4208963 -0.240459E-03  0.470E-02    1.24       1.0  T
   4    -42.4208619  0.343522E-04  0.360E-02    1.23       1.0  T
   5    -42.4209008 -0.388806E-04  0.149E-02    1.25       1.3  T
   6    -42.4209071 -0.627339E-05  0.311E-03    1.24       6.4  T
   7    -42.4209071 -0.170213E-07  0.180E-03    1.24      11.1  T
   8    -42.4209072 -0.715123E-07  0.412E-04    1.24      48.5  T
   9    -42.4209072 -0.133375E-08  0.130E-04    1.24     153.9  T
     SCC iter.                  ...        0 min,  0.012 sec
     gradient                   ...        0 min,  0.013 sec
 * total energy  :   -59.4684797 Eh     change       -0.1407686E-01 Eh
   gradient norm :     0.1857444 Eh/α   predicted    -0.8794494E-02 ( -37.53%)
   displ. norm   :     0.2543725 α      lambda       -0.3912495E-01
   maximum displ.:     0.0718281 α      in ANC's #50, #27, #29, ...

........................................................................
.............................. CYCLE   14 ..............................
........................................................................

 iter      E             dE          RMSdq      gap      omega  full diag
   1    -42.4357914 -0.424358E+02  0.408E-01    1.30       0.0  T
   2    -42.4354056  0.385780E-03  0.372E-01    1.28       1.0  T
   3    -42.4383359 -0.293025E-02  0.140E-01    1.31       1.0  T
   4    -42.4382093  0.126624E-03  0.779E-02    1.31       1.0  T
   5    -42.4383951 -0.185817E-03  0.306E-02    1.32       1.0  T
   6    -42.4384183 -0.231821E-04  0.856E-03    1.32       2.3  T
   7    -42.4384185 -0.270870E-06  0.582E-03    1.31       3.4  T
   8    -42.4384190 -0.489380E-06  0.121E-03    1.31      16.5  T
   9    -42.4384190 -0.185564E-07  0.459E-04    1.31      43.6  T
  10    -42.4384190 -0.164459E-08  0.186E-04    1.31     107.3  T
     SCC iter.                  ...        0 min,  0.014 sec
     gradient                   ...        0 min,  0.013 sec
 * total energy  :   -59.4931180 Eh     change       -0.2463836E-01 Eh
   gradient norm :     0.7347351 Eh/α   predicted    -0.2082819E-01 ( -15.46%)
   displ. norm   :     0.1957861 α      lambda       -0.2155036E-01
   maximum displ.:     0.0628706 α      in ANC's #27, #29, #16, ...

........................................................................
.............................. CYCLE   15 ..............................
........................................................................

 iter      E             dE          RMSdq      gap      omega  full diag
   1    -42.4573764 -0.424574E+02  0.230E-01    1.33       0.0  T
   2    -42.4573342  0.422459E-04  0.156E-01    1.33       1.0  T
   3    -42.4575203 -0.186068E-03  0.112E-01    1.34       1.0  T
   4    -42.4576680 -0.147725E-03  0.260E-02    1.33       1.0  T
   5    -42.4576869 -0.188841E-04  0.123E-02    1.33       1.6  T
   6    -42.4576902 -0.329966E-05  0.387E-03    1.33       5.2  T
   7    -42.4576902 -0.361250E-07  0.146E-03    1.33      13.7  T
   8    -42.4576902 -0.286073E-07  0.513E-04    1.33      39.0  T
   9    -42.4576902 -0.290640E-08  0.205E-04    1.33      97.7  T
     SCC iter.                  ...        0 min,  0.012 sec
     gradient                   ...        0 min,  0.013 sec
 * total energy  :   -59.5119206 Eh     change       -0.1880257E-01 Eh
   gradient norm :     0.8533637 Eh/α   predicted    -0.1118840E-01 ( -40.50%)
   displ. norm   :     0.5335584 α      lambda       -0.6920042E-01
   maximum displ.:     0.1765621 α      in ANC's #27, #29, #16, ...

........................................................................
.............................. CYCLE   16 ..............................
........................................................................

 iter      E             dE          RMSdq      gap      omega  full diag
   1    -42.5034409 -0.425034E+02  0.588E-01    1.34       0.0  T
   2    -42.5039320 -0.491062E-03  0.338E-01    1.39       1.0  T
   3    -42.5037810  0.150927E-03  0.151E-01    1.33       1.0  T
   4    -42.5039490 -0.167991E-03  0.615E-02    1.38       1.0  T
   5    -42.5040344 -0.854228E-04  0.124E-02    1.37       1.6  T
   6    -42.5040343  0.144267E-06  0.461E-03    1.36       4.3  T
   7    -42.5040347 -0.368723E-06  0.175E-03    1.36      11.4  T
   8    -42.5040347 -0.283585E-07  0.932E-04    1.36      21.5  T
   9    -42.5040347 -0.962562E-08  0.424E-04    1.36      47.2  T
     SCC iter.                  ...        0 min,  0.012 sec
     gradient                   ...        0 min,  0.013 sec
 * total energy  :   -59.5606498 Eh     change       -0.4872916E-01 Eh
   gradient norm :     0.5554929 Eh/α   predicted    -0.4445047E-01 (  -8.78%)
   displ. norm   :     0.3019998 α      lambda       -0.2679792E-01
   maximum displ.:     0.1070465 α      in ANC's #27, #29, #16, ...

........................................................................
.............................. CYCLE   17 ..............................
........................................................................

 iter      E             dE          RMSdq      gap      omega  full diag
   1    -42.5246297 -0.425246E+02  0.336E-01    1.34       0.0  T
   2    -42.5247070 -0.773509E-04  0.222E-01    1.40       1.0  T
   3    -42.5246489  0.580905E-04  0.154E-01    1.35       1.0  T
   4    -42.5249382 -0.289321E-03  0.611E-02    1.38       1.0  T
   5    -42.5250347 -0.964516E-04  0.136E-02    1.38       1.5  T
   6    -42.5250385 -0.377440E-05  0.533E-03    1.38       3.8  T
   7    -42.5250386 -0.965919E-07  0.124E-03    1.37      16.2  T
   8    -42.5250386 -0.169693E-07  0.662E-04    1.38      30.2  T
   9    -42.5250386 -0.435874E-08  0.322E-04    1.37      62.1  T
     SCC iter.                  ...        0 min,  0.013 sec
     gradient                   ...        0 min,  0.020 sec
 * total energy  :   -59.5801363 Eh     change       -0.1948653E-01 Eh
   gradient norm :     0.2989890 Eh/α   predicted    -0.1462115E-01 ( -24.97%)
   displ. norm   :     0.3054963 α      lambda       -0.2361060E-01
   maximum displ.:     0.1126311 α      in ANC's #27, #29, #24, ...

........................................................................
.............................. CYCLE   18 ..............................
........................................................................

 iter      E             dE          RMSdq      gap      omega  full diag
   1    -42.5437323 -0.425437E+02  0.334E-01    1.35       0.0  T
   2    -42.5436681  0.642425E-04  0.218E-01    1.39       1.0  T
   3    -42.5436118  0.562515E-04  0.171E-01    1.34       1.0  T
   4    -42.5440934 -0.481622E-03  0.381E-02    1.37       1.0  T
   5    -42.5441299 -0.364304E-04  0.107E-02    1.37       1.9  T
   6    -42.5441319 -0.204861E-05  0.432E-03    1.37       4.6  T
   7    -42.5441320 -0.284464E-07  0.152E-03    1.37      13.2  T
   8    -42.5441320 -0.413931E-07  0.595E-04    1.37      33.6  T
   9    -42.5441320 -0.299378E-08  0.292E-04    1.37      68.5  T
     SCC iter.                  ...        0 min,  0.013 sec
     gradient                   ...        0 min,  0.013 sec
 * total energy  :   -59.5985007 Eh     change       -0.1836438E-01 Eh
   gradient norm :     0.4767278 Eh/α   predicted    -0.1290715E-01 ( -29.72%)
   displ. norm   :     0.4474309 α      lambda       -0.5265744E-01
   maximum displ.:     0.1551229 α      in ANC's #27, #29, #24, ...

........................................................................
.............................. CYCLE   19 ..............................
........................................................................

 iter      E             dE          RMSdq      gap      omega  full diag
   1    -42.5619381 -0.425619E+02  0.540E-01    1.28       0.0  T
   2    -42.5617097  0.228342E-03  0.360E-01    1.36       1.0  T
   3    -42.5629017 -0.119191E-02  0.254E-01    1.28       1.0  T
   4    -42.5636383 -0.736646E-03  0.556E-02    1.34       1.0  T
   5    -42.5637216 -0.833087E-04  0.183E-02    1.31       1.1  T
   6    -42.5637277 -0.611600E-05  0.707E-03    1.32       2.8  T
   7    -42.5637277 -0.123930E-07  0.325E-03    1.32       6.2  T
   8    -42.5637279 -0.199964E-06  0.833E-04    1.32      24.0  T
   9    -42.5637279 -0.788540E-08  0.357E-04    1.32      56.1  T
     SCC iter.                  ...        0 min,  0.012 sec
     gradient                   ...        0 min,  0.013 sec
 * total energy  :   -59.6308842 Eh     change       -0.3238357E-01 Eh
   gradient norm :     0.2484941 Eh/α   predicted    -0.3159991E-01 (  -2.42%)
   displ. norm   :     0.3873882 α      lambda       -0.3136562E-01
   maximum displ.:     0.1311998 α      in ANC's #41, #27, #24, ...

........................................................................
.............................. CYCLE   20 ..............................
........................................................................

 iter      E             dE          RMSdq      gap      omega  full diag
   1    -42.5749411 -0.425749E+02  0.430E-01    1.21       0.0  T
   2    -42.5749702 -0.291185E-04  0.252E-01    1.23       1.0  T
   3    -42.5742530  0.717234E-03  0.221E-01    1.17       1.0  T
   4    -42.5752609 -0.100794E-02  0.460E-02    1.24       1.0  T
   5    -42.5753121 -0.512004E-04  0.118E-02    1.21       1.7  T
   6    -42.5753128 -0.672919E-06  0.631E-03    1.22       3.2  T
   7    -42.5753130 -0.224705E-06  0.259E-03    1.22       7.7  T
   8    -42.5753132 -0.132375E-06  0.572E-04    1.22      35.0  T
   9    -42.5753132 -0.306463E-08  0.290E-04    1.22      69.1  T
     SCC iter.                  ...        0 min,  0.012 sec
     gradient                   ...        0 min,  0.013 sec
 * total energy  :   -59.6254611 Eh     change        0.5423123E-02 Eh
   gradient norm :     1.2723002 Eh/α   predicted    -0.1803631E-01 (-432.58%)
   displ. norm   :     0.2310592 α      lambda       -0.5532821E-01
   maximum displ.:     0.0737078 α      in ANC's #27, #39, #29, ...
 * RMSD in coord.:     0.9631991 α      energy gain  -0.1611852E+02 Eh

generating ANC from model Hessian ...
Using Lindh-Hessian (1995)
 Shifting diagonal of input Hessian by    6.6258523083380406E-003
 Lowest  eigenvalues of input Hessian
    0.000000    0.000000    0.000000    0.000000    0.000000    0.000000
    0.010000    0.011541    0.012105    0.013008    0.016748    0.017014
    0.018071    0.020040    0.029094    0.032032    0.036172    0.040520
 Highest eigenvalues
    2.216119    2.305726    2.396302    2.525545   17.811430   19.917870


........................................................................
.............................. CYCLE   21 ..............................
........................................................................

 iter      E             dE          RMSdq      gap      omega  full diag
   1    -42.5849428 -0.425849E+02  0.265E-01    1.23       0.0  T
   2    -42.5849992 -0.564506E-04  0.167E-01    1.18       1.0  T
   3    -42.5849118  0.873852E-04  0.122E-01    1.24       1.0  T
   4    -42.5851325 -0.220649E-03  0.382E-02    1.20       1.0  T
   5    -42.5851658 -0.333524E-04  0.105E-02    1.21       1.9  T
   6    -42.5851673 -0.142984E-05  0.492E-03    1.21       4.1  T
   7    -42.5851674 -0.759781E-07  0.135E-03    1.21      14.9  T
   8    -42.5851674 -0.426806E-07  0.456E-04    1.21      43.9  T
   9    -42.5851674 -0.147613E-08  0.243E-04    1.21      82.3  T
     SCC iter.                  ...        0 min,  0.012 sec
     gradient                   ...        0 min,  0.013 sec
 * total energy  :   -59.6539432 Eh     change       -0.2848205E-01 Eh
   gradient norm :     0.1615029 Eh/α   predicted     0.0000000E+00 (-100.00%)
   displ. norm   :     0.4342722 α      lambda       -0.2465221E-01
   maximum displ.:     0.1985511 α      in ANC's #4, #9, #10, ...

........................................................................
.............................. CYCLE   22 ..............................
........................................................................

 iter      E             dE          RMSdq      gap      omega  full diag
   1    -42.6116979 -0.426117E+02  0.357E-01    1.20       0.0  T
   2    -42.6117831 -0.852480E-04  0.205E-01    1.17       1.0  T
   3    -42.6113747  0.408397E-03  0.175E-01    1.24       1.0  T
   4    -42.6119770 -0.602295E-03  0.458E-02    1.17       1.0  T
   5    -42.6120194 -0.424363E-04  0.115E-02    1.19       1.7  T
   6    -42.6120203 -0.836873E-06  0.479E-03    1.19       4.2  T
   7    -42.6120204 -0.163773E-06  0.173E-03    1.19      11.6  T
   8    -42.6120205 -0.484749E-07  0.674E-04    1.19      29.7  T
   9    -42.6120205 -0.231079E-08  0.251E-04    1.19      79.6  T
     SCC iter.                  ...        0 min,  0.012 sec
     gradient                   ...        0 min,  0.013 sec
 * total energy  :   -59.6664541 Eh     change       -0.1251092E-01 Eh
   gradient norm :     0.7979627 Eh/α   predicted    -0.1465108E-01 (  17.11%)
   displ. norm   :     0.6595711 α      lambda       -0.7490455E-01
   maximum displ.:     0.2023166 α      in ANC's #44, #9, #32, ...

........................................................................
.............................. CYCLE   23 ..............................
........................................................................

 iter      E             dE          RMSdq      gap      omega  full diag
   1    -42.6522438 -0.426522E+02  0.678E-01    1.22       0.0  T
   2    -42.6523665 -0.122662E-03  0.406E-01    1.14       1.0  T
   3    -42.6505500  0.181646E-02  0.353E-01    1.24       1.0  T
   4    -42.6531942 -0.264414E-02  0.551E-02    1.17       1.0  T
   5    -42.6532402 -0.460035E-04  0.225E-02    1.20       1.0  T
   6    -42.6532447 -0.456703E-05  0.104E-02    1.19       1.9  T
   7    -42.6532464 -0.168487E-05  0.295E-03    1.19       6.8  T
   8    -42.6532465 -0.814961E-07  0.102E-03    1.19      19.6  T
   9    -42.6532465 -0.499097E-08  0.666E-04    1.19      30.0  T
  10    -42.6532465 -0.473045E-08  0.202E-04    1.19      99.2  T
     SCC iter.                  ...        0 min,  0.014 sec
     gradient                   ...        0 min,  0.013 sec
 * total energy  :   -59.6310416 Eh     change        0.3541249E-01 Eh
   gradient norm :     1.7016074 Eh/α   predicted    -0.5374517E-01 (-251.77%)
   displ. norm   :     0.2433386 α      lambda       -0.1067044E+00
   maximum displ.:     0.1200477 α      in ANC's #44, #62, #32, ...

........................................................................
.............................. CYCLE   24 ..............................
........................................................................

 iter      E             dE          RMSdq      gap      omega  full diag
   1    -42.6348308 -0.426348E+02  0.328E-01    1.15       0.0  T
   2    -42.6348421 -0.112464E-04  0.197E-01    1.21       1.0  T
   3    -42.6348073  0.347335E-04  0.174E-01    1.13       1.0  T
   4    -42.6351973 -0.390018E-03  0.426E-02    1.20       1.0  T
   5    -42.6352460 -0.486163E-04  0.150E-02    1.18       1.3  T
   6    -42.6352497 -0.376300E-05  0.588E-03    1.18       3.4  T
   7    -42.6352499 -0.179208E-06  0.192E-03    1.18      10.4  T
   8    -42.6352499 -0.510335E-07  0.516E-04    1.18      38.8  T
   9    -42.6352499 -0.871125E-09  0.195E-04    1.18     102.5  T
     SCC iter.                  ...        0 min,  0.012 sec
     gradient                   ...        0 min,  0.013 sec
 * total energy  :   -59.6838198 Eh     change       -0.5277822E-01 Eh
   gradient norm :     0.1155684 Eh/α   predicted    -0.5651165E-01 (   7.07%)
   displ. norm   :     0.3378440 α      lambda       -0.9131303E-02
   maximum displ.:     0.1420071 α      in ANC's #4, #7, #16, ...

........................................................................
.............................. CYCLE   25 ..............................
........................................................................

 iter      E             dE          RMSdq      gap      omega  full diag
   1    -42.6410529 -0.426411E+02  0.291E-01    1.20       0.0  T
   2    -42.6410827 -0.298486E-04  0.170E-01    1.19       1.0  T
   3    -42.6409518  0.130925E-03  0.783E-02    1.20       1.0  T
   4    -42.6411059 -0.154110E-03  0.139E-02    1.19       1.4  T
   5    -42.6411095 -0.354107E-05  0.599E-03    1.19       3.3  T
   6    -42.6411095 -0.605922E-07  0.372E-03    1.19       5.4  T
   7    -42.6411098 -0.299245E-06  0.916E-04    1.19      21.8  T
   8    -42.6411098 -0.126333E-07  0.377E-04    1.19      53.1  T
     SCC iter.                  ...        0 min,  0.011 sec
     gradient                   ...        0 min,  0.013 sec
 * total energy  :   -59.6906531 Eh     change       -0.6833318E-02 Eh
   gradient norm :     0.1068504 Eh/α   predicted    -0.5086813E-02 ( -25.56%)
   displ. norm   :     0.5787191 α      lambda       -0.1110758E-01
   maximum displ.:     0.3522235 α      in ANC's #4, #7, #9, ...

........................................................................
.............................. CYCLE   26 ..............................
........................................................................

 iter      E             dE          RMSdq      gap      omega  full diag
   1    -42.6419054 -0.426419E+02  0.324E-01    1.22       0.0  T
   2    -42.6419522 -0.467354E-04  0.183E-01    1.20       1.0  T
   3    -42.6417113  0.240807E-03  0.123E-01    1.20       1.0  T
   4    -42.6420214 -0.310027E-03  0.193E-02    1.21       1.0  T
   5    -42.6420276 -0.621818E-05  0.103E-02    1.20       1.9  T
   6    -42.6420292 -0.165145E-05  0.388E-03    1.20       5.2  T
   7    -42.6420295 -0.209957E-06  0.112E-03    1.20      17.9  T
   8    -42.6420295 -0.919438E-08  0.567E-04    1.20      35.3  T
   9    -42.6420295 -0.987384E-09  0.210E-04    1.20      95.4  T
     SCC iter.                  ...        0 min,  0.012 sec
     gradient                   ...        0 min,  0.013 sec
 * total energy  :   -59.6987031 Eh     change       -0.8050006E-02 Eh
   gradient norm :     0.2336139 Eh/α   predicted    -0.7413841E-02 (  -7.90%)
   displ. norm   :     0.4224151 α      lambda       -0.7217834E-02
   maximum displ.:     0.2204758 α      in ANC's #4, #7, #3, ...

........................................................................
.............................. CYCLE   27 ..............................
........................................................................

 iter      E             dE          RMSdq      gap      omega  full diag
   1    -42.6515494 -0.426515E+02  0.230E-01    1.28       0.0  T
   2    -42.6515987 -0.492587E-04  0.133E-01    1.22       1.0  T
   3    -42.6515021  0.966058E-04  0.810E-02    1.28       1.0  T
   4    -42.6516304 -0.128386E-03  0.187E-02    1.23       1.1  T
   5    -42.6516394 -0.891813E-05  0.658E-03    1.24       3.0  T
   6    -42.6516398 -0.491861E-06  0.310E-03    1.24       6.4  T
   7    -42.6516399 -0.748712E-07  0.886E-04    1.24      22.6  T
   8    -42.6516399 -0.124321E-07  0.436E-04    1.24      45.8  T
     SCC iter.                  ...        0 min,  0.011 sec
     gradient                   ...        0 min,  0.013 sec
 * total energy  :   -59.7034948 Eh     change       -0.4791693E-02 Eh
   gradient norm :     0.3656639 Eh/α   predicted    -0.4252893E-02 ( -11.24%)
   displ. norm   :     0.3603364 α      lambda       -0.7233166E-02
   maximum displ.:     0.2178650 α      in ANC's #4, #7, #3, ...

........................................................................
.............................. CYCLE   28 ..............................
........................................................................

 iter      E             dE          RMSdq      gap      omega  full diag
   1    -42.6571127 -0.426571E+02  0.187E-01    1.32       0.0  T
   2    -42.6571743 -0.616304E-04  0.105E-01    1.26       1.0  T
   3    -42.6571455  0.287462E-04  0.688E-02    1.31       1.0  T
   4    -42.6572110 -0.654068E-04  0.194E-02    1.27       1.0  T
   5    -42.6572196 -0.863519E-05  0.539E-03    1.28       3.7  T
   6    -42.6572201 -0.516056E-06  0.247E-03    1.28       8.1  T
   7    -42.6572201 -0.307413E-07  0.853E-04    1.28      23.4  T
   8    -42.6572201 -0.105864E-07  0.394E-04    1.28      50.8  T
     SCC iter.                  ...        0 min,  0.011 sec
     gradient                   ...        0 min,  0.013 sec
 * total energy  :   -59.7090005 Eh     change       -0.5505620E-02 Eh
   gradient norm :     0.1836087 Eh/α   predicted    -0.4086166E-02 ( -25.78%)
   displ. norm   :     0.3390547 α      lambda       -0.6529690E-02
   maximum displ.:     0.1164334 α      in ANC's #4, #7, #10, ...

........................................................................
.............................. CYCLE   29 ..............................
........................................................................

 iter      E             dE          RMSdq      gap      omega  full diag
   1    -42.6753210 -0.426753E+02  0.239E-01    1.44       0.0  T
   2    -42.6755654 -0.244397E-03  0.144E-01    1.33       1.0  T
   3    -42.6756323 -0.668923E-04  0.858E-02    1.39       1.0  T
   4    -42.6756523 -0.199862E-04  0.408E-02    1.35       1.0  T
   5    -42.6756879 -0.355985E-04  0.646E-03    1.37       3.1  T
   6    -42.6756886 -0.735649E-06  0.270E-03    1.37       7.4  T
   7    -42.6756887 -0.204740E-07  0.799E-04    1.37      25.0  T
   8    -42.6756887 -0.426673E-08  0.324E-04    1.37      61.8  T
     SCC iter.                  ...        0 min,  0.011 sec
     gradient                   ...        0 min,  0.013 sec
 * total energy  :   -59.7130672 Eh     change       -0.4066769E-02 Eh
   gradient norm :     0.3025080 Eh/α   predicted    -0.3640176E-02 ( -10.49%)
   displ. norm   :     0.2925099 α      lambda       -0.6569971E-02
   maximum displ.:     0.1033696 α      in ANC's #7, #1, #4, ...

........................................................................
.............................. CYCLE   30 ..............................
........................................................................

 iter      E             dE          RMSdq      gap      omega  full diag
   1    -42.6832256 -0.426832E+02  0.202E-01    1.46       0.0  T
   2    -42.6833436 -0.118042E-03  0.118E-01    1.39       1.0  T
   3    -42.6833670 -0.233676E-04  0.754E-02    1.44       1.0  T
   4    -42.6833985 -0.314780E-04  0.260E-02    1.41       1.0  T
   5    -42.6834142 -0.156851E-04  0.505E-03    1.42       4.0  T
   6    -42.6834145 -0.391902E-06  0.207E-03    1.42       9.6  T
   7    -42.6834146 -0.921607E-08  0.722E-04    1.42      27.7  T
   8    -42.6834146 -0.512446E-08  0.287E-04    1.42      69.8  T
     SCC iter.                  ...        0 min,  0.011 sec
     gradient                   ...        0 min,  0.013 sec
 * total energy  :   -59.7157403 Eh     change       -0.2673098E-02 Eh
   gradient norm :     0.1890563 Eh/α   predicted    -0.3566057E-02 (  33.41%)
   displ. norm   :     0.4864296 α      lambda       -0.6154523E-02
   maximum displ.:     0.2279993 α      in ANC's #4, #7, #1, ...

........................................................................
.............................. CYCLE   31 ..............................
........................................................................

 iter      E             dE          RMSdq      gap      omega  full diag
   1    -42.6747342 -0.426747E+02  0.286E-01    1.48       0.0  T
   2    -42.6747969 -0.627117E-04  0.166E-01    1.45       1.0  T
   3    -42.6747475  0.493483E-04  0.576E-02    1.47       1.0  T
   4    -42.6748183 -0.707557E-04  0.847E-03    1.45       2.4  T
   5    -42.6748189 -0.645685E-06  0.473E-03    1.45       4.2  T
   6    -42.6748190 -0.112757E-06  0.239E-03    1.45       8.4  T
   7    -42.6748191 -0.711538E-07  0.688E-04    1.45      29.1  T
   8    -42.6748191 -0.377927E-08  0.368E-04    1.45      54.3  T
     SCC iter.                  ...        0 min,  0.011 sec
     gradient                   ...        0 min,  0.013 sec
 * total energy  :   -59.7171873 Eh     change       -0.1446939E-02 Eh
   gradient norm :     0.3669513 Eh/α   predicted    -0.3805387E-02 ( 163.00%)
   displ. norm   :     0.1756546 α      lambda       -0.4613642E-02
   maximum displ.:     0.0740543 α      in ANC's #4, #7, #1, ...

........................................................................
.............................. CYCLE   32 ..............................
........................................................................

 iter      E             dE          RMSdq      gap      omega  full diag
   1    -42.6773972 -0.426774E+02  0.123E-01    1.41       0.0  T
   2    -42.6774186 -0.213059E-04  0.701E-02    1.44       1.0  T
   3    -42.6774059  0.126510E-04  0.452E-02    1.41       1.0  T
   4    -42.6774297 -0.238030E-04  0.104E-02    1.43       1.9  T
   5    -42.6774322 -0.248731E-05  0.272E-03    1.43       7.4  T
   6    -42.6774323 -0.593296E-07  0.125E-03    1.43      16.0  T
   7    -42.6774323 -0.516202E-08  0.377E-04    1.43      53.1  T
   8    -42.6774323 -0.212980E-08  0.132E-04    1.43     151.1  T
     SCC iter.                  ...        0 min,  0.011 sec
     gradient                   ...        0 min,  0.013 sec
 * total energy  :   -59.7193095 Eh     change       -0.2122234E-02 Eh
   gradient norm :     0.0605959 Eh/α   predicted    -0.2378022E-02 (  12.05%)
   displ. norm   :     0.2163095 α      lambda       -0.1555154E-02
   maximum displ.:     0.1017681 α      in ANC's #10, #1, #7, ...

........................................................................
.............................. CYCLE   33 ..............................
........................................................................

 iter      E             dE          RMSdq      gap      omega  full diag
   1    -42.6818540 -0.426819E+02  0.131E-01    1.46       0.0  T
   2    -42.6818708 -0.168122E-04  0.774E-02    1.44       1.0  T
   3    -42.6818509  0.198698E-04  0.348E-02    1.47       1.0  T
   4    -42.6818741 -0.232093E-04  0.905E-03    1.45       2.2  T
   5    -42.6818761 -0.199118E-05  0.242E-03    1.45       8.3  T
   6    -42.6818762 -0.196520E-07  0.947E-04    1.45      21.1  T
   7    -42.6818762 -0.582750E-08  0.330E-04    1.45      60.6  T
     SCC iter.                  ...        0 min,  0.010 sec
     gradient                   ...        0 min,  0.013 sec
 * total energy  :   -59.7205695 Eh     change       -0.1259955E-02 Eh
   gradient norm :     0.0568398 Eh/α   predicted    -0.8139624E-03 ( -35.40%)
   displ. norm   :     0.5025243 α      lambda       -0.3467087E-02
   maximum displ.:     0.1828427 α      in ANC's #10, #7, #2, ...

........................................................................
.............................. CYCLE   34 ..............................
........................................................................

 iter      E             dE          RMSdq      gap      omega  full diag
   1    -42.6851616 -0.426852E+02  0.290E-01    1.50       0.0  T
   2    -42.6852229 -0.613153E-04  0.173E-01    1.46       1.0  T
   3    -42.6851547  0.682722E-04  0.588E-02    1.51       1.0  T
   4    -42.6852438 -0.891214E-04  0.108E-02    1.48       1.8  T
   5    -42.6852462 -0.237717E-05  0.484E-03    1.48       4.1  T
   6    -42.6852463 -0.149106E-06  0.221E-03    1.48       9.1  T
   7    -42.6852463 -0.366219E-07  0.770E-04    1.48      26.0  T
   8    -42.6852464 -0.530493E-08  0.328E-04    1.48      60.9  T
     SCC iter.                  ...        0 min,  0.011 sec
     gradient                   ...        0 min,  0.013 sec
 * total energy  :   -59.7219074 Eh     change       -0.1337949E-02 Eh
   gradient norm :     0.3055812 Eh/α   predicted    -0.2171282E-02 (  62.28%)
   displ. norm   :     0.1402093 α      lambda       -0.2605780E-02
   maximum displ.:     0.0835857 α      in ANC's #3, #1, #4, ...

........................................................................
.............................. CYCLE   35 ..............................
........................................................................

 iter      E             dE          RMSdq      gap      omega  full diag
   1    -42.6784898 -0.426785E+02  0.886E-02    1.47       0.0  T
   2    -42.6784976 -0.785380E-05  0.495E-02    1.48       1.0  T
   3    -42.6784941  0.355336E-05  0.214E-02    1.46       1.0  T
   4    -42.6784989 -0.481477E-05  0.598E-03    1.47       3.3  T
   5    -42.6784996 -0.722657E-06  0.175E-03    1.47      11.4  T
   6    -42.6784996 -0.119999E-07  0.554E-04    1.47      36.1  T
   7    -42.6784996 -0.146062E-08  0.137E-04    1.47     146.1  T
     SCC iter.                  ...        0 min,  0.010 sec
     gradient                   ...        0 min,  0.013 sec
 * total energy  :   -59.7226970 Eh     change       -0.7896182E-03 Eh
   gradient norm :     0.0492340 Eh/α   predicted    -0.1328540E-02 (  68.25%)
   displ. norm   :     0.1810231 α      lambda       -0.1688557E-02
   maximum displ.:     0.0910683 α      in ANC's #2, #12, #3, ...

........................................................................
.............................. CYCLE   36 ..............................
........................................................................

 iter      E             dE          RMSdq      gap      omega  full diag
   1    -42.6811084 -0.426811E+02  0.125E-01    1.47       0.0  T
   2    -42.6811373 -0.288581E-04  0.716E-02    1.48       1.0  T
   3    -42.6811311  0.620357E-05  0.353E-02    1.47       1.0  T
   4    -42.6811447 -0.135908E-04  0.760E-03    1.48       2.6  T
   5    -42.6811458 -0.109396E-05  0.293E-03    1.47       6.8  T
   6    -42.6811458 -0.727973E-07  0.146E-03    1.48      13.7  T
   7    -42.6811459 -0.142526E-07  0.377E-04    1.48      53.0  T
   8    -42.6811459 -0.110830E-08  0.156E-04    1.48     128.2  T
     SCC iter.                  ...        0 min,  0.011 sec
     gradient                   ...        0 min,  0.013 sec
 * total energy  :   -59.7235218 Eh     change       -0.8247508E-03 Eh
   gradient norm :     0.0297840 Eh/α   predicted    -0.8719044E-03 (   5.72%)
   displ. norm   :     0.2537561 α      lambda       -0.1194139E-02
   maximum displ.:     0.1071375 α      in ANC's #4, #3, #2, ...

........................................................................
.............................. CYCLE   37 ..............................
........................................................................

 iter      E             dE          RMSdq      gap      omega  full diag
   1    -42.6861014 -0.426861E+02  0.121E-01    1.49       0.0  T
   2    -42.6861155 -0.140879E-04  0.723E-02    1.48       1.0  T
   3    -42.6861082  0.730482E-05  0.254E-02    1.49       1.0  T
   4    -42.6861190 -0.108405E-04  0.496E-03    1.48       4.0  T
   5    -42.6861195 -0.495384E-06  0.207E-03    1.48       9.7  T
   6    -42.6861196 -0.301148E-07  0.863E-04    1.48      23.2  T
   7    -42.6861196 -0.561865E-08  0.269E-04    1.48      74.5  T
     SCC iter.                  ...        0 min,  0.010 sec
     gradient                   ...        0 min,  0.013 sec
 * total energy  :   -59.7242331 Eh     change       -0.7113044E-03 Eh
   gradient norm :     0.1385071 Eh/α   predicted    -0.6354678E-03 ( -10.66%)
   displ. norm   :     0.1906025 α      lambda       -0.7617626E-03
   maximum displ.:     0.1191137 α      in ANC's #3, #4, #1, ...

........................................................................
.............................. CYCLE   38 ..............................
........................................................................

 iter      E             dE          RMSdq      gap      omega  full diag
   1    -42.6874345 -0.426874E+02  0.824E-02    1.49       0.0  T
   2    -42.6874389 -0.441832E-05  0.490E-02    1.49       1.0  T
   3    -42.6874364  0.252379E-05  0.151E-02    1.49       1.3  T
   4    -42.6874401 -0.375810E-05  0.209E-03    1.49       9.6  T
   5    -42.6874401 -0.276693E-07  0.108E-03    1.49      18.6  T
   6    -42.6874402 -0.527473E-08  0.397E-04    1.49      50.4  T
   7    -42.6874402 -0.278291E-08  0.134E-04    1.49     149.5  T
     SCC iter.                  ...        0 min,  0.010 sec
     gradient                   ...        0 min,  0.013 sec
 * total energy  :   -59.7248431 Eh     change       -0.6100144E-03 Eh
   gradient norm :     0.1031599 Eh/α   predicted    -0.3947276E-03 ( -35.29%)
   displ. norm   :     0.4066489 α      lambda       -0.1185607E-02
   maximum displ.:     0.2711318 α      in ANC's #3, #1, #4, ...

........................................................................
.............................. CYCLE   39 ..............................
........................................................................

 iter      E             dE          RMSdq      gap      omega  full diag
   1    -42.6833550 -0.426834E+02  0.184E-01    1.51       0.0  T
   2    -42.6833648 -0.980189E-05  0.109E-01    1.50       1.0  T
   3    -42.6833574  0.746089E-05  0.219E-02    1.50       1.0  T
   4    -42.6833669 -0.953917E-05  0.513E-03    1.50       3.9  T
   5    -42.6833673 -0.371823E-06  0.275E-03    1.50       7.3  T
   6    -42.6833674 -0.742026E-07  0.114E-03    1.50      17.5  T
   7    -42.6833674 -0.139946E-07  0.383E-04    1.50      52.3  T
   8    -42.6833674 -0.165570E-08  0.140E-04    1.50     143.2  T
     SCC iter.                  ...        0 min,  0.011 sec
     gradient                   ...        0 min,  0.013 sec
 * total energy  :   -59.7255355 Eh     change       -0.6924086E-03 Eh
   gradient norm :     0.0824729 Eh/α   predicted    -0.6908483E-03 (  -0.23%)
   displ. norm   :     0.2692993 α      lambda       -0.1204256E-02
   maximum displ.:     0.1758011 α      in ANC's #3, #4, #8, ...

........................................................................
.............................. CYCLE   40 ..............................
........................................................................

 iter      E             dE          RMSdq      gap      omega  full diag
   1    -42.6907232 -0.426907E+02  0.117E-01    1.52       0.0  T
   2    -42.6907446 -0.213061E-04  0.675E-02    1.50       1.0  T
   3    -42.6907422  0.230718E-05  0.304E-02    1.51       1.0  T
   4    -42.6907485 -0.627850E-05  0.703E-03    1.51       2.8  T
   5    -42.6907494 -0.864311E-06  0.296E-03    1.50       6.8  T
   6    -42.6907494 -0.243997E-07  0.156E-03    1.51      12.8  T
   7    -42.6907494 -0.313128E-07  0.469E-04    1.51      42.6  T
   8    -42.6907494 -0.279675E-08  0.179E-04    1.51     111.5  T
     SCC iter.                  ...        0 min,  0.011 sec
     gradient                   ...        0 min,  0.013 sec
 * total energy  :   -59.7257200 Eh     change       -0.1845467E-03 Eh
   gradient norm :     0.1107565 Eh/α   predicted    -0.6457980E-03 ( 249.94%)
   displ. norm   :     0.2551569 α      lambda       -0.1103213E-02
   maximum displ.:     0.1429626 α      in ANC's #3, #1, #4, ...

........................................................................
.............................. CYCLE   41 ..............................
........................................................................

 iter      E             dE          RMSdq      gap      omega  full diag
   1    -42.6877722 -0.426878E+02  0.126E-01    1.51       0.0  T
   2    -42.6877799 -0.774829E-05  0.732E-02    1.51       1.0  T
   3    -42.6877729  0.700876E-05  0.234E-02    1.50       1.0  T
   4    -42.6877817 -0.884563E-05  0.460E-03    1.51       4.3  T
   5    -42.6877821 -0.317096E-06  0.194E-03    1.51      10.3  T
   6    -42.6877821 -0.354752E-07  0.889E-04    1.51      22.5  T
   7    -42.6877821 -0.508751E-08  0.320E-04    1.51      62.5  T
     SCC iter.                  ...        0 min,  0.010 sec
     gradient                   ...        0 min,  0.013 sec
 * total energy  :   -59.7261229 Eh     change       -0.4028355E-03 Eh
   gradient norm :     0.1258157 Eh/α   predicted    -0.5875471E-03 (  45.85%)
   displ. norm   :     0.1183865 α      lambda       -0.7216411E-03
   maximum displ.:     0.0923978 α      in ANC's #2, #3, #9, ...

........................................................................
.............................. CYCLE   42 ..............................
........................................................................

 iter      E             dE          RMSdq      gap      omega  full diag
   1    -42.6876654 -0.426877E+02  0.714E-02    1.51       0.0  T
   2    -42.6876718 -0.643326E-05  0.405E-02    1.51       1.0  T
   3    -42.6876689  0.297977E-05  0.171E-02    1.52       1.2  T
   4    -42.6876730 -0.412796E-05  0.501E-03    1.51       4.0  T
   5    -42.6876733 -0.290224E-06  0.221E-03    1.51       9.1  T
   6    -42.6876733 -0.281597E-07  0.952E-04    1.51      21.0  T
   7    -42.6876733 -0.959048E-08  0.291E-04    1.51      68.7  T
     SCC iter.                  ...        0 min,  0.010 sec
     gradient                   ...        0 min,  0.013 sec
 * total energy  :   -59.7264352 Eh     change       -0.3123320E-03 Eh
   gradient norm :     0.0406334 Eh/α   predicted    -0.3658945E-03 (  17.15%)
   displ. norm   :     0.0875502 α      lambda       -0.3568177E-03
   maximum displ.:     0.0533161 α      in ANC's #2, #8, #3, ...
 * RMSD in coord.:     0.7369478 α      energy gain  -0.1009741E+00 Eh

generating ANC from model Hessian ...
Using Lindh-Hessian (1995)
 Shifting diagonal of input Hessian by    6.4129626240996152E-003
 Lowest  eigenvalues of input Hessian
    0.000000    0.000000    0.000000    0.000000    0.000000    0.000000
    0.010000    0.010725    0.011604    0.013949    0.017217    0.017851
    0.020618    0.022150    0.027197    0.030776    0.033102    0.038378
 Highest eigenvalues
    2.230869    2.417732    2.489156    2.568696   17.834750   21.641170


........................................................................
.............................. CYCLE   43 ..............................
........................................................................

 iter      E             dE          RMSdq      gap      omega  full diag
   1    -42.6880017 -0.426880E+02  0.443E-02    1.51       0.0  T
   2    -42.6880070 -0.535761E-05  0.261E-02    1.51       1.0  T
   3    -42.6880070  0.674879E-07  0.112E-02    1.51       1.8  T
   4    -42.6880079 -0.919038E-06  0.276E-03    1.51       7.2  T
   5    -42.6880080 -0.112534E-06  0.117E-03    1.51      17.1  T
   6    -42.6880080 -0.850831E-08  0.551E-04    1.51      36.3  T
   7    -42.6880080 -0.338137E-08  0.181E-04    1.51     110.2  T
     SCC iter.                  ...        0 min,  0.010 sec
     gradient                   ...        0 min,  0.013 sec
 * total energy  :   -59.7267138 Eh     change       -0.2785697E-03 Eh
   gradient norm :     0.0169879 Eh/α   predicted     0.0000000E+00 (-100.00%)
   displ. norm   :     0.0853359 α      lambda       -0.2542695E-03
   maximum displ.:     0.0490134 α      in ANC's #3, #8, #1, ...

........................................................................
.............................. CYCLE   44 ..............................
........................................................................

 iter      E             dE          RMSdq      gap      omega  full diag
   1    -42.6873204 -0.426873E+02  0.459E-02    1.51       0.0  T
   2    -42.6873219 -0.155086E-05  0.268E-02    1.51       1.0  T
   3    -42.6873214  0.543918E-06  0.710E-03    1.51       2.8  T
   4    -42.6873222 -0.820225E-06  0.194E-03    1.51      10.3  T
   5    -42.6873223 -0.498655E-07  0.947E-04    1.51      21.1  T
   6    -42.6873223 -0.490934E-08  0.455E-04    1.51      44.0  T
     SCC iter.                  ...        0 min,  0.009 sec
     gradient                   ...        0 min,  0.013 sec
 * total energy  :   -59.7266332 Eh     change        0.8060051E-04 Eh
   gradient norm :     0.1523535 Eh/α   predicted    -0.1280904E-03 (-258.92%)
   displ. norm   :     0.4350247 α      lambda       -0.1695775E-02
   maximum displ.:     0.2463270 α      in ANC's #3, #8, #1, ...

........................................................................
.............................. CYCLE   45 ..............................
........................................................................

 iter      E             dE          RMSdq      gap      omega  full diag
   1    -42.6815109 -0.426815E+02  0.239E-01    1.48       0.0  T
   2    -42.6815825 -0.715878E-04  0.142E-01    1.50       1.0  T
   3    -42.6815593  0.231311E-04  0.509E-02    1.48       1.0  T
   4    -42.6815994 -0.401095E-04  0.847E-03    1.50       2.4  T
   5    -42.6816002 -0.776655E-06  0.391E-03    1.49       5.1  T
   6    -42.6816002 -0.845214E-08  0.205E-03    1.49       9.8  T
   7    -42.6816003 -0.465517E-07  0.824E-04    1.49      24.3  T
   8    -42.6816003 -0.474981E-08  0.418E-04    1.49      47.8  T
     SCC iter.                  ...        0 min,  0.011 sec
     gradient                   ...        0 min,  0.013 sec
 * total energy  :   -59.7261818 Eh     change        0.4513687E-03 Eh
   gradient norm :     0.1105955 Eh/α   predicted    -0.1008382E-02 (-323.41%)
   displ. norm   :     0.2107297 α      lambda       -0.1992277E-02
   maximum displ.:     0.1151098 α      in ANC's #3, #8, #7, ...

........................................................................
.............................. CYCLE   46 ..............................
........................................................................

 iter      E             dE          RMSdq      gap      omega  full diag
   1    -42.6877265 -0.426877E+02  0.144E-01    1.51       0.0  T
   2    -42.6877727 -0.461420E-04  0.864E-02    1.50       1.0  T
   3    -42.6877685  0.417904E-05  0.373E-02    1.51       1.0  T
   4    -42.6877822 -0.136657E-04  0.638E-03    1.50       3.1  T
   5    -42.6877826 -0.478270E-06  0.278E-03    1.50       7.2  T
   6    -42.6877827 -0.292120E-07  0.187E-03    1.50      10.7  T
   7    -42.6877827 -0.437367E-07  0.515E-04    1.50      38.8  T
   8    -42.6877827 -0.138309E-08  0.241E-04    1.50      82.9  T
     SCC iter.                  ...        0 min,  0.011 sec
     gradient                   ...        0 min,  0.013 sec
 * total energy  :   -59.7271968 Eh     change       -0.1014940E-02 Eh
   gradient norm :     0.0237093 Eh/α   predicted    -0.1040378E-02 (   2.51%)
   displ. norm   :     0.0916961 α      lambda       -0.1384456E-03
   maximum displ.:     0.0522132 α      in ANC's #1, #3, #2, ...

........................................................................
.............................. CYCLE   47 ..............................
........................................................................

 iter      E             dE          RMSdq      gap      omega  full diag
   1    -42.6874849 -0.426875E+02  0.386E-02    1.50       0.0  T
   2    -42.6874854 -0.494736E-06  0.224E-02    1.50       1.0  T
   3    -42.6874848  0.543685E-06  0.622E-03    1.50       3.2  T
   4    -42.6874856 -0.767402E-06  0.125E-03    1.50      16.0  T
   5    -42.6874856 -0.472846E-08  0.699E-04    1.50      28.6  T
   6    -42.6874856 -0.346929E-08  0.309E-04    1.50      64.8  T
     SCC iter.                  ...        0 min,  0.009 sec
     gradient                   ...        0 min,  0.013 sec
 * total energy  :   -59.7273027 Eh     change       -0.1059830E-03 Eh
   gradient norm :     0.0127586 Eh/α   predicted    -0.6982583E-04 ( -34.12%)
   displ. norm   :     0.2288432 α      lambda       -0.2372397E-03
   maximum displ.:     0.1183067 α      in ANC's #1, #3, #2, ...

........................................................................
.............................. CYCLE   48 ..............................
........................................................................

 iter      E             dE          RMSdq      gap      omega  full diag
   1    -42.6871414 -0.426871E+02  0.920E-02    1.49       0.0  T
   2    -42.6871435 -0.213468E-05  0.535E-02    1.49       1.0  T
   3    -42.6871424  0.112675E-05  0.105E-02    1.49       1.9  T
   4    -42.6871444 -0.200746E-05  0.278E-03    1.49       7.2  T
   5    -42.6871445 -0.313945E-07  0.137E-03    1.49      14.6  T
   6    -42.6871445 -0.146687E-07  0.565E-04    1.49      35.4  T
   7    -42.6871445 -0.218144E-08  0.331E-04    1.49      60.4  T
     SCC iter.                  ...        0 min,  0.010 sec
     gradient                   ...        0 min,  0.013 sec
 * total energy  :   -59.7274828 Eh     change       -0.1800535E-03 Eh
   gradient norm :     0.0148469 Eh/α   predicted    -0.1248812E-03 ( -30.64%)
   displ. norm   :     0.3049533 α      lambda       -0.2203436E-03
   maximum displ.:     0.1665061 α      in ANC's #1, #2, #4, ...

........................................................................
.............................. CYCLE   49 ..............................
........................................................................

 iter      E             dE          RMSdq      gap      omega  full diag
   1    -42.6862776 -0.426863E+02  0.119E-01    1.49       0.0  T
   2    -42.6862808 -0.315135E-05  0.692E-02    1.49       1.0  T
   3    -42.6862790  0.180762E-05  0.118E-02    1.48       1.7  T
   4    -42.6862820 -0.300633E-05  0.437E-03    1.49       4.6  T
   5    -42.6862822 -0.175212E-06  0.218E-03    1.49       9.2  T
   6    -42.6862822 -0.362622E-07  0.823E-04    1.49      24.3  T
   7    -42.6862822 -0.498394E-08  0.425E-04    1.49      47.0  T
     SCC iter.                  ...        0 min,  0.010 sec
     gradient                   ...        0 min,  0.013 sec
 * total energy  :   -59.7276356 Eh     change       -0.1527719E-03 Eh
   gradient norm :     0.0071891 Eh/α   predicted    -0.1204338E-03 ( -21.17%)
   displ. norm   :     0.2267237 α      lambda       -0.1565936E-03
   maximum displ.:     0.1349462 α      in ANC's #1, #2, #4, ...

........................................................................
.............................. CYCLE   50 ..............................
........................................................................

 iter      E             dE          RMSdq      gap      omega  full diag
   1    -42.6871488 -0.426871E+02  0.848E-02    1.49       0.0  T
   2    -42.6871504 -0.159752E-05  0.493E-02    1.48       1.0  T
   3    -42.6871500  0.468222E-06  0.758E-03    1.48       2.6  T
   4    -42.6871510 -0.103805E-05  0.298E-03    1.49       6.7  T
   5    -42.6871511 -0.606916E-07  0.162E-03    1.48      12.3  T
   6    -42.6871511 -0.313960E-07  0.465E-04    1.48      43.0  T
   7    -42.6871511 -0.559822E-09  0.261E-04    1.48      76.7  T
     SCC iter.                  ...        0 min,  0.010 sec
     gradient                   ...        0 min,  0.013 sec
 * total energy  :   -59.7277558 Eh     change       -0.1202307E-03 Eh
   gradient norm :     0.0165511 Eh/α   predicted    -0.8234790E-04 ( -31.51%)
   displ. norm   :     0.2579376 α      lambda       -0.1878785E-03
   maximum displ.:     0.1513535 α      in ANC's #1, #2, #4, ...

........................................................................
.............................. CYCLE   51 ..............................
........................................................................

 iter      E             dE          RMSdq      gap      omega  full diag
   1    -42.6885079 -0.426885E+02  0.977E-02    1.49       0.0  T
   2    -42.6885098 -0.193421E-05  0.571E-02    1.49       1.0  T
   3    -42.6885089  0.941942E-06  0.923E-03    1.49       2.2  T
   4    -42.6885105 -0.162866E-05  0.309E-03    1.49       6.5  T
   5    -42.6885106 -0.660592E-07  0.170E-03    1.48      11.8  T
   6    -42.6885106 -0.272025E-07  0.563E-04    1.49      35.5  T
   7    -42.6885106 -0.264264E-08  0.322E-04    1.49      62.1  T
     SCC iter.                  ...        0 min,  0.010 sec
     gradient                   ...        0 min,  0.013 sec
 * total energy  :   -59.7278914 Eh     change       -0.1356284E-03 Eh
   gradient norm :     0.0177425 Eh/α   predicted    -0.1001976E-03 ( -26.12%)
   displ. norm   :     0.2288284 α      lambda       -0.1175599E-03
   maximum displ.:     0.1242769 α      in ANC's #1, #4, #2, ...

........................................................................
.............................. CYCLE   52 ..............................
........................................................................

 iter      E             dE          RMSdq      gap      omega  full diag
   1    -42.6881995 -0.426882E+02  0.872E-02    1.49       0.0  T
   2    -42.6882009 -0.141252E-05  0.511E-02    1.49       1.0  T
   3    -42.6881998  0.115000E-05  0.894E-03    1.48       2.2  T
   4    -42.6882013 -0.158326E-05  0.287E-03    1.49       7.0  T
   5    -42.6882014 -0.103080E-06  0.125E-03    1.49      15.9  T
   6    -42.6882014 -0.554810E-08  0.482E-04    1.49      41.5  T
   7    -42.6882014 -0.218807E-08  0.249E-04    1.49      80.5  T
     SCC iter.                  ...        0 min,  0.010 sec
     gradient                   ...        0 min,  0.013 sec
 * total energy  :   -59.7279726 Eh     change       -0.8117589E-04 Eh
   gradient norm :     0.0146461 Eh/α   predicted    -0.6186555E-04 ( -23.79%)
   displ. norm   :     0.1197802 α      lambda       -0.7730409E-04
   maximum displ.:     0.0524333 α      in ANC's #4, #1, #3, ...

........................................................................
.............................. CYCLE   53 ..............................
........................................................................

 iter      E             dE          RMSdq      gap      omega  full diag
   1    -42.6900546 -0.426901E+02  0.502E-02    1.49       0.0  T
   2    -42.6900555 -0.941088E-06  0.298E-02    1.49       1.0  T
[...]
H            3.36172935862876        1.83025610735445        0.91896286521859
H            3.76187909282422       -0.77238544477741       -0.77659472931537
H           -1.65416015363911        3.08431625186145       -0.25534012291412
H           -2.87740903441470        2.02668612457248       -1.02000108946439
H           -2.83476908589275        2.18772147098380        0.73913489240816
H           -1.34053359111080       -3.15937071597666        1.00489455655508
H           -1.33773875573401       -3.21944726914740       -0.78107032941278
H           -2.71147480094290       -2.50569732470217        0.08586162649142
H            0.84829007702359       -3.14081650735116        0.18351186078419

 Bond Distances (Angstroems)
 ---------------------------
C1-N2=1.3997         C1-C3=1.5357         C1-H16=1.0836        C1-H17=1.0848        N2-C1=1.3997         N2-C3=1.4473         
N2-C6=1.2715         C3-C1=1.5357         C3-N2=1.4473         C3-H15=0.4243        C3-H18=1.1230        N4-C5=1.2684         
N4-H25=1.0119        C5-N4=1.2684         C5-C6=1.4684         C5-N13=1.3729        C6-N2=1.2715         C6-C5=1.4684         
C6-C7=1.5007         C7-C6=1.5007         C7-O8=1.2071         C7-N9=1.3591         O8-C7=1.2071         N9-C7=1.3591         
N9-C10=1.4569        N9-C11=1.4015        C10-N9=1.4569        C10-H19=1.0869       C10-H20=1.0892       C10-H21=1.0898       
C11-N9=1.4015        C11-O12=1.1968       C11-N13=1.3920       O12-C11=1.1968       N13-C5=1.3729        N13-C11=1.3920       
N13-C14=1.4568       C14-N13=1.4568       C14-H22=1.0905       C14-H23=1.0911       C14-H24=1.0875       H15-C3=0.4243        
H16-C1=1.0836        H17-C1=1.0848        H18-C3=1.1230        H19-C10=1.0869       H20-C10=1.0892       H21-C10=1.0898       
H22-C14=1.0905       H23-C14=1.0911       H24-C14=1.0875       H25-N4=1.0119        
 C  H  Rav=1.0251 sigma=0.2005  Rmin=0.4243  Rmax=1.1230    10
 C  C  Rav=1.5016 sigma=0.0275  Rmin=1.4684  Rmax=1.5357     3
 N  H  Rav=1.0119 sigma=0.0000  Rmin=1.0119  Rmax=1.0119     1
 N  C  Rav=1.3826 sigma=0.0648  Rmin=1.2684  Rmax=1.4569    10
 O  C  Rav=1.2019 sigma=0.0052  Rmin=1.1968  Rmax=1.2071     2

 selected bond angles (degree)
 --------------------
C3-C1-N2= 58.87                H16-C1-N2=116.92               H16-C1-C3=122.07               H17-C1-N2=116.64               
H17-C1-C3=118.43               H17-C1-H16=113.20              C3-N2-C1= 65.26                C6-N2-C1=147.20                
C6-N2-C3=147.52                N2-C3-C1= 55.87                H15-C3-C1=123.65               H15-C3-N2=121.54               
H18-C3-C1=110.10               H18-C3-N2=107.62               H18-C3-H15=120.78              H25-N4-C5=118.38               
C6-C5-N4=115.76                N13-C5-N4=128.49               N13-C5-C6=115.75               C5-C6-N2=120.42                
C7-C6-N2=117.98                C7-C6-C5=121.60                O8-C7-C6=120.33                N9-C7-C6=114.03                
N9-C7-O8=125.64                C10-N9-C7=118.46               C11-N9-C7=126.38               C11-N9-C10=115.16              
H19-C10-N9=108.43              H20-C10-N9=109.54              H20-C10-H19=110.57             H21-C10-N9=109.72              
H21-C10-H19=110.20             H21-C10-H20=108.38             

 selected dihedral angles (degree)
 ---------------------------------
C3-N2-C1-H16=112.89           C3-N2-C1-H17=251.38           C6-N2-C1-C3=178.57            C6-N2-C1-H16=291.45           
C6-N2-C1-H17= 69.95           N2-C3-C1-H16=255.77           N2-C3-C1-H17=105.58           H15-C3-C1-N2=252.06           
H15-C3-C1-H16=147.83          H15-C3-C1-H17=357.64          H18-C3-C1-N2= 98.13           H18-C3-C1-H16=353.90          
H18-C3-C1-H17=203.71          C1-C3-N2-C6=181.44            H15-C3-N2-C1=111.68           H15-C3-N2-C6=293.13           
H18-C3-N2-C1=257.27           H18-C3-N2-C6= 78.71           C6-C5-N4-H25=180.46           N13-C5-N4-H25=359.84          
C5-C6-N2-C1=178.61            C5-C6-N2-C3=356.19            C7-C6-N2-C1=358.04            C7-C6-N2-C3=175.62            
N2-C6-C5-N4=358.90            N2-C6-C5-N13=179.44           C7-C6-C5-N4=179.49            C7-C6-C5-N13=  0.03           
O8-C7-C6-N2=359.52            O8-C7-C6-C5=178.95            N9-C7-C6-N2=180.19            N9-C7-C6-C5=359.62            
C10-N9-C7-C6=179.57           C10-N9-C7-O8=  0.28           C11-N9-C7-C6=359.81           C11-N9-C7-O8=180.52           
H19-C10-N9-C7=  4.24          H19-C10-N9-C11=184.03         H20-C10-N9-C7=124.99          H20-C10-N9-C11=304.78         
H21-C10-N9-C7=243.84          H21-C10-N9-C11= 63.63         
           -------------------------------------------------
          |                Final Singlepoint                |
           -------------------------------------------------

          ...................................................
          :                      SETUP                      :
          :.................................................:
          :  # basis functions                  67          :
          :  # atomic orbitals                  67          :
          :  # shells                           39          :
          :  # electrons                        74          :
          :  max. iterations                   250          :
          :  Hamiltonian                  GFN2-xTB          :
          :  restarted?                      false          :
          :  GBSA solvation                  false          :
          :  PC potential                    false          :
          :  electronic temp.         2500.0000000     K    :
          :  accuracy                    1.0000000          :
          :  -> integral cutoff          0.2500000E+02      :
          :  -> integral neglect         0.1000000E-07      :
          :  -> SCF convergence          0.1000000E-05 Eh   :
          :  -> wf. convergence          0.1000000E-03 e    :
          :  Broyden damping             0.4000000          :
          ...................................................

 iter      E             dE          RMSdq      gap      omega  full diag
   1    -42.6889748 -0.426890E+02  0.118E-04    1.49       0.0  T
   2    -42.6889748 -0.674945E-10  0.799E-05    1.49     250.3  T
   3    -42.6889748 -0.676366E-10  0.514E-05    1.49     388.8  T

   *** convergence criteria satisfied after 3 iterations ***

         #    Occupation            Energy/Eh            Energy/eV
      -------------------------------------------------------------
         1        2.0000           -0.9112104             -24.7953
       ...           ...                  ...                  ...
        31        2.0000           -0.6233621             -16.9625
        32        1.9998           -0.6125522             -16.6684
        33        1.9982           -0.5934641             -16.1490
        34        1.9962           -0.5876553             -15.9909
        35        1.9913           -0.5810943             -15.8124
        36        1.9716           -0.5716462             -15.5553
        37        1.9573           -0.5683530             -15.4657 (HOMO)
        38        0.0856           -0.5134662             -13.9721 (LUMO)
        39                         -0.3988293             -10.8527
        40                         -0.3906545             -10.6303
        41                         -0.3168318              -8.6214
        42                         -0.3043838              -8.2827
       ...                                ...                  ...
        67                         10.7084295             291.3912
      -------------------------------------------------------------
                  HL-Gap            0.0548868 Eh            1.4935 eV
             Fermi-level           -0.5380680 Eh          -14.6416 eV

 SCC (total)                   0 d,  0 h,  0 min,  0.023 sec
 SCC setup                      ...        0 min,  0.000 sec (  0.827%)
 Dispersion                     ...        0 min,  0.000 sec (  0.895%)
 classical contributions        ...        0 min,  0.000 sec (  0.308%)
 integral evaluation            ...        0 min,  0.005 sec ( 21.361%)
 iterations                     ...        0 min,  0.005 sec ( 20.628%)
 molecular gradient             ...        0 min,  0.013 sec ( 55.393%)
 printout                       ...        0 min,  0.000 sec (  0.529%)

         :::::::::::::::::::::::::::::::::::::::::::::::::::::
         ::                     SUMMARY                     ::
         :::::::::::::::::::::::::::::::::::::::::::::::::::::
         :: total energy             -59.728068041064 Eh    ::
         :: gradient norm              0.003931527923 Eh/a0 ::
         :: HOMO-LUMO gap              1.493546166997 eV    ::
         ::.................................................::
         :: SCC energy               -42.688974836298 Eh    ::
         :: -> isotropic ES            0.146680295024 Eh    ::
         :: -> anisotropic ES         -0.004001498410 Eh    ::
         :: -> anisotropic XC          0.018490819215 Eh    ::
         :: -> dispersion             -0.021820986300 Eh    ::
         :: repulsion energy           2.275710329223 Eh    ::
         :: add. restraining         -19.314912004969 Eh    ::
         :: total charge               1.000000000000 e     ::
         :::::::::::::::::::::::::::::::::::::::::::::::::::::

           -------------------------------------------------
          |                Property Printout                |
           -------------------------------------------------

    * Orbital Energies and Occupations

         #    Occupation            Energy/Eh            Energy/eV
      -------------------------------------------------------------
         1        2.0000           -0.9112104             -24.7953
       ...           ...                  ...                  ...
        25        2.0000           -0.6647550             -18.0889
        26        2.0000           -0.6590085             -17.9325
        27        2.0000           -0.6553464             -17.8329
        28        2.0000           -0.6503536             -17.6970
        29        2.0000           -0.6434547             -17.5093
        30        2.0000           -0.6356017             -17.2956
        31        2.0000           -0.6233621             -16.9625
        32        1.9998           -0.6125522             -16.6684
        33        1.9982           -0.5934641             -16.1490
        34        1.9962           -0.5876553             -15.9909
        35        1.9913           -0.5810943             -15.8124
        36        1.9716           -0.5716462             -15.5553
        37        1.9573           -0.5683530             -15.4657 (HOMO)
        38        0.0856           -0.5134662             -13.9721 (LUMO)
        39                         -0.3988293             -10.8527
        40                         -0.3906545             -10.6303
        41                         -0.3168318              -8.6214
        42                         -0.3043838              -8.2827
        43                         -0.2217396              -6.0338
        44                         -0.1791057              -4.8737
        45                         -0.1421229              -3.8674
        46                         -0.1096981              -2.9850
        47                         -0.0778810              -2.1193
        48                         -0.0593674              -1.6155
       ...                                ...                  ...
        67                         10.7084295             291.3912
      -------------------------------------------------------------
                  HL-Gap            0.0548868 Eh            1.4935 eV
             Fermi-level           -0.5380680 Eh          -14.6416 eV

     #   Z          covCN         q      C6AA      α(0)
     1   6 C        3.737    -0.023    21.074     6.551
     2   7 N        2.748     0.112    19.322     6.528
     3   6 C        3.732    -0.067    21.888     6.678
     4   7 N        1.793    -0.306    28.750     7.942
     5   6 C        2.828     0.167    24.386     8.092
     6   6 C        2.900     0.058    26.700     8.472
     7   6 C        2.771     0.271    22.422     7.755
     8   8 O        0.858    -0.345    20.615     6.088
     9   7 N        2.739    -0.071    22.612     7.062
    10   6 C        3.708    -0.064    21.871     6.684
    11   6 C        2.714     0.324    21.486     7.588
    12   8 O        0.860    -0.337    20.464     6.065
    13   7 N        2.740    -0.080    22.790     7.090
    14   6 C        3.703    -0.063    21.864     6.685
    15   1 H        0.937     0.199     1.102     1.641
    16   1 H        0.925     0.137     1.485     1.906
    17   1 H        0.925     0.141     1.452     1.884
    18   1 H        0.919     0.133     1.510     1.922
    19   1 H        0.925     0.111     1.684     2.029
    20   1 H        0.925     0.107     1.721     2.052
    21   1 H        0.925     0.104     1.746     2.066
    22   1 H        0.924     0.086     1.915     2.164
    23   1 H        0.924     0.086     1.918     2.166
    24   1 H        0.925     0.119     1.620     1.990
    25   1 H        0.860     0.198     1.116     1.655

 Mol. C6AA /au·bohr⁶  :       6401.765455
 Mol. C8AA /au·bohr⁸  :     146822.015279
 Mol. α(0) /au        :        120.757872


Wiberg/Mayer (AO) data.
largest (>0.10) Wiberg bond orders for each atom

 ---------------------------------------------------------------------------
     #   Z sym  total        # sym  WBO       # sym  WBO       # sym  WBO
 ---------------------------------------------------------------------------
     1   6 C    3.888 --     2 N    0.980     3 C    0.963    16 H    0.941
                            17 H    0.935
     2   7 N    3.688 --     6 C    1.634     1 C    0.980     3 C    0.937
     3   6 C    3.848 --     1 C    0.963     2 N    0.937    15 H    0.936
                            18 H    0.922
     4   7 N    2.988 --     5 C    1.709    25 H    0.925    13 N    0.159
     5   6 C    3.970 --     4 N    1.709    13 N    1.140     6 C    1.029
     6   6 C    3.896 --     2 N    1.634     5 C    1.029     7 C    0.957
     7   6 C    3.962 --     8 O    1.705     9 N    1.195     6 C    0.957
     8   8 O    2.068 --     7 C    1.705     9 N    0.183
     9   7 N    3.582 --     7 C    1.195    11 C    1.056    10 C    0.966
                             8 O    0.183    12 O    0.102
    10   6 C    3.910 --    19 H    0.971     9 N    0.966    20 H    0.962
                            21 H    0.960
    11   6 C    3.959 --    12 O    1.729    13 N    1.087     9 N    1.056
    12   8 O    2.089 --    11 C    1.729    13 N    0.120     9 N    0.102
    13   7 N    3.547 --     5 C    1.140    11 C    1.087    14 C    0.971
                             4 N    0.159    12 O    0.120
    14   6 C    3.922 --    13 N    0.971    22 H    0.968    23 H    0.967
                            24 H    0.966
    15   1 H    0.959 --     3 C    0.936
    16   1 H    0.978 --     1 C    0.941
    17   1 H    0.976 --     1 C    0.935
    18   1 H    0.977 --     3 C    0.922
    19   1 H    0.987 --    10 C    0.971
    20   1 H    0.983 --    10 C    0.962
    21   1 H    0.983 --    10 C    0.960
    22   1 H    0.989 --    14 C    0.968
    23   1 H    0.989 --    14 C    0.967
    24   1 H    0.985 --    14 C    0.966
    25   1 H    0.957 --     4 N    0.925
 ---------------------------------------------------------------------------

Topologies differ in total number of bonds
Writing topology from bond orders to xtbtopo.mol

molecular dipole:
                 x           y           z       tot (Debye)
 q only:        2.530      -0.518       0.049
   full:        2.227      -0.726      -0.009       5.954
molecular quadrupole (traceless):
                xx          xy          yy          xz          yz          zz
 q only:       18.466       1.368      -1.198       0.017      -0.587     -17.267
  q+dip:       12.197       2.519      -0.958      -1.387       0.160     -11.240
   full:       11.006       2.321      -1.385      -1.365       0.071      -9.621

           -------------------------------------------------
          |                Geometry Summary                 |
           -------------------------------------------------

      molecular mass/u    :      195.1988581
   center of mass at/Å    :        0.0265385       0.0246468       0.0121281
  moments of inertia/u·Å² :        0.4670219E+03   0.7898282E+03   0.1244851E+04
rotational constants/cm⁻¹ :        0.3609602E-01   0.2134342E-01   0.1354188E-01

 * 23 selected distances

     #   Z          #   Z                                           value/Å
     1   6 C        2   7 N                                       1.3997253
     1   6 C        3   6 C                                       1.5357142 (max)
     2   7 N        3   6 C                                       1.4473381
     4   7 N        5   6 C                                       1.2683909
     2   7 N        6   6 C                                       1.2715272
     7   6 C        8   8 O                                       1.2071148
     7   6 C        9   7 N                                       1.3591132
     9   7 N       10   6 C                                       1.4568946
     9   7 N       11   6 C                                       1.4014961
    11   6 C       12   8 O                                       1.1967819
     5   6 C       13   7 N                                       1.3728763
    11   6 C       13   7 N                                       1.3919972
    13   7 N       14   6 C                                       1.4568049
     3   6 C       15   1 H                                       0.4243401 (min)
     1   6 C       16   1 H                                       1.0835959
     1   6 C       17   1 H                                       1.0847730
     3   6 C       18   1 H                                       1.1229749
    10   6 C       19   1 H                                       1.0868588
    10   6 C       20   1 H                                       1.0891887
    10   6 C       21   1 H                                       1.0897805
    14   6 C       22   1 H                                       1.0904614
    14   6 C       23   1 H                                       1.0910517
    14   6 C       24   1 H                                       1.0875102

 * 4 distinct bonds (by element types)

   Z      Z             #   av. dist./Å        max./Å        min./Å
   1 H    6 C          10     1.0250535     1.1229749     0.4243401
   6 C    6 C           1     1.5357142     1.5357142     1.5357142
   6 C    7 N          10     1.3826164     1.4568946     1.2683909
   6 C    8 O           2     1.2019483     1.2071148     1.1967819


optimized geometry written to: xtbopt.xyz


           -------------------------------------------------
          | TOTAL ENERGY              -59.728068041064 Eh   |
          | GRADIENT NORM               0.003931527923 Eh/α |
          | HOMO-LUMO GAP               1.493546166997 eV   |
           -------------------------------------------------

------------------------------------------------------------------------
 * finished run on 2024/06/05 at 19:58:10.459     
------------------------------------------------------------------------
 total:
 * wall-time:     0 d,  0 h,  0 min,  1.886 sec
 *  cpu-time:     0 d,  0 h,  0 min,  1.765 sec
 * ratio c/w:     0.936 speedup
 SCF:
 * wall-time:     0 d,  0 h,  0 min,  0.061 sec
 *  cpu-time:     0 d,  0 h,  0 min,  0.037 sec
 * ratio c/w:     0.605 speedup
 ANC optimizer:
 * wall-time:     0 d,  0 h,  0 min,  1.780 sec
 *  cpu-time:     0 d,  0 h,  0 min,  1.716 sec
 * ratio c/w:     0.964 speedup

