25
 energy: -4.367368323504 xtb: 6.6.1 (8d0f1dd)
C            3.25529202277445        1.16255564803365        0.09028274574115
N            2.30936793069737        0.09682173289586        0.03511770757476
C            2.61065972740272       -1.24812300933202        0.02879385038936
N            1.43118557839199       -1.95441349841013       -0.00177096917464
C            0.40784141417304       -1.07532174647942       -0.00313468841664
C            0.91340976853851        0.21448797719348        0.02415984763116
C            0.09335683496542        1.37243036108747       -0.00091241898858
O            0.48708488624624        2.54264523365889        0.01026719818067
N           -1.31572955029608        1.06750234278469       -0.05166097419632
C           -2.27465658606452        2.20487735679279       -0.07061932199700
C           -1.83023796136769       -0.20099429280455       -0.03057346709888
O           -3.02368041172234       -0.42094463497725       -0.04152996124219
N           -0.93274760742384       -1.30692689194696       -0.01685672780839
C           -1.45245318246123       -2.65604244182117       -0.05274409206299
H            3.73859215915760        1.20542412961301        1.07156981891138
H            4.02451044369910        1.02800425520310       -0.67410443221705
H            2.71465775044294        2.08921400439740       -0.08238428809832
H            3.58903479408412       -1.66275742779004        0.03550525356252
H           -1.71107361157110        3.13766720555912       -0.01501176045316
H           -2.89389792782032        2.23281108653391       -0.96585983953554
H           -2.94687403309762        2.12781119769816        0.78232601176476
H           -1.14253757621246       -3.21628586166554        0.83350243161436
H           -1.11932654299174       -3.18565126896451       -0.95021013717761
H           -2.53814004149697       -2.57857305912770       -0.06745266746286
H            1.38439038042788       -2.96103269269197       -0.02331025867279
