72
 energy: -99.306400619342 gnorm: 0.001206576844 xtb: 6.6.1 (8d0f1dd)
N           -2.01134928010863        2.63753840549867        2.36710802111493
C           -1.89510237150037        2.07477082125657        1.25700412678199
C           -3.02219840323925        1.89681336377498        0.27324819280482
C           -3.54922817972115        0.47873169615726        0.35988472061041
C           -4.43437896138392       -0.01055934007315       -0.55822398448526
C           -4.89487989317258       -1.33969536898195       -0.54436129819199
O           -5.80827032728219       -1.84821938624159       -1.36943889459355
C           -6.50978332331294       -1.00980967241737       -2.26260281187570
C           -4.34009936151894       -2.25970934076175        0.42002212457296
O           -4.73118513897533       -3.54846953406560        0.28508816884132
C           -4.27133122622893       -4.43102019670228        1.28295158410942
C           -3.51421153004497       -1.79303379798689        1.38281419471952
C           -3.11414971177009       -0.39009126423446        1.50017096127215
C           -2.43174682685799        2.16097039253384       -1.13854279161908
C           -1.50725355513780        1.05099850782748       -1.66929005517332
C           -0.17168835152449        1.03611763478645       -1.02953828936729
N            0.49737095130425       -0.05649124743014       -0.66644135740388
C            1.87929152719097        0.03795581102434       -0.25788155324084
C            2.84574859650253       -0.37355610274109       -1.38535554762895
C            4.26536635081076       -0.16230089553344       -0.93893664751849
C            4.90273362996915        1.04716000121406       -1.16084357702509
C            6.20195503918494        1.25577603851504       -0.72413583865622
C            6.88872630256918        0.25734060935566       -0.04898729497065
O            8.14838005135247        0.34752086797439        0.41741603595178
C            8.87686350745566        1.53447819832344        0.20353351779079
C            6.24077609571066       -0.98631527913994        0.18844540744708
O            6.97988366021771       -1.90011779186305        0.84905520315532
C            6.43471441660293       -3.17186584095609        1.10663377706577
C            4.94189993340932       -1.17155415946528       -0.25748788605878
C           -0.05929814041021       -1.38186506930903       -0.79566229956630
C           -4.21140372986762        2.88072467361775        0.52608962255315
C           -4.94993695349585        2.56270428536589        1.82401704589463
C           -3.77580104547579        4.34341084060410        0.52889295401586
H           -4.79290461903951        0.63702577390150       -1.34440446666621
H           -7.00088932641547       -0.18722955152899       -1.73549829958268
H           -7.26265332360274       -1.64344419104143       -2.72734040462008
H           -5.84858384116557       -0.60964472153578       -3.03728245188248
H           -4.58796302584191       -4.09535903560967        2.27434876750154
H           -4.70844643836625       -5.40084689884485        1.05756903197977
H           -3.17896912295068       -4.49831543013905        1.26888739257925
H           -3.53754633589681        0.01952954120534        2.43028121797077
H           -2.02884727413067       -0.32257969591437        1.64684750300964
H           -3.25368299725644        2.28262900295390       -1.84321006241831
H           -1.87856468327519        3.10036144928621       -1.11427869040845
H           -2.00442153319331        0.08579929117655       -1.58385413481258
H           -1.35788099261958        1.24989222898452       -2.73904212069899
H           -0.94235600169386        1.66421094726289        0.86843550770160
H            0.37227974253253        1.96800191563591       -0.98833563181612
H            2.04071043595136       -0.60621529404284        0.61097289944503
H            2.09855979130305        1.06671351749591        0.03504339001894
H            2.63788902488776        0.23637006637928       -2.26616139771093
H            2.68404845356100       -1.42081231133834       -1.64301106771482
H            4.39322514187536        1.83762500772053       -1.69081093796709
H            6.67437877285619        2.20433133639198       -0.91962268627668
H            8.40112532637309        2.39038377826354        0.69202534287394
H            8.99807424486641        1.74306160276000       -0.86365133945528
H            9.85387552229245        1.36165419491579        0.65062402407880
H            7.21571095786273       -3.72481245251246        1.62484590129335
H            5.55106891603381       -3.10731893889648        1.74980942439541
H            6.17667280502686       -3.69347426701276        0.17973174692857
H            4.44476200346032       -2.11430777386511       -0.09032750535887
H           -0.13419505846485       -1.67854704346921       -1.84465228670575
H           -1.05362156385280       -1.43330467364105       -0.35013428839067
H            0.58310565998250       -2.09083226292936       -0.27921432930831
H           -4.91175640619018        2.73649044510920       -0.30443713030149
H           -4.27457741117276        2.65270426479553        2.66869905421373
H           -5.37342014014417        1.56140528685941        1.80310235177955
H           -5.76446019915263        3.26961542369810        1.95810981900596
H           -3.06426416032272        4.52616898197745        1.32818969458041
H           -3.33492289221365        4.63891258090547       -0.41929239664006
H           -4.64513133737724        4.97261967773533        0.70038907122842
H           -1.17932626877719        2.71733988948079        2.94326879942618
