      -----------------------------------------------------------      
     |                   =====================                   |     
     |                           x T B                           |     
     |                   =====================                   |     
     |                         S. Grimme                         |     
     |          Mulliken Center for Theoretical Chemistry        |     
     |                    University of Bonn                     |     
      -----------------------------------------------------------      

   * xtb version 6.6.1 (8d0f1dd) compiled by 'conda@1efc2f54142f' on 2023-08-01

   xtb is free software: you can redistribute it and/or modify it under
   the terms of the GNU Lesser General Public License as published by
   the Free Software Foundation, either version 3 of the License, or
   (at your option) any later version.
   
   xtb is distributed in the hope that it will be useful,
   but WITHOUT ANY WARRANTY; without even the implied warranty of
   MERCHANTABILITY or FITNESS FOR A PARTICULAR PURPOSE.  See the
   GNU Lesser General Public License for more details.
   
   Cite this work as:
   * C. Bannwarth, E. Caldeweyher, S. Ehlert, A. Hansen, P. Pracht,
     J. Seibert, S. Spicher, S. Grimme, WIREs Comput. Mol. Sci., 2020, 11,
     e01493. DOI: 10.1002/wcms.1493
   
   for GFN2-xTB:
   * C. Bannwarth, S. Ehlert and S. Grimme., J. Chem. Theory Comput., 2019,
     15, 1652-1671. DOI: 10.1021/acs.jctc.8b01176
   for GFN1-xTB:
   * S. Grimme, C. Bannwarth, P. Shushkov, J. Chem. Theory Comput., 2017,
     13, 1989-2009. DOI: 10.1021/acs.jctc.7b00118
   for GFN0-xTB:
   * P. Pracht, E. Caldeweyher, S. Ehlert, S. Grimme, ChemRxiv, 2019, preprint.
     DOI: 10.26434/chemrxiv.8326202.v1
   for GFN-FF:
   * S. Spicher and S. Grimme, Angew. Chem. Int. Ed., 2020, 59, 15665-15673.
     DOI: 10.1002/anie.202004239
   
   for ALPB and GBSA implicit solvation:
   * S. Ehlert, M. Stahn, S. Spicher, S. Grimme, J. Chem. Theory Comput.,
     2021, 17, 4250-4261. DOI: 10.1021/acs.jctc.1c00471
   
   for DFT-D4:
   * E. Caldeweyher, C. Bannwarth and S. Grimme, J. Chem. Phys., 2017,
     147, 034112. DOI: 10.1063/1.4993215
   * E. Caldeweyher, S. Ehlert, A. Hansen, H. Neugebauer, S. Spicher,
     C. Bannwarth and S. Grimme, J. Chem. Phys., 2019, 150, 154122.
     DOI: 10.1063/1.5090222
   * E. Caldeweyher, J.-M. Mewes, S. Ehlert and S. Grimme, Phys. Chem. Chem. Phys.
     2020, 22, 8499-8512. DOI: 10.1039/D0CP00502A
   
   for sTDA-xTB:
   * S. Grimme and C. Bannwarth, J. Chem. Phys., 2016, 145, 054103.
     DOI: 10.1063/1.4959605
   
   in the mass-spec context:
   * V. Asgeirsson, C. Bauer and S. Grimme, Chem. Sci., 2017, 8, 4879.
     DOI: 10.1039/c7sc00601b
   * J. Koopman and S. Grimme, ACS Omega 2019, 4, 12, 15120-15133.
     DOI: 10.1021/acsomega.9b02011
   
   for metadynamics refer to:
   * S. Grimme, J. Chem. Theory Comput., 2019, 155, 2847-2862
     DOI: 10.1021/acs.jctc.9b00143
   
   for SPH calculations refer to:
   * S. Spicher and S. Grimme, J. Chem. Theory Comput., 2021, 17, 1701-1714
     DOI: 10.1021/acs.jctc.0c01306
   
   with help from (in alphabetical order)
   P. Atkinson, C. Bannwarth, F. Bohle, G. Brandenburg, E. Caldeweyher
   M. Checinski, S. Dohm, S. Ehlert, S. Ehrlich, I. Gerasimov, C. Hölzer
   A. Katbashev, J. Koopman, C. Lavigne, S. Lehtola, F. März, M. Müller,
   F. Musil, H. Neugebauer, J. Pisarek, C. Plett, P. Pracht, F. Pultar,
   J. Seibert, P. Shushkov, S. Spicher, M. Stahn, M. Steiner, T. Strunk,
   J. Stückrath, T. Rose, and J. Unsleber
   
 * started run on 2024/06/05 at 19:58:10.688     

           -------------------------------------------------
          |                Calculation Setup                |
           -------------------------------------------------

          program call               : xtb xtbopt.xyz --opt crude --input .xc2 --gfn2
          hostname                   : n-62-21-71
          coordinate file            : xtbopt.xyz
          omp threads                :                     1

   ID    Z sym.   atoms
    1    6 C      1, 3, 5-7, 10, 11, 14
    2    7 N      2, 4, 9, 13
    3    8 O      8, 12
    4    1 H      15-25
########################################################################
[WARNING] Please study the warnings concerning your input carefully
-1- readin_getIntValue: could not parse ''
########################################################################

           -------------------------------------------------
          |                 G F N 2 - x T B                 |
           -------------------------------------------------

        Reference                      10.1021/acs.jctc.8b01176
      * Hamiltonian:
        H0-scaling (s, p, d)           1.850000    2.230000    2.230000
        zeta-weighting                 0.500000
      * Dispersion:
        s8                             2.700000
        a1                             0.520000
        a2                             5.000000
        s9                             5.000000
      * Repulsion:
        kExp                           1.500000    1.000000
        rExp                           1.000000
      * Coulomb:
        alpha                          2.000000
        third order                    shell-resolved
        anisotropic                    true
        a3                             3.000000
        a5                             4.000000
        cn-shift                       1.200000
        cn-exp                         4.000000
        max-rad                        5.000000

q/qsh data taken from xtbrestart
CAMM data taken from xtbrestart

          ...................................................
          :                      SETUP                      :
          :.................................................:
          :  # basis functions                  67          :
          :  # atomic orbitals                  67          :
          :  # shells                           39          :
          :  # electrons                        74          :
          :  max. iterations                   250          :
          :  Hamiltonian                  GFN2-xTB          :
          :  restarted?                       true          :
          :  GBSA solvation                  false          :
          :  PC potential                    false          :
          :  electronic temp.         2500.0000000     K    :
          :  accuracy                    1.0000000          :
          :  -> integral cutoff          0.2500000E+02      :
          :  -> integral neglect         0.1000000E-07      :
          :  -> SCF convergence          0.1000000E-05 Eh   :
          :  -> wf. convergence          0.1000000E-03 e    :
          :  Broyden damping             0.4000000          :
          ...................................................

 iter      E             dE          RMSdq      gap      omega  full diag
   1    -42.6080698 -0.426081E+02  0.223E-05    0.41       0.0  T
   2    -42.6080698  0.225022E-09  0.938E-05    0.41     213.2  T
   3    -42.6080698 -0.228646E-09  0.152E-05    0.41    1317.7  T

   *** convergence criteria satisfied after 3 iterations ***

         #    Occupation            Energy/Eh            Energy/eV
      -------------------------------------------------------------
         1        2.0000           -0.9279717             -25.2514
       ...           ...                  ...                  ...
        31        2.0000           -0.6212064             -16.9039
        32        2.0000           -0.5954590             -16.2033
        33        1.9998           -0.5789127             -15.7530
        34        1.9987           -0.5652066             -15.3801
        35        1.9981           -0.5624036             -15.3038
        36        1.9968           -0.5580984             -15.1866
        37        1.4435           -0.5147851             -14.0080 (HOMO)
        38        0.5632           -0.4998253             -13.6009 (LUMO)
        39        0.0000           -0.4095318             -11.1439
        40        0.0000           -0.3796235             -10.3301
        41                         -0.2966349              -8.0718
        42                         -0.2457457              -6.6871
       ...                                ...                  ...
        67                          3.6384484              99.0072
      -------------------------------------------------------------
                  HL-Gap            0.0149598 Eh            0.4071 eV
             Fermi-level           -0.5072394 Eh          -13.8027 eV

 SCC (total)                   0 d,  0 h,  0 min,  0.026 sec
 SCC setup                      ...        0 min,  0.000 sec (  1.141%)
 Dispersion                     ...        0 min,  0.000 sec (  1.388%)
 classical contributions        ...        0 min,  0.000 sec (  0.369%)
 integral evaluation            ...        0 min,  0.006 sec ( 24.657%)
 iterations                     ...        0 min,  0.006 sec ( 22.760%)
 molecular gradient             ...        0 min,  0.013 sec ( 49.057%)
 printout                       ...        0 min,  0.000 sec (  0.575%)

         :::::::::::::::::::::::::::::::::::::::::::::::::::::
         ::                     SUMMARY                     ::
         :::::::::::::::::::::::::::::::::::::::::::::::::::::
         :: total energy             -41.056157299098 Eh    ::
         :: gradient norm              5.851411405428 Eh/a0 ::
         :: HOMO-LUMO gap              0.407077994824 eV    ::
         ::.................................................::
         :: SCC energy               -42.608069831628 Eh    ::
         :: -> isotropic ES            0.149710047027 Eh    ::
         :: -> anisotropic ES          0.001555438180 Eh    ::
         :: -> anisotropic XC          0.012431197749 Eh    ::
         :: -> dispersion             -0.023113493416 Eh    ::
         :: repulsion energy           1.551768488155 Eh    ::
         :: add. restraining           0.000000000000 Eh    ::
         :: total charge               1.000000000000 e     ::
         :::::::::::::::::::::::::::::::::::::::::::::::::::::

      ----------------------------------------------------------- 
     |                   =====================                   |
     |                        A N C O P T                        |
     |                   =====================                   |
     |               Approximate Normal Coordinate               |
     |                Rational Function Optimizer                |
      ----------------------------------------------------------- 

          ...................................................
          :                      SETUP                      :
          :.................................................:
          :   optimization level             crude          :
          :   max. optcycles                   200          :
          :   ANC micro-cycles                  20          :
          :   degrees of freedom                69          :
          :.................................................:
          :   RF solver                   davidson          :
          :   write xtbopt.log                true          :
          :   linear?                        false          :
          :   energy convergence         0.5000000E-03 Eh   :
          :   grad. convergence          0.1000000E-01 Eh/α :
          :   maxmium RF displ.          1.0000000          :
          :   Hlow (freq-cutoff)         0.1000000E-01      :
          :   Hmax (freq-cutoff)         5.0000000          :
          :   S6 in model hess.         20.0000000          :
          ...................................................

generating ANC from model Hessian ...
Using Lindh-Hessian (1995)
 Shifting diagonal of input Hessian by    7.0236549642221768E-003
 Lowest  eigenvalues of input Hessian
    0.000000    0.000000    0.000000    0.000000    0.000000    0.000000
    0.010000    0.011066    0.012706    0.015412    0.017438    0.018529
    0.021399    0.023709    0.026410    0.029521    0.033651    0.047202
 Highest eigenvalues
    2.264721    2.399693    2.546820    3.496273    3.566610    3.808990


........................................................................
.............................. CYCLE    1 ..............................
........................................................................

 iter      E             dE          RMSdq      gap      omega  full diag
   1    -42.6080698 -0.426081E+02  0.665E-06    0.41       0.0  T
   2    -42.6080698  0.615330E-11  0.159E-05    0.41    1257.9  T
   3    -42.6080698 -0.448352E-11  0.981E-06    0.41    2038.3  T
     SCC iter.                  ...        0 min,  0.005 sec
     gradient                   ...        0 min,  0.013 sec
 * total energy  :   -41.0561573 Eh     change       -0.2188472E-11 Eh
   gradient norm :     5.8514114 Eh/α   predicted     0.0000000E+00 (-100.00%)
   displ. norm   :     0.7461711 α      lambda       -0.4356642E+01
   maximum displ.:     0.7286127 α      in ANC's #68, #69, #43, ...

........................................................................
.............................. CYCLE    2 ..............................
........................................................................

 iter      E             dE          RMSdq      gap      omega  full diag
   1    -42.5767417 -0.425767E+02  0.938E-01    1.06       0.0  T
   2    -42.5519796  0.247622E-01  0.119E+00    1.18       1.0  T
   3    -42.5539046 -0.192503E-02  0.112E+00    1.00       1.0  T
   4    -42.5835406 -0.296360E-01  0.250E-01    1.04       1.0  T
   5    -42.5840991 -0.558525E-03  0.950E-02    1.02       1.0  T
   6    -42.5842281 -0.129025E-03  0.257E-02    1.02       1.0  T
   7    -42.5842285 -0.392094E-06  0.998E-03    1.02       2.0  T
   8    -42.5842291 -0.600439E-06  0.342E-03    1.02       5.8  T
   9    -42.5842293 -0.191128E-06  0.943E-04    1.02      21.2  T
  10    -42.5842293 -0.274104E-08  0.428E-04    1.02      46.7  T
     SCC iter.                  ...        0 min,  0.014 sec
     gradient                   ...        0 min,  0.013 sec
 * total energy  :   -42.0637898 Eh     change       -0.1007633E+01 Eh
   gradient norm :     0.0886519 Eh/α   predicted    -0.3391152E+01 ( 236.55%)
   displ. norm   :     0.2480398 α      lambda       -0.1217390E-01
   maximum displ.:     0.0802167 α      in ANC's #10, #9, #32, ...

........................................................................
.............................. CYCLE    3 ..............................
........................................................................

 iter      E             dE          RMSdq      gap      omega  full diag
   1    -42.5785230 -0.425785E+02  0.456E-01    0.94       0.0  T
   2    -42.5239187  0.546043E-01  0.152E+00    1.22       1.0  T
   3    -42.5824665 -0.585477E-01  0.128E-01    0.97       1.0  T
   4    -42.5824074  0.590592E-04  0.776E-02    0.97       1.0  T
   5    -42.5825074 -0.100016E-03  0.285E-02    0.97       1.0  T
   6    -42.5825163 -0.892163E-05  0.164E-02    0.97       1.2  T
   7    -42.5825207 -0.432148E-05  0.558E-03    0.97       3.6  T
   8    -42.5825213 -0.590883E-06  0.729E-04    0.97      27.4  T
   9    -42.5825213 -0.901551E-09  0.557E-04    0.97      35.9  T
     SCC iter.                  ...        0 min,  0.012 sec
     gradient                   ...        0 min,  0.013 sec
 * total energy  :   -42.0717641 Eh     change       -0.7974317E-02 Eh
   gradient norm :     0.0345237 Eh/α   predicted    -0.6472805E-02 ( -18.83%)
   displ. norm   :     0.2508779 α      lambda       -0.3451922E-02
   maximum displ.:     0.1467042 α      in ANC's #2, #1, #8, ...

........................................................................
.............................. CYCLE    4 ..............................
........................................................................

 iter      E             dE          RMSdq      gap      omega  full diag
   1    -42.5807670 -0.425808E+02  0.188E-01    0.89       0.0  T
   2    -42.5705768  0.101903E-01  0.652E-01    0.97       1.0  T
   3    -42.5813044 -0.107276E-01  0.697E-02    0.91       1.0  T
   4    -42.5812854  0.189973E-04  0.431E-02    0.91       1.0  T
   5    -42.5813148 -0.294185E-04  0.192E-02    0.91       1.0  T
   6    -42.5813199 -0.504276E-05  0.105E-02    0.91       1.9  T
   7    -42.5813218 -0.199583E-05  0.245E-03    0.91       8.2  T
   8    -42.5813220 -0.111350E-06  0.306E-04    0.91      65.3  T
   9    -42.5813220 -0.112635E-09  0.170E-04    0.91     117.9  T
     SCC iter.                  ...        0 min,  0.012 sec
     gradient                   ...        0 min,  0.013 sec
 * total energy  :   -42.0740607 Eh     change       -0.2296508E-02 Eh
   gradient norm :     0.0157584 Eh/α   predicted    -0.1835038E-02 ( -20.09%)
   displ. norm   :     0.2327823 α      lambda       -0.1089792E-02
   maximum displ.:     0.1579424 α      in ANC's #2, #1, #8, ...

........................................................................
.............................. CYCLE    5 ..............................
........................................................................

 iter      E             dE          RMSdq      gap      omega  full diag
   1    -42.5811495 -0.425811E+02  0.780E-02    0.88       0.0  T
   2    -42.5809093  0.240236E-03  0.114E-01    0.89       1.0  T
   3    -42.5810468 -0.137475E-03  0.769E-02    0.88       1.0  T
   4    -42.5811657 -0.118950E-03  0.235E-02    0.88       1.0  T
   5    -42.5811736 -0.787136E-05  0.795E-03    0.88       2.5  T
   6    -42.5811748 -0.120871E-05  0.331E-03    0.88       6.0  T
   7    -42.5811749 -0.160769E-06  0.912E-04    0.88      21.9  T
   8    -42.5811750 -0.127448E-07  0.284E-04    0.88      70.5  T
     SCC iter.                  ...        0 min,  0.011 sec
     gradient                   ...        0 min,  0.013 sec
 * total energy  :   -42.0747490 Eh     change       -0.6883081E-03 Eh
   gradient norm :     0.0078871 Eh/α   predicted    -0.5744491E-03 ( -16.54%)
   displ. norm   :     0.1381311 α      lambda       -0.2523852E-03
   maximum displ.:     0.0991899 α      in ANC's #2, #1, #8, ...

........................................................................
.............................. CYCLE    6 ..............................
........................................................................

 iter      E             dE          RMSdq      gap      omega  full diag
   1    -42.5821080 -0.425821E+02  0.548E-02    0.89       0.0  T
   2    -42.5816258  0.482245E-03  0.139E-01    0.88       1.0  T
   3    -42.5820806 -0.454827E-03  0.517E-02    0.89       1.0  T
   4    -42.5821300 -0.494401E-04  0.900E-03    0.89       2.2  T
   5    -42.5821314 -0.138337E-05  0.151E-03    0.89      13.2  T
   6    -42.5821314 -0.235410E-07  0.867E-04    0.89      23.1  T
   7    -42.5821315 -0.476302E-08  0.363E-04    0.89      55.1  T
     SCC iter.                  ...        0 min,  0.010 sec
     gradient                   ...        0 min,  0.013 sec
 * total energy  :   -42.0749225 Eh     change       -0.1735702E-03 Eh
   gradient norm :     0.0052658 Eh/α   predicted    -0.1286194E-03 ( -25.90%)
   displ. norm   :     0.1133114 α      lambda       -0.1369725E-03
   maximum displ.:     0.0771015 α      in ANC's #2, #1, #8, ...

   *** GEOMETRY OPTIMIZATION CONVERGED AFTER 6 ITERATIONS ***

------------------------------------------------------------------------
 total energy gain   :        -1.0187652 Eh     -639.2848 kcal/mol
 total RMSD          :         0.2142368 a0        0.1134 Å
 total power (kW/mol):      -445.7946260 (step)********** (real)
------------------------------------------------------------------------

 ANCopt (total)                0 d,  0 h,  0 min,  0.187 sec
 optimizer setup                ...        0 min,  0.000 sec (  0.157%)
 model hessian                  ...        0 min,  0.008 sec (  4.027%)
 ANC generation                 ...        0 min,  0.001 sec (  0.457%)
 coordinate transformation      ...        0 min,  0.000 sec (  0.032%)
 single point calculation       ...        0 min,  0.175 sec ( 93.204%)
 optimization log               ...        0 min,  0.002 sec (  0.960%)
 hessian update                 ...        0 min,  0.000 sec (  0.039%)
 rational function              ...        0 min,  0.002 sec (  0.903%)

================
 final structure:
================
25
 xtb: 6.6.1 (8d0f1dd)
C            3.15680643535403        1.15603156342702        0.62936394928803
N            2.35429466869206        0.19065205697093       -0.11214179674137
C            2.61746722796442       -1.20069152503489       -0.13532082393066
N            1.44320843185651       -1.90154229666358       -0.08911062544167
C            0.40078129817670       -1.02735267028297       -0.05487479648159
C            0.90791991397436        0.25462640234927       -0.07233915513946
C            0.07195971540603        1.42830436436360       -0.10983555344684
O            0.47224080058547        2.56432995850580       -0.19645832861928
N           -1.27681383903571        1.07896050583730       -0.05626014711802
C           -2.24822081661415        2.16718582691614       -0.05762449359027
C           -1.82268037428890       -0.18674478497161        0.00493178926161
O           -3.00065337121214       -0.38719954765636        0.06376986786395
N           -0.91358948152992       -1.27968668636146       -0.01869944314531
C           -1.44096187187976       -2.62909460844957        0.04978364333065
H            4.19865016834068        0.92188575964909        0.74028794882019
H            2.67567577031278        0.61594494214180       -1.01626258249553
H            2.81927281112076        2.17432100820176        0.55799051455330
H            3.59080836012213       -1.63253328796534       -0.04133857150042
H           -1.70241958692370        3.10401612435872        0.01907151240098
H           -2.82744777430461        2.14666782577362       -0.98011715080725
H           -2.92880820356829        2.04975417179140        0.78368284150344
H           -1.07062962051435       -3.13821609543257        0.94013925999872
H           -1.17762326808159       -3.19231687052512       -0.84565427651329
H           -2.52592274043711       -2.54976737166836        0.11207000266759
H            1.38711686058593       -2.90929622367501       -0.08388196681872

 Bond Distances (Angstroems)
 ---------------------------
C1-N2=1.4580         C1-H15=1.0736        C1-H17=1.0751        N2-C1=1.4580         N2-C3=1.4162         N2-C6=1.4483         
N2-H16=1.0496        C3-N2=1.4162         C3-N4=1.3683         C3-H18=1.0690        N4-C3=1.3683         N4-C5=1.3609         
N4-H25=1.0093        C5-N4=1.3609         C5-C6=1.3788         C5-N13=1.3389        C6-N2=1.4483         C6-C5=1.3788         
C6-C7=1.4414         C7-C6=1.4414         C7-O8=1.2076         C7-N9=1.3943         O8-C7=1.2076         N9-C7=1.3943         
N9-C10=1.4587        N9-C11=1.3798        C10-N9=1.4587        C10-H19=1.0869       C10-H20=1.0895       C10-H21=1.0885       
C11-N9=1.3798        C11-O12=1.1964       C11-N13=1.4218       O12-C11=1.1964       N13-C5=1.3389        N13-C11=1.4218       
N13-C14=1.4504       C14-N13=1.4504       C14-H22=1.0905       C14-H23=1.0901       C14-H24=1.0896       H15-C1=1.0736        
H16-N2=1.0496        H17-C1=1.0751        H18-C3=1.0690        H19-C10=1.0869       H20-C10=1.0895       H21-C10=1.0885       
H22-C14=1.0905       H23-C14=1.0901       H24-C14=1.0896       H25-N4=1.0093        
 C  H  Rav=1.0836 sigma=0.0080  Rmin=1.0690  Rmax=1.0905     9
 C  C  Rav=1.4101 sigma=0.0313  Rmin=1.3788  Rmax=1.4414     2
 N  H  Rav=1.0294 sigma=0.0201  Rmin=1.0093  Rmax=1.0496     2
 N  C  Rav=1.4087 sigma=0.0408  Rmin=1.3389  Rmax=1.4587    11
 O  C  Rav=1.2020 sigma=0.0056  Rmin=1.1964  Rmax=1.2076     2

 selected bond angles (degree)
 --------------------
H15-C1-N2=116.25               H17-C1-N2=114.87               H17-C1-H15=121.20              C3-N2-C1=123.82                
C6-N2-C1=120.43                C6-N2-C3=103.26                H16-N2-C1= 90.07               H16-N2-C3=109.09               
H16-N2-C6=108.15               N4-C3-N2=110.07                H18-C3-N2=124.38               H18-C3-N4=124.86               
C5-N4-C3=109.22                H25-N4-C3=124.01               H25-N4-C5=126.77               C6-C5-N4=108.37                
N13-C5-N4=129.17               N13-C5-C6=122.46               C5-C6-N2=109.06                C7-C6-N2=127.91                
C7-C6-C5=122.96                O8-C7-C6=125.14                N9-C7-C6=110.85                N9-C7-O8=123.99                
C10-N9-C7=117.21               C11-N9-C7=127.90               C11-N9-C10=114.89              H19-C10-N9=107.97              
H20-C10-N9=109.93              H20-C10-H19=110.06             H21-C10-N9=109.58              H21-C10-H19=110.64             
H21-C10-H20=108.66             

 selected dihedral angles (degree)
 ---------------------------------
C3-N2-C1-H15= 30.95           C3-N2-C1-H17=180.86           C6-N2-C1-H15=166.48           C6-N2-C1-H17=316.40           
H16-N2-C1-H15=277.71          H16-N2-C1-H17= 67.63          N4-C3-N2-C1=140.64            N4-C3-N2-C6=358.99            
N4-C3-N2-H16=244.14           H18-C3-N2-C1=329.80           H18-C3-N2-C6=188.16           H18-C3-N2-H16= 73.30          
C5-N4-C3-N2=  0.85            C5-N4-C3-H18=171.64           H25-N4-C3-N2=180.76           H25-N4-C3-H18=351.54          
C6-C5-N4-C3=359.70            C6-C5-N4-H25=179.80           N13-C5-N4-C3=179.28           N13-C5-N4-H25=359.37          
C5-C6-N2-C1=217.54            C5-C6-N2-C3=  0.82            C5-C6-N2-H16=116.34           C7-C6-N2-C1= 40.43            
C7-C6-N2-C3=183.71            C7-C6-N2-H16=299.24           N2-C6-C5-N4=359.66            N2-C6-C5-N13=180.04           
C7-C6-C5-N4=176.93            C7-C6-C5-N13=357.32           O8-C7-C6-N2=  0.82            O8-C7-C6-C5=184.08            
N9-C7-C6-N2=179.77            N9-C7-C6-C5=  3.03            C10-N9-C7-C6=178.76           C10-N9-C7-O8=357.72           
C11-N9-C7-C6=359.07           C11-N9-C7-O8=178.03           H19-C10-N9-C7=353.22          H19-C10-N9-C11=172.95         
H20-C10-N9-C7=113.30          H20-C10-N9-C11=293.02         H21-C10-N9-C7=232.65          H21-C10-N9-C11= 52.38         
           -------------------------------------------------
          |                Final Singlepoint                |
           -------------------------------------------------

          ...................................................
          :                      SETUP                      :
          :.................................................:
          :  # basis functions                  67          :
          :  # atomic orbitals                  67          :
          :  # shells                           39          :
          :  # electrons                        74          :
          :  max. iterations                   250          :
          :  Hamiltonian                  GFN2-xTB          :
          :  restarted?                      false          :
          :  GBSA solvation                  false          :
          :  PC potential                    false          :
          :  electronic temp.         2500.0000000     K    :
          :  accuracy                    1.0000000          :
          :  -> integral cutoff          0.2500000E+02      :
          :  -> integral neglect         0.1000000E-07      :
          :  -> SCF convergence          0.1000000E-05 Eh   :
          :  -> wf. convergence          0.1000000E-03 e    :
          :  Broyden damping             0.4000000          :
          ...................................................

 iter      E             dE          RMSdq      gap      omega  full diag
   1    -42.5821315 -0.425821E+02  0.130E-04    0.89       0.0  T
   2    -42.5821314  0.674129E-08  0.518E-04    0.89      38.6  T
   3    -42.5821315 -0.701179E-08  0.569E-05    0.89     351.5  T

   *** convergence criteria satisfied after 3 iterations ***

         #    Occupation            Energy/Eh            Energy/eV
      -------------------------------------------------------------
         1        2.0000           -0.9164899             -24.9390
       ...           ...                  ...                  ...
        31        2.0000           -0.6159992             -16.7622
        32        2.0000           -0.5925947             -16.1253
        33        1.9999           -0.5740763             -15.6214
        34        1.9992           -0.5600525             -15.2398
        35        1.9990           -0.5583769             -15.1942
        36        1.9984           -0.5545248             -15.0894
        37        1.7766           -0.5146618             -14.0047 (HOMO)
        38        0.2269           -0.4819685             -13.1150 (LUMO)
        39        0.0000           -0.4031690             -10.9708
        40        0.0000           -0.3754279             -10.2159
        41                         -0.2918855              -7.9426
        42                         -0.2407684              -6.5516
       ...                                ...                  ...
        67                          0.5617917              15.2871
      -------------------------------------------------------------
                  HL-Gap            0.0326933 Eh            0.8896 eV
             Fermi-level           -0.4982440 Eh          -13.5579 eV

 SCC (total)                   0 d,  0 h,  0 min,  0.023 sec
 SCC setup                      ...        0 min,  0.000 sec (  0.810%)
 Dispersion                     ...        0 min,  0.000 sec (  0.804%)
 classical contributions        ...        0 min,  0.000 sec (  0.306%)
 integral evaluation            ...        0 min,  0.005 sec ( 21.441%)
 iterations                     ...        0 min,  0.005 sec ( 20.553%)
 molecular gradient             ...        0 min,  0.013 sec ( 55.450%)
 printout                       ...        0 min,  0.000 sec (  0.575%)

         :::::::::::::::::::::::::::::::::::::::::::::::::::::
         ::                     SUMMARY                     ::
         :::::::::::::::::::::::::::::::::::::::::::::::::::::
         :: total energy             -42.074922536164 Eh    ::
         :: gradient norm              0.005264050748 Eh/a0 ::
         :: HOMO-LUMO gap              0.889630949297 eV    ::
         ::.................................................::
         :: SCC energy               -42.582131453043 Eh    ::
         :: -> isotropic ES            0.153089909978 Eh    ::
         :: -> anisotropic ES         -0.000188085683 Eh    ::
         :: -> anisotropic XC          0.012259509492 Eh    ::
         :: -> dispersion             -0.023043445246 Eh    ::
         :: repulsion energy           0.507073991994 Eh    ::
         :: add. restraining           0.000000000000 Eh    ::
         :: total charge               1.000000000000 e     ::
         :::::::::::::::::::::::::::::::::::::::::::::::::::::

           -------------------------------------------------
          |                Property Printout                |
           -------------------------------------------------

    * Orbital Energies and Occupations

         #    Occupation            Energy/Eh            Energy/eV
      -------------------------------------------------------------
         1        2.0000           -0.9164899             -24.9390
       ...           ...                  ...                  ...
        25        2.0000           -0.6653970             -18.1064
        26        2.0000           -0.6611375             -17.9905
        27        2.0000           -0.6520411             -17.7429
        28        2.0000           -0.6388772             -17.3847
        29        2.0000           -0.6274834             -17.0747
        30        2.0000           -0.6229560             -16.9515
        31        2.0000           -0.6159992             -16.7622
        32        2.0000           -0.5925947             -16.1253
        33        1.9999           -0.5740763             -15.6214
        34        1.9992           -0.5600525             -15.2398
        35        1.9990           -0.5583769             -15.1942
        36        1.9984           -0.5545248             -15.0894
        37        1.7766           -0.5146618             -14.0047 (HOMO)
        38        0.2269           -0.4819685             -13.1150 (LUMO)
        39        0.0000           -0.4031690             -10.9708
        40        0.0000           -0.3754279             -10.2159
        41                         -0.2918855              -7.9426
        42                         -0.2407684              -6.5516
        43                         -0.2090201              -5.6877
        44                         -0.1565083              -4.2588
        45                         -0.1507162              -4.1012
        46                         -0.1444187              -3.9298
        47                         -0.1234578              -3.3595
        48                         -0.0688078              -1.8724
       ...                                ...                  ...
        67                          0.5617917              15.2871
      -------------------------------------------------------------
                  HL-Gap            0.0326933 Eh            0.8896 eV
             Fermi-level           -0.4982440 Eh          -13.5579 eV

     #   Z          covCN         q      C6AA      α(0)
     1   6 C        2.767    -0.131    31.320     9.165
     2   7 N        3.619     0.104    19.440     6.548
     3   6 C        2.956    -0.011    28.285     8.723
     4   7 N        2.756    -0.060    22.400     7.029
     5   6 C        2.975     0.126    25.242     8.241
     6   6 C        3.050    -0.059    29.422     8.896
     7   6 C        2.765     0.271    22.429     7.756
     8   8 O        0.858    -0.387    21.415     6.204
     9   7 N        2.747    -0.088    22.959     7.116
    10   6 C        3.710    -0.062    21.829     6.677
    11   6 C        2.725     0.318    21.601     7.609
    12   8 O        0.859    -0.357    20.841     6.121
    13   7 N        2.740    -0.061    22.427     7.034
    14   6 C        3.696    -0.073    22.070     6.720
    15   1 H        0.926     0.099     1.798     2.097
    16   1 H        0.860     0.299     0.715     1.325
    17   1 H        0.926     0.124     1.584     1.968
    18   1 H        0.927     0.121     1.602     1.979
    19   1 H        0.925     0.111     1.685     2.030
    20   1 H        0.925     0.094     1.844     2.124
    21   1 H        0.925     0.098     1.800     2.098
    22   1 H        0.924     0.082     1.962     2.191
    23   1 H        0.925     0.081     1.966     2.193
    24   1 H        0.925     0.129     1.541     1.941
    25   1 H        0.860     0.232     0.957     1.533

 Mol. C6AA /au·bohr⁶  :       6647.050508
 Mol. C8AA /au·bohr⁸  :     153386.666773
 Mol. α(0) /au        :        125.318326


Wiberg/Mayer (AO) data.
largest (>0.10) Wiberg bond orders for each atom

 ---------------------------------------------------------------------------
     #   Z sym  total        # sym  WBO       # sym  WBO       # sym  WBO
 ---------------------------------------------------------------------------
     1   6 C    3.373 --    15 H    0.970    17 H    0.963     2 N    0.913
                             3 C    0.278
     2   7 N    3.771 --     3 C    1.047     6 C    0.957     1 C    0.913
                            16 H    0.784
     3   6 C    3.630 --     4 N    1.223     2 N    1.047    18 H    0.956
                             1 C    0.278
     4   7 N    3.540 --     3 C    1.223     5 C    1.179    25 H    0.917
     5   6 C    3.959 --     6 C    1.373    13 N    1.232     4 N    1.179
     6   6 C    3.817 --     5 C    1.373     7 C    1.099     2 N    0.957
     7   6 C    3.964 --     8 O    1.681     6 C    1.099     9 N    1.094
     8   8 O    2.040 --     7 C    1.681     9 N    0.150
     9   7 N    3.565 --    11 C    1.133     7 C    1.094    10 C    0.966
                             8 O    0.150    12 O    0.144
    10   6 C    3.920 --    19 H    0.970    21 H    0.968    20 H    0.967
                             9 N    0.966
    11   6 C    3.960 --    12 O    1.722     9 N    1.133    13 N    1.015
    12   8 O    2.087 --    11 C    1.722     9 N    0.144    13 N    0.122
    13   7 N    3.560 --     5 C    1.232    11 C    1.015    14 C    0.974
                            12 O    0.122
    14   6 C    3.925 --    13 N    0.974    22 H    0.972    23 H    0.972
                            24 H    0.963
    15   1 H    0.988 --     1 C    0.970
    16   1 H    0.882 --     2 N    0.784
    17   1 H    0.982 --     1 C    0.963
    18   1 H    0.984 --     3 C    0.956
    19   1 H    0.987 --    10 C    0.970
    20   1 H    0.989 --    10 C    0.967
    21   1 H    0.988 --    10 C    0.968
    22   1 H    0.991 --    14 C    0.972
    23   1 H    0.991 --    14 C    0.972
    24   1 H    0.983 --    14 C    0.963
    25   1 H    0.945 --     4 N    0.917
 ---------------------------------------------------------------------------

Topologies differ in total number of bonds
Writing topology from bond orders to xtbtopo.mol

molecular dipole:
                 x           y           z       tot (Debye)
 q only:        2.881      -2.000      -0.445
   full:        3.300      -2.364      -0.736      10.486
molecular quadrupole (traceless):
                xx          xy          yy          xz          yz          zz
 q only:       12.772      -7.068       3.078      -2.955       0.454     -15.851
  q+dip:       11.677      -8.815       2.229      -5.072      -0.559     -13.906
   full:       10.735      -8.650       1.587      -5.024      -0.271     -12.322

           -------------------------------------------------
          |                Geometry Summary                 |
           -------------------------------------------------

      molecular mass/u    :      195.1988581
   center of mass at/Å    :        0.0217707       0.0265137      -0.0141013
  moments of inertia/u·Å² :        0.4827533E+03   0.7162680E+03   0.1176649E+04
rotational constants/cm⁻¹ :        0.3491977E-01   0.2353537E-01   0.1432681E-01

 * 26 selected distances

     #   Z          #   Z                                           value/Å
     1   6 C        2   7 N                                       1.4580171
     2   7 N        3   6 C                                       1.4162042
     3   6 C        4   7 N                                       1.3682877
     4   7 N        5   6 C                                       1.3608947
     2   7 N        6   6 C                                       1.4483360
     5   6 C        6   6 C                                       1.3787550
     6   6 C        7   6 C                                       1.4414423
     7   6 C        8   8 O                                       1.2075938
     7   6 C        9   7 N                                       1.3943106
     9   7 N       10   6 C                                       1.4587214 (max)
     9   7 N       11   6 C                                       1.3797554
    11   6 C       12   8 O                                       1.1963547
     5   6 C       13   7 N                                       1.3388622
    11   6 C       13   7 N                                       1.4218042
    13   7 N       14   6 C                                       1.4504185
     1   6 C       15   1 H                                       1.0735767
     2   7 N       16   1 H                                       1.0495687
     1   6 C       17   1 H                                       1.0751450
     3   6 C       18   1 H                                       1.0689776
    10   6 C       19   1 H                                       1.0869372
    10   6 C       20   1 H                                       1.0894576
    10   6 C       21   1 H                                       1.0884795
    14   6 C       22   1 H                                       1.0904513
    14   6 C       23   1 H                                       1.0901265
    14   6 C       24   1 H                                       1.0896388
     4   7 N       25   1 H                                       1.0093274 (min)

 * 5 distinct bonds (by element types)

   Z      Z             #   av. dist./Å        max./Å        min./Å
   1 H    6 C           9     1.0836434     1.0904513     1.0689776
   6 C    6 C           2     1.4100986     1.4414423     1.3787550
   1 H    7 N           2     1.0294480     1.0495687     1.0093274
   6 C    7 N          11     1.4086920     1.4587214     1.3388622
   6 C    8 O           2     1.2019743     1.2075938     1.1963547


optimized geometry written to: xtbopt.xyz


           -------------------------------------------------
          | TOTAL ENERGY              -42.074922536164 Eh   |
          | GRADIENT NORM               0.005264050748 Eh/α |
          | HOMO-LUMO GAP               0.889630949297 eV   |
           -------------------------------------------------

------------------------------------------------------------------------
 * finished run on 2024/06/05 at 19:58:10.960     
------------------------------------------------------------------------
 total:
 * wall-time:     0 d,  0 h,  0 min,  0.271 sec
 *  cpu-time:     0 d,  0 h,  0 min,  0.251 sec
 * ratio c/w:     0.923 speedup
 SCF:
 * wall-time:     0 d,  0 h,  0 min,  0.026 sec
 *  cpu-time:     0 d,  0 h,  0 min,  0.026 sec
 * ratio c/w:     1.000 speedup
 ANC optimizer:
 * wall-time:     0 d,  0 h,  0 min,  0.216 sec
 *  cpu-time:     0 d,  0 h,  0 min,  0.211 sec
 * ratio c/w:     0.977 speedup

