      -----------------------------------------------------------      
     |                   =====================                   |     
     |                           x T B                           |     
     |                   =====================                   |     
     |                         S. Grimme                         |     
     |          Mulliken Center for Theoretical Chemistry        |     
     |                    University of Bonn                     |     
      -----------------------------------------------------------      

   * xtb version 6.6.1 (8d0f1dd) compiled by 'conda@1efc2f54142f' on 2023-08-01

   xtb is free software: you can redistribute it and/or modify it under
   the terms of the GNU Lesser General Public License as published by
   the Free Software Foundation, either version 3 of the License, or
   (at your option) any later version.
   
   xtb is distributed in the hope that it will be useful,
   but WITHOUT ANY WARRANTY; without even the implied warranty of
   MERCHANTABILITY or FITNESS FOR A PARTICULAR PURPOSE.  See the
   GNU Lesser General Public License for more details.
   
   Cite this work as:
   * C. Bannwarth, E. Caldeweyher, S. Ehlert, A. Hansen, P. Pracht,
     J. Seibert, S. Spicher, S. Grimme, WIREs Comput. Mol. Sci., 2020, 11,
     e01493. DOI: 10.1002/wcms.1493
   
   for GFN2-xTB:
   * C. Bannwarth, S. Ehlert and S. Grimme., J. Chem. Theory Comput., 2019,
     15, 1652-1671. DOI: 10.1021/acs.jctc.8b01176
   for GFN1-xTB:
   * S. Grimme, C. Bannwarth, P. Shushkov, J. Chem. Theory Comput., 2017,
     13, 1989-2009. DOI: 10.1021/acs.jctc.7b00118
   for GFN0-xTB:
   * P. Pracht, E. Caldeweyher, S. Ehlert, S. Grimme, ChemRxiv, 2019, preprint.
     DOI: 10.26434/chemrxiv.8326202.v1
   for GFN-FF:
   * S. Spicher and S. Grimme, Angew. Chem. Int. Ed., 2020, 59, 15665-15673.
     DOI: 10.1002/anie.202004239
   
   for ALPB and GBSA implicit solvation:
   * S. Ehlert, M. Stahn, S. Spicher, S. Grimme, J. Chem. Theory Comput.,
     2021, 17, 4250-4261. DOI: 10.1021/acs.jctc.1c00471
   
   for DFT-D4:
   * E. Caldeweyher, C. Bannwarth and S. Grimme, J. Chem. Phys., 2017,
     147, 034112. DOI: 10.1063/1.4993215
   * E. Caldeweyher, S. Ehlert, A. Hansen, H. Neugebauer, S. Spicher,
     C. Bannwarth and S. Grimme, J. Chem. Phys., 2019, 150, 154122.
     DOI: 10.1063/1.5090222
   * E. Caldeweyher, J.-M. Mewes, S. Ehlert and S. Grimme, Phys. Chem. Chem. Phys.
     2020, 22, 8499-8512. DOI: 10.1039/D0CP00502A
   
   for sTDA-xTB:
   * S. Grimme and C. Bannwarth, J. Chem. Phys., 2016, 145, 054103.
     DOI: 10.1063/1.4959605
   
   in the mass-spec context:
   * V. Asgeirsson, C. Bauer and S. Grimme, Chem. Sci., 2017, 8, 4879.
     DOI: 10.1039/c7sc00601b
   * J. Koopman and S. Grimme, ACS Omega 2019, 4, 12, 15120-15133.
     DOI: 10.1021/acsomega.9b02011
   
   for metadynamics refer to:
   * S. Grimme, J. Chem. Theory Comput., 2019, 155, 2847-2862
     DOI: 10.1021/acs.jctc.9b00143
   
   for SPH calculations refer to:
   * S. Spicher and S. Grimme, J. Chem. Theory Comput., 2021, 17, 1701-1714
     DOI: 10.1021/acs.jctc.0c01306
   
   with help from (in alphabetical order)
   P. Atkinson, C. Bannwarth, F. Bohle, G. Brandenburg, E. Caldeweyher
   M. Checinski, S. Dohm, S. Ehlert, S. Ehrlich, I. Gerasimov, C. Hölzer
   A. Katbashev, J. Koopman, C. Lavigne, S. Lehtola, F. März, M. Müller,
   F. Musil, H. Neugebauer, J. Pisarek, C. Plett, P. Pracht, F. Pultar,
   J. Seibert, P. Shushkov, S. Spicher, M. Stahn, M. Steiner, T. Strunk,
   J. Stückrath, T. Rose, and J. Unsleber
   
 * started run on 2024/06/05 at 20:00:13.313     

           -------------------------------------------------
          |                Calculation Setup                |
           -------------------------------------------------

          program call               : xtb xtbopt.xyz --opt crude --input .xc2 --gfn2
          hostname                   : n-62-21-69
          coordinate file            : xtbopt.xyz
          omp threads                :                     1

   ID    Z sym.   atoms
    1    6 C      1, 3, 5-7, 10, 11, 14
    2    7 N      2, 4, 9, 13
    3    8 O      8, 12
    4    1 H      15-25
########################################################################
[WARNING] Please study the warnings concerning your input carefully
-1- readin_getIntValue: could not parse ''
########################################################################

           -------------------------------------------------
          |                 G F N 2 - x T B                 |
           -------------------------------------------------

        Reference                      10.1021/acs.jctc.8b01176
      * Hamiltonian:
        H0-scaling (s, p, d)           1.850000    2.230000    2.230000
        zeta-weighting                 0.500000
      * Dispersion:
        s8                             2.700000
        a1                             0.520000
        a2                             5.000000
        s9                             5.000000
      * Repulsion:
        kExp                           1.500000    1.000000
        rExp                           1.000000
      * Coulomb:
        alpha                          2.000000
        third order                    shell-resolved
        anisotropic                    true
        a3                             3.000000
        a5                             4.000000
        cn-shift                       1.200000
        cn-exp                         4.000000
        max-rad                        5.000000

q/qsh data taken from xtbrestart
CAMM data taken from xtbrestart

          ...................................................
          :                      SETUP                      :
          :.................................................:
          :  # basis functions                  67          :
          :  # atomic orbitals                  67          :
          :  # shells                           39          :
          :  # electrons                        74          :
          :  max. iterations                   250          :
          :  Hamiltonian                  GFN2-xTB          :
          :  restarted?                       true          :
          :  GBSA solvation                  false          :
          :  PC potential                    false          :
          :  electronic temp.         5000.0000000     K    :
          :  accuracy                    1.0000000          :
          :  -> integral cutoff          0.2500000E+02      :
          :  -> integral neglect         0.1000000E-07      :
          :  -> SCF convergence          0.1000000E-05 Eh   :
          :  -> wf. convergence          0.1000000E-03 e    :
          :  Broyden damping             0.4000000          :
          ...................................................

 iter      E             dE          RMSdq      gap      omega  full diag
   1    -42.5301065 -0.425301E+02  0.929E-05    0.45       0.0  T
   2    -42.5301065  0.124441E-08  0.166E-04    0.45     120.6  T
   3    -42.5301065 -0.130569E-08  0.630E-05    0.45     317.6  T

   *** convergence criteria satisfied after 3 iterations ***

         #    Occupation            Energy/Eh            Energy/eV
      -------------------------------------------------------------
         1        2.0000           -0.8764285             -23.8488
       ...           ...                  ...                  ...
        31        1.9977           -0.6168792             -16.7861
        32        1.9929           -0.5992956             -16.3077
        33        1.9845           -0.5868621             -15.9693
        34        1.9217           -0.5606821             -15.2569
        35        1.7939           -0.5442656             -14.8102
        36        1.6551           -0.5348396             -14.5537
        37        1.5204           -0.5282747             -14.3751 (HOMO)
        38        1.0509           -0.5116175             -13.9218 (LUMO)
        39        0.0875           -0.4611656             -12.5490
        40        0.0007           -0.3844763             -10.4621
        41        0.0003           -0.3694812             -10.0541
        42        0.0000           -0.3141448              -8.5483
       ...           ...                  ...                  ...
        67                          0.5669328              15.4270
      -------------------------------------------------------------
                  HL-Gap            0.0166572 Eh            0.4533 eV
             Fermi-level           -0.5100048 Eh          -13.8779 eV

 SCC (total)                   0 d,  0 h,  0 min,  0.037 sec
 SCC setup                      ...        0 min,  0.000 sec (  0.658%)
 Dispersion                     ...        0 min,  0.000 sec (  0.820%)
 classical contributions        ...        0 min,  0.000 sec (  0.217%)
 integral evaluation            ...        0 min,  0.005 sec ( 13.716%)
 iterations                     ...        0 min,  0.006 sec ( 14.966%)
 molecular gradient             ...        0 min,  0.026 sec ( 69.164%)
 printout                       ...        0 min,  0.000 sec (  0.424%)

         :::::::::::::::::::::::::::::::::::::::::::::::::::::
         ::                     SUMMARY                     ::
         :::::::::::::::::::::::::::::::::::::::::::::::::::::
         :: total energy             -42.035945507015 Eh    ::
         :: gradient norm              0.061200820822 Eh/a0 ::
         :: HOMO-LUMO gap              0.453266277063 eV    ::
         ::.................................................::
         :: SCC energy               -42.530106519503 Eh    ::
         :: -> isotropic ES            0.124087941862 Eh    ::
         :: -> anisotropic ES         -0.007503987574 Eh    ::
         :: -> anisotropic XC          0.018021318969 Eh    ::
         :: -> dispersion             -0.021300968195 Eh    ::
         :: repulsion energy           0.494026741655 Eh    ::
         :: add. restraining           0.000000000000 Eh    ::
         :: total charge               1.000000000000 e     ::
         :::::::::::::::::::::::::::::::::::::::::::::::::::::

      ----------------------------------------------------------- 
     |                   =====================                   |
     |                        A N C O P T                        |
     |                   =====================                   |
     |               Approximate Normal Coordinate               |
     |                Rational Function Optimizer                |
      ----------------------------------------------------------- 

          ...................................................
          :                      SETUP                      :
          :.................................................:
          :   optimization level             crude          :
          :   max. optcycles                   200          :
          :   ANC micro-cycles                  20          :
          :   degrees of freedom                69          :
          :.................................................:
          :   RF solver                   davidson          :
          :   write xtbopt.log                true          :
          :   linear?                        false          :
          :   energy convergence         0.5000000E-03 Eh   :
          :   grad. convergence          0.1000000E-01 Eh/α :
          :   maxmium RF displ.          1.0000000          :
          :   Hlow (freq-cutoff)         0.1000000E-01      :
          :   Hmax (freq-cutoff)         5.0000000          :
          :   S6 in model hess.         20.0000000          :
          ...................................................

generating ANC from model Hessian ...
Using Lindh-Hessian (1995)
 Shifting diagonal of input Hessian by    8.9994521100133524E-003
 Lowest  eigenvalues of input Hessian
    0.000000    0.000000    0.000000    0.000000    0.000000    0.000000
    0.010000    0.010871    0.011587    0.012723    0.015748    0.018121
    0.020551    0.021007    0.023752    0.026874    0.027624    0.031565
 Highest eigenvalues
    1.784595    1.866971    2.101760    2.215398    2.280532    2.417982


........................................................................
.............................. CYCLE    1 ..............................
........................................................................

 iter      E             dE          RMSdq      gap      omega  full diag
   1    -42.5301065 -0.425301E+02  0.370E-05    0.45       0.0  T
   2    -42.5301065  0.106304E-09  0.572E-05    0.45     349.8  T
   3    -42.5301065 -0.115158E-09  0.228E-05    0.45     877.4  T
     SCC iter.                  ...        0 min,  0.017 sec
     gradient                   ...        0 min,  0.013 sec
 * total energy  :   -42.0359455 Eh     change       -0.1433307E-09 Eh
   gradient norm :     0.0611996 Eh/α   predicted     0.0000000E+00 (-100.00%)
   displ. norm   :     0.3923467 α      lambda       -0.1418465E-01
   maximum displ.:     0.2081937 α      in ANC's #18, #15, #13, ...

........................................................................
.............................. CYCLE    2 ..............................
........................................................................

 iter      E             dE          RMSdq      gap      omega  full diag
   1    -42.5497576 -0.425498E+02  0.360E-01    0.54       0.0  T
   2    -42.5361371  0.136205E-01  0.563E-01    0.28       1.0  T
   3    -42.5507816 -0.146445E-01  0.205E-01    0.52       1.0  T
   4    -42.5514535 -0.671949E-03  0.104E-01    0.46       1.0  T
   5    -42.5516594 -0.205890E-03  0.240E-02    0.47       1.0  T
   6    -42.5516702 -0.107369E-04  0.153E-02    0.46       1.3  T
   7    -42.5516740 -0.384960E-05  0.930E-03    0.46       2.1  T
   8    -42.5516765 -0.247089E-05  0.258E-03    0.47       7.7  T
   9    -42.5516767 -0.175258E-06  0.700E-04    0.47      28.6  T
  10    -42.5516767 -0.565580E-08  0.283E-04    0.47      70.6  T
     SCC iter.                  ...        0 min,  0.014 sec
     gradient                   ...        0 min,  0.013 sec
 * total energy  :   -42.0471851 Eh     change       -0.1123961E-01 Eh
   gradient norm :     0.0485181 Eh/α   predicted    -0.8184737E-02 ( -27.18%)
   displ. norm   :     0.4989340 α      lambda       -0.1174558E-01
   maximum displ.:     0.2098070 α      in ANC's #15, #18, #9, ...

........................................................................
.............................. CYCLE    3 ..............................
........................................................................

 iter      E             dE          RMSdq      gap      omega  full diag
   1    -42.5639394 -0.425639E+02  0.417E-01    0.56       0.0  T
   2    -42.5434311  0.205083E-01  0.692E-01    0.27       1.0  T
   3    -42.5658484 -0.224173E-01  0.240E-01    0.53       1.0  T
   4    -42.5666195 -0.771138E-03  0.158E-01    0.46       1.0  T
   5    -42.5671152 -0.495711E-03  0.452E-02    0.48       1.0  T
   6    -42.5671634 -0.481989E-04  0.230E-02    0.47       1.0  T
   7    -42.5671746 -0.111167E-04  0.125E-02    0.48       1.6  T
   8    -42.5671796 -0.503262E-05  0.369E-03    0.48       5.4  T
   9    -42.5671799 -0.310687E-06  0.759E-04    0.48      26.3  T
  10    -42.5671799 -0.409344E-08  0.460E-04    0.48      43.5  T
     SCC iter.                  ...        0 min,  0.014 sec
     gradient                   ...        0 min,  0.013 sec
 * total energy  :   -42.0543483 Eh     change       -0.7163157E-02 Eh
   gradient norm :     0.0280340 Eh/α   predicted    -0.7334738E-02 (   2.40%)
   displ. norm   :     0.2452019 α      lambda       -0.1915161E-02
   maximum displ.:     0.1104343 α      in ANC's #9, #4, #8, ...

........................................................................
.............................. CYCLE    4 ..............................
........................................................................

 iter      E             dE          RMSdq      gap      omega  full diag
   1    -42.5674860 -0.425675E+02  0.141E-01    0.46       0.0  T
   2    -42.5673575  0.128486E-03  0.126E-01    0.48       1.0  T
   3    -42.5676176 -0.260155E-03  0.706E-02    0.46       1.0  T
   4    -42.5670876  0.530037E-03  0.105E-01    0.51       1.0  T
   5    -42.5676883 -0.600671E-03  0.275E-02    0.47       1.0  T
   6    -42.5677143 -0.260393E-04  0.663E-03    0.47       3.0  T
   7    -42.5677150 -0.702711E-06  0.338E-03    0.47       5.9  T
   8    -42.5677153 -0.294109E-06  0.100E-03    0.47      19.9  T
   9    -42.5677153 -0.138075E-07  0.436E-04    0.47      45.9  T
  10    -42.5677153 -0.336734E-08  0.267E-04    0.47      74.9  T
     SCC iter.                  ...        0 min,  0.014 sec
     gradient                   ...        0 min,  0.013 sec
 * total energy  :   -42.0555942 Eh     change       -0.1245897E-02 Eh
   gradient norm :     0.0177418 Eh/α   predicted    -0.1015253E-02 ( -18.51%)
   displ. norm   :     0.1820466 α      lambda       -0.8546833E-03
   maximum displ.:     0.0924400 α      in ANC's #8, #9, #4, ...

........................................................................
.............................. CYCLE    5 ..............................
........................................................................

 iter      E             dE          RMSdq      gap      omega  full diag
   1    -42.5661509 -0.425662E+02  0.109E-01    0.45       0.0  T
   2    -42.5649322  0.121865E-02  0.174E-01    0.53       1.0  T
   3    -42.5661415 -0.120927E-02  0.739E-02    0.45       1.0  T
   4    -42.5662141 -0.726259E-04  0.525E-02    0.47       1.0  T
   5    -42.5663181 -0.103929E-03  0.123E-02    0.47       1.6  T
   6    -42.5663222 -0.410532E-05  0.279E-03    0.47       7.2  T
   7    -42.5663222 -0.708066E-07  0.177E-03    0.47      11.3  T
   8    -42.5663223 -0.490159E-07  0.591E-04    0.47      33.9  T
   9    -42.5663223 -0.620976E-08  0.217E-04    0.47      92.2  T
     SCC iter.                  ...        0 min,  0.012 sec
     gradient                   ...        0 min,  0.013 sec
 * total energy  :   -42.0561412 Eh     change       -0.5470445E-03 Eh
   gradient norm :     0.0104643 Eh/α   predicted    -0.4415047E-03 ( -19.29%)
   displ. norm   :     0.1290457 α      lambda       -0.3204765E-03
   maximum displ.:     0.0763273 α      in ANC's #1, #8, #4, ...

........................................................................
.............................. CYCLE    6 ..............................
........................................................................

 iter      E             dE          RMSdq      gap      omega  full diag
   1    -42.5651501 -0.425652E+02  0.976E-02    0.44       0.0  T
   2    -42.5631559  0.199419E-02  0.202E-01    0.53       1.0  T
   3    -42.5652846 -0.212868E-02  0.538E-02    0.45       1.0  T
   4    -42.5653442 -0.595431E-04  0.268E-02    0.46       1.0  T
   5    -42.5653627 -0.185852E-04  0.776E-03    0.46       2.6  T
   6    -42.5653643 -0.159208E-05  0.248E-03    0.46       8.1  T
   7    -42.5653644 -0.502521E-07  0.139E-03    0.46      14.4  T
   8    -42.5653644 -0.435148E-07  0.482E-04    0.46      41.5  T
   9    -42.5653644 -0.254746E-08  0.215E-04    0.46      93.1  T
     SCC iter.                  ...        0 min,  0.012 sec
     gradient                   ...        0 min,  0.013 sec
 * total energy  :   -42.0563573 Eh     change       -0.2160877E-03 Eh
   gradient norm :     0.0059866 Eh/α   predicted    -0.1629214E-03 ( -24.60%)
   displ. norm   :     0.1373082 α      lambda       -0.1842410E-03
   maximum displ.:     0.1043825 α      in ANC's #1, #8, #7, ...

   *** GEOMETRY OPTIMIZATION CONVERGED AFTER 6 ITERATIONS ***

------------------------------------------------------------------------
 total energy gain   :        -0.0204118 Eh      -12.8086 kcal/mol
 total RMSD          :         0.2451595 a0        0.1297 Å
 total power (kW/mol):        -8.9318619 (step) -263.9746 (real)
------------------------------------------------------------------------

 ANCopt (total)                0 d,  0 h,  0 min,  0.203 sec
 optimizer setup                ...        0 min,  0.000 sec (  0.239%)
 model hessian                  ...        0 min,  0.006 sec (  2.926%)
 ANC generation                 ...        0 min,  0.001 sec (  0.424%)
 coordinate transformation      ...        0 min,  0.000 sec (  0.032%)
 single point calculation       ...        0 min,  0.193 sec ( 94.963%)
 optimization log               ...        0 min,  0.002 sec (  0.931%)
 hessian update                 ...        0 min,  0.000 sec (  0.040%)
 rational function              ...        0 min,  0.000 sec (  0.234%)

================
 final structure:
================
25
 xtb: 6.6.1 (8d0f1dd)
C            2.53094237601887        1.04798824674631        0.58587425747125
N            1.72926346577423       -0.02997731188940        0.03054936165901
C            2.38190104473648       -1.12437853102728       -0.31966616441802
N            1.83673948943619       -2.31907123337308       -0.68953320260259
C            0.65480869976329       -2.82275882987095       -0.32211933392162
C            0.38166032152258        0.21273683517620       -0.13460671801600
C           -0.11741158000978        1.62761805955776       -0.23134423879956
O            0.61707419316307        2.56796646251889       -0.54700742577821
N           -1.40046584105403        1.74562637527343        0.04593922652246
C           -2.20702969760393        2.86196689806067       -0.11385221139560
C           -0.65635710753835       -0.74015822693326       -0.33896778997751
O           -1.77826148313428       -0.48516745026551       -0.70260271645523
N           -0.39814747176533       -2.16387008444127        0.00817216357639
C           -1.57592459527151       -2.85450118455335        0.49348698131497
H            2.21005260319566        1.25073632931010        1.60889294969223
H            3.58542842893682        0.78850779530191        0.58135715731935
H            2.37221487827673        1.96147694064231        0.00327516904594
H            3.46076911411139       -1.09945652064447       -0.25473832955796
H           -1.64434650694762        3.74095446777840       -0.45832528559457
H           -2.98863801004189        2.63118135463032       -0.84762945744558
H           -2.70564791843783        3.07807452297829        0.83708699113455
H           -1.34731681780117       -3.90820439940441        0.61994606044328
H           -2.39211260643253       -2.72531951945116       -0.21935110763314
H           -1.88401251978949       -2.41826043542252        1.44400815335153
H            2.49524905499196       -3.00547201909881       -1.04767287203554

 Bond Distances (Angstroems)
 ---------------------------
C1-N2=1.4536         C1-H15=1.0912        C1-H16=1.0860        C1-H17=1.0950        N2-C1=1.4536         N2-C3=1.3215         
N2-C6=1.3792         C3-N2=1.3215         C3-N4=1.3643         C3-H18=1.0811        N4-C3=1.3643         N4-C5=1.3363         
N4-H25=1.0164        C5-N4=1.3363         C5-N13=1.2853        C6-N2=1.3792         C6-C7=1.5034         C6-C11=1.4238        
C7-C6=1.5034         C7-O8=1.2342         C7-N9=1.3180         O8-C7=1.2342         N9-C7=1.3180         N9-C10=1.3865        
C10-N9=1.3865        C10-H19=1.0990       C10-H20=1.0966       C10-H21=1.0953       C11-C6=1.4238        C11-O12=1.2066       
C11-N13=1.4880       O12-C11=1.2066       N13-C5=1.2853        N13-C11=1.4880       N13-C14=1.4490       C14-N13=1.4490       
C14-H22=1.0856       C14-H23=1.0913       C14-H24=1.0903       H15-C1=1.0912        H16-C1=1.0860        H17-C1=1.0950        
H18-C3=1.0811        H19-C10=1.0990       H20-C10=1.0966       H21-C10=1.0953       H22-C14=1.0856       H23-C14=1.0913       
H24-C14=1.0903       H25-N4=1.0164        
 C  H  Rav=1.0911 sigma=0.0053  Rmin=1.0811  Rmax=1.0990    10
 C  C  Rav=1.4636 sigma=0.0398  Rmin=1.4238  Rmax=1.5034     2
 N  H  Rav=1.0164 sigma=0.0000  Rmin=1.0164  Rmax=1.0164     1
 N  C  Rav=1.3782 sigma=0.0635  Rmin=1.2853  Rmax=1.4880    10
 O  C  Rav=1.2204 sigma=0.0138  Rmin=1.2066  Rmax=1.2342     2

 selected bond angles (degree)
 --------------------
H15-C1-N2=109.50               H16-C1-N2=110.90               H16-C1-H15=109.50              H17-C1-N2=109.60               
H17-C1-H15=107.53              H17-C1-H16=109.75              C3-N2-C1=116.30                C6-N2-C1=117.01                
C6-N2-C3=126.62                N4-C3-N2=126.85                H18-C3-N2=117.25               H18-C3-N4=115.80               
C5-N4-C3=127.52                H25-N4-C3=115.34               H25-N4-C5=114.54               N13-C5-N4=127.02               
C7-C6-N2=119.85                C11-C6-N2=127.72               C11-C6-C7=112.25               O8-C7-C6=122.41                
N9-C7-C6=113.20                N9-C7-O8=124.40                C10-N9-C7=127.89               H19-C10-N9=112.47              
H20-C10-N9=108.80              H20-C10-H19=108.87             H21-C10-N9=108.88              H21-C10-H19=110.33             
H21-C10-H20=107.34             

 selected dihedral angles (degree)
 ---------------------------------
C3-N2-C1-H15=241.77           C3-N2-C1-H16=  2.72           C3-N2-C1-H17=124.05           C6-N2-C1-H15= 64.67           
C6-N2-C1-H16=185.62           C6-N2-C1-H17=306.94           N4-C3-N2-C1=170.53            N4-C3-N2-C6=347.32            
H18-C3-N2-C1=354.39           H18-C3-N2-C6=171.18           C5-N4-C3-N2=332.45            C5-N4-C3-H18=148.64           
H25-N4-C3-N2=171.88           H25-N4-C3-H18=348.07          N13-C5-N4-C3= 28.26           N13-C5-N4-H25=188.96          
C7-C6-N2-C1= 22.06            C7-C6-N2-C3=205.29            C11-C6-N2-C1=196.61           C11-C6-N2-C3= 19.84           
O8-C7-C6-N2= 21.04            O8-C7-C6-C11=205.70           N9-C7-C6-N2=200.71            N9-C7-C6-C11= 25.36           
C10-N9-C7-C6=189.04           C10-N9-C7-O8=  8.70           H19-C10-N9-C7=356.05          H20-C10-N9-C7=116.75          
H21-C10-N9-C7=233.44          
           -------------------------------------------------
          |                Final Singlepoint                |
           -------------------------------------------------

          ...................................................
          :                      SETUP                      :
          :.................................................:
          :  # basis functions                  67          :
          :  # atomic orbitals                  67          :
          :  # shells                           39          :
          :  # electrons                        74          :
          :  max. iterations                   250          :
          :  Hamiltonian                  GFN2-xTB          :
          :  restarted?                      false          :
          :  GBSA solvation                  false          :
          :  PC potential                    false          :
          :  electronic temp.         5000.0000000     K    :
          :  accuracy                    1.0000000          :
          :  -> integral cutoff          0.2500000E+02      :
          :  -> integral neglect         0.1000000E-07      :
          :  -> SCF convergence          0.1000000E-05 Eh   :
          :  -> wf. convergence          0.1000000E-03 e    :
          :  Broyden damping             0.4000000          :
          ...................................................

 iter      E             dE          RMSdq      gap      omega  full diag
   1    -42.5653644 -0.425654E+02  0.101E-04    0.46       0.0  T
   2    -42.5653644  0.569884E-09  0.132E-04    0.46     151.9  T
   3    -42.5653644 -0.417607E-09  0.905E-05    0.46     221.0  T

   *** convergence criteria satisfied after 3 iterations ***

         #    Occupation            Energy/Eh            Energy/eV
      -------------------------------------------------------------
         1        2.0000           -0.8832658             -24.0349
       ...           ...                  ...                  ...
        31        1.9983           -0.6169791             -16.7889
        32        1.9934           -0.5956268             -16.2078
        33        1.9925           -0.5934660             -16.1490
        34        1.9201           -0.5555001             -15.1159
        35        1.8567           -0.5457219             -14.8498
        36        1.6704           -0.5308536             -14.4453
        37        1.4677           -0.5212162             -14.1830 (HOMO)
        38        0.9707           -0.5042303             -13.7208 (LUMO)
        39        0.1324           -0.4632466             -12.6056
        40        0.0014           -0.3903645             -10.6224
        41        0.0004           -0.3703051             -10.0765
        42        0.0000           -0.3008854              -8.1875
       ...           ...                  ...                  ...
        67                          0.5027329              13.6801
      -------------------------------------------------------------
                  HL-Gap            0.0169859 Eh            0.4622 eV
             Fermi-level           -0.5051568 Eh          -13.7460 eV

 SCC (total)                   0 d,  0 h,  0 min,  0.023 sec
 SCC setup                      ...        0 min,  0.000 sec (  0.839%)
 Dispersion                     ...        0 min,  0.000 sec (  0.851%)
 classical contributions        ...        0 min,  0.000 sec (  0.305%)
 integral evaluation            ...        0 min,  0.005 sec ( 21.212%)
 iterations                     ...        0 min,  0.005 sec ( 21.069%)
 molecular gradient             ...        0 min,  0.013 sec ( 55.100%)
 printout                       ...        0 min,  0.000 sec (  0.568%)

         :::::::::::::::::::::::::::::::::::::::::::::::::::::
         ::                     SUMMARY                     ::
         :::::::::::::::::::::::::::::::::::::::::::::::::::::
         :: total energy             -42.056357306228 Eh    ::
         :: gradient norm              0.005987285156 Eh/a0 ::
         :: HOMO-LUMO gap              0.462210920516 eV    ::
         ::.................................................::
         :: SCC energy               -42.565364429165 Eh    ::
         :: -> isotropic ES            0.130290365122 Eh    ::
         :: -> anisotropic ES         -0.008769237365 Eh    ::
         :: -> anisotropic XC          0.016708404495 Eh    ::
         :: -> dispersion             -0.021874343603 Eh    ::
         :: repulsion energy           0.508859791722 Eh    ::
         :: add. restraining           0.000000000000 Eh    ::
         :: total charge               1.000000000000 e     ::
         :::::::::::::::::::::::::::::::::::::::::::::::::::::

           -------------------------------------------------
          |                Property Printout                |
           -------------------------------------------------

    * Orbital Energies and Occupations

         #    Occupation            Energy/Eh            Energy/eV
      -------------------------------------------------------------
         1        2.0000           -0.8832658             -24.0349
       ...           ...                  ...                  ...
        25        1.9999           -0.6602899             -17.9674
        26        1.9998           -0.6535930             -17.7852
        27        1.9996           -0.6414598             -17.4550
        28        1.9992           -0.6293962             -17.1267
        29        1.9988           -0.6229875             -16.9524
        30        1.9988           -0.6222149             -16.9313
        31        1.9983           -0.6169791             -16.7889
        32        1.9934           -0.5956268             -16.2078
        33        1.9925           -0.5934660             -16.1490
        34        1.9201           -0.5555001             -15.1159
        35        1.8567           -0.5457219             -14.8498
        36        1.6704           -0.5308536             -14.4453
        37        1.4677           -0.5212162             -14.1830 (HOMO)
        38        0.9707           -0.5042303             -13.7208 (LUMO)
        39        0.1324           -0.4632466             -12.6056
        40        0.0014           -0.3903645             -10.6224
        41        0.0004           -0.3703051             -10.0765
        42        0.0000           -0.3008854              -8.1875
        43                         -0.1930631              -5.2535
        44                         -0.1840836              -5.0092
        45                         -0.1321485              -3.5959
        46                         -0.1161920              -3.1617
        47                         -0.0653178              -1.7774
        48                         -0.0390022              -1.0613
       ...                                ...                  ...
        67                          0.5027329              13.6801
      -------------------------------------------------------------
                  HL-Gap            0.0169859 Eh            0.4622 eV
             Fermi-level           -0.5051568 Eh          -13.7460 eV

     #   Z          covCN         q      C6AA      α(0)
     1   6 C        3.722    -0.097    22.471     6.770
     2   7 N        2.731     0.089    19.703     6.593
     3   6 C        2.800     0.058    26.693     8.464
     4   7 N        2.687    -0.045    22.116     6.985
     5   6 C        1.863    -0.002    31.195     9.022
     6   6 C        2.908    -0.031    28.761     8.794
     7   6 C        2.766     0.281    22.235     7.722
     8   8 O        0.858    -0.383    21.343     6.194
     9   7 N        1.834    -0.141    24.827     7.384
    10   6 C        3.691    -0.036    21.400     6.620
    11   6 C        2.767     0.256    22.692     7.801
    12   8 O        0.859    -0.298    19.745     5.958
    13   7 N        2.731     0.017    20.958     6.799
    14   6 C        3.712    -0.073    22.036     6.708
    15   1 H        0.924     0.108     1.713     2.047
    16   1 H        0.925     0.094     1.836     2.119
    17   1 H        0.924     0.156     1.355     1.820
    18   1 H        0.926     0.109     1.704     2.041
    19   1 H        0.923     0.120     1.611     1.985
    20   1 H        0.924     0.131     1.524     1.931
    21   1 H        0.924     0.119     1.622     1.991
    22   1 H        0.925     0.105     1.738     2.062
    23   1 H        0.924     0.121     1.602     1.979
    24   1 H        0.924     0.100     1.788     2.091
    25   1 H        0.860     0.240     0.924     1.506

 Mol. C6AA /au·bohr⁶  :       6566.605676
 Mol. C8AA /au·bohr⁸  :     151287.296958
 Mol. α(0) /au        :        123.384131


Wiberg/Mayer (AO) data.
largest (>0.10) Wiberg bond orders for each atom

 ---------------------------------------------------------------------------
     #   Z sym  total        # sym  WBO       # sym  WBO       # sym  WBO
 ---------------------------------------------------------------------------
     1   6 C    3.895 --     2 N    0.977    16 H    0.973    15 H    0.956
                            17 H    0.918
     2   7 N    3.665 --     3 C    1.393     6 C    1.153     1 C    0.977
     3   6 C    3.781 --     2 N    1.393     4 N    1.196    18 H    0.944
     4   7 N    3.525 --     5 C    1.260     3 C    1.196    25 H    0.910
     5   6 C    3.046 --    13 N    1.548     4 N    1.260
     6   6 C    3.630 --    11 C    1.194     2 N    1.153     7 C    0.983
     7   6 C    3.918 --     8 O    1.523     9 N    1.329     6 C    0.983
     8   8 O    1.781 --     7 C    1.523     9 N    0.111
     9   7 N    2.644 --     7 C    1.329    10 C    1.117     8 O    0.111
    10   6 C    3.858 --     9 N    1.117    21 H    0.913    19 H    0.899
                            20 H    0.893
    11   6 C    3.884 --    12 O    1.721     6 C    1.194    13 N    0.858
    12   8 O    2.038 --    11 C    1.721
    13   7 N    3.553 --     5 C    1.548    14 C    0.975    11 C    0.858
    14   6 C    3.908 --    13 N    0.975    22 H    0.973    24 H    0.960
                            23 H    0.948
    15   1 H    0.982 --     1 C    0.956
    16   1 H    0.989 --     1 C    0.973
    17   1 H    0.969 --     1 C    0.918
    18   1 H    0.985 --     3 C    0.944
    19   1 H    0.903 --    10 C    0.899
    20   1 H    0.917 --    10 C    0.893
    21   1 H    0.933 --    10 C    0.913
    22   1 H    0.986 --    14 C    0.973
    23   1 H    0.975 --    14 C    0.948
    24   1 H    0.983 --    14 C    0.960
    25   1 H    0.937 --     4 N    0.910
 ---------------------------------------------------------------------------

Topologies differ in total number of bonds
Writing topology from bond orders to xtbtopo.mol

molecular dipole:
                 x           y           z       tot (Debye)
 q only:        1.543      -1.810       0.487
   full:        1.857      -1.741       0.424       6.558
molecular quadrupole (traceless):
                xx          xy          yy          xz          yz          zz
 q only:       12.549     -14.192       9.639      -2.825       3.800     -22.188
  q+dip:       13.615     -17.811       6.573      -3.170       4.393     -20.188
   full:       12.357     -17.365       5.929      -2.964       4.496     -18.285

           -------------------------------------------------
          |                Geometry Summary                 |
           -------------------------------------------------

      molecular mass/u    :      195.1988581
   center of mass at/Å    :        0.1233301      -0.1365665      -0.1575771
  moments of inertia/u·Å² :        0.4962934E+03   0.7879032E+03   0.1214718E+04
rotational constants/cm⁻¹ :        0.3396707E-01   0.2139556E-01   0.1387781E-01

 * 23 selected distances

     #   Z          #   Z                                           value/Å
     1   6 C        2   7 N                                       1.4536454 (max)
     2   7 N        3   6 C                                       1.3214769
     3   6 C        4   7 N                                       1.3642924
     4   7 N        5   6 C                                       1.3362840
     2   7 N        6   6 C                                       1.3792104
     7   6 C        8   8 O                                       1.2342479
     7   6 C        9   7 N                                       1.3179684
     9   7 N       10   6 C                                       1.3864686
     6   6 C       11   6 C                                       1.4238164
    11   6 C       12   8 O                                       1.2066152
     5   6 C       13   7 N                                       1.2852797
    13   7 N       14   6 C                                       1.4490207
     1   6 C       15   1 H                                       1.0911666
     1   6 C       16   1 H                                       1.0859519
     1   6 C       17   1 H                                       1.0950242
     3   6 C       18   1 H                                       1.0811074
    10   6 C       19   1 H                                       1.0990421
    10   6 C       20   1 H                                       1.0966325
    10   6 C       21   1 H                                       1.0952663
    14   6 C       22   1 H                                       1.0856077
    14   6 C       23   1 H                                       1.0913245
    14   6 C       24   1 H                                       1.0902820
     4   7 N       25   1 H                                       1.0163883 (min)

 * 5 distinct bonds (by element types)

   Z      Z             #   av. dist./Å        max./Å        min./Å
   1 H    6 C          10     1.0911405     1.0990421     1.0811074
   6 C    6 C           1     1.4238164     1.4238164     1.4238164
   1 H    7 N           1     1.0163883     1.0163883     1.0163883
   6 C    7 N           9     1.3659607     1.4536454     1.2852797
   6 C    8 O           2     1.2204316     1.2342479     1.2066152


optimized geometry written to: xtbopt.xyz


           -------------------------------------------------
          | TOTAL ENERGY              -42.056357306228 Eh   |
          | GRADIENT NORM               0.005987285156 Eh/α |
          | HOMO-LUMO GAP               0.462210920516 eV   |
           -------------------------------------------------

------------------------------------------------------------------------
 * finished run on 2024/06/05 at 20:00:13.627     
------------------------------------------------------------------------
 total:
 * wall-time:     0 d,  0 h,  0 min,  0.313 sec
 *  cpu-time:     0 d,  0 h,  0 min,  0.252 sec
 * ratio c/w:     0.804 speedup
 SCF:
 * wall-time:     0 d,  0 h,  0 min,  0.037 sec
 *  cpu-time:     0 d,  0 h,  0 min,  0.024 sec
 * ratio c/w:     0.650 speedup
 ANC optimizer:
 * wall-time:     0 d,  0 h,  0 min,  0.244 sec
 *  cpu-time:     0 d,  0 h,  0 min,  0.215 sec
 * ratio c/w:     0.881 speedup

