      -----------------------------------------------------------      
     |                   =====================                   |     
     |                           x T B                           |     
     |                   =====================                   |     
     |                         S. Grimme                         |     
     |          Mulliken Center for Theoretical Chemistry        |     
     |                    University of Bonn                     |     
      -----------------------------------------------------------      

   * xtb version 6.6.1 (8d0f1dd) compiled by 'conda@1efc2f54142f' on 2023-08-01

   xtb is free software: you can redistribute it and/or modify it under
   the terms of the GNU Lesser General Public License as published by
   the Free Software Foundation, either version 3 of the License, or
   (at your option) any later version.
   
   xtb is distributed in the hope that it will be useful,
   but WITHOUT ANY WARRANTY; without even the implied warranty of
   MERCHANTABILITY or FITNESS FOR A PARTICULAR PURPOSE.  See the
   GNU Lesser General Public License for more details.
   
   Cite this work as:
   * C. Bannwarth, E. Caldeweyher, S. Ehlert, A. Hansen, P. Pracht,
     J. Seibert, S. Spicher, S. Grimme, WIREs Comput. Mol. Sci., 2020, 11,
     e01493. DOI: 10.1002/wcms.1493
   
   for GFN2-xTB:
   * C. Bannwarth, S. Ehlert and S. Grimme., J. Chem. Theory Comput., 2019,
     15, 1652-1671. DOI: 10.1021/acs.jctc.8b01176
   for GFN1-xTB:
   * S. Grimme, C. Bannwarth, P. Shushkov, J. Chem. Theory Comput., 2017,
     13, 1989-2009. DOI: 10.1021/acs.jctc.7b00118
   for GFN0-xTB:
   * P. Pracht, E. Caldeweyher, S. Ehlert, S. Grimme, ChemRxiv, 2019, preprint.
     DOI: 10.26434/chemrxiv.8326202.v1
   for GFN-FF:
   * S. Spicher and S. Grimme, Angew. Chem. Int. Ed., 2020, 59, 15665-15673.
     DOI: 10.1002/anie.202004239
   
   for ALPB and GBSA implicit solvation:
   * S. Ehlert, M. Stahn, S. Spicher, S. Grimme, J. Chem. Theory Comput.,
     2021, 17, 4250-4261. DOI: 10.1021/acs.jctc.1c00471
   
   for DFT-D4:
   * E. Caldeweyher, C. Bannwarth and S. Grimme, J. Chem. Phys., 2017,
     147, 034112. DOI: 10.1063/1.4993215
   * E. Caldeweyher, S. Ehlert, A. Hansen, H. Neugebauer, S. Spicher,
     C. Bannwarth and S. Grimme, J. Chem. Phys., 2019, 150, 154122.
     DOI: 10.1063/1.5090222
   * E. Caldeweyher, J.-M. Mewes, S. Ehlert and S. Grimme, Phys. Chem. Chem. Phys.
     2020, 22, 8499-8512. DOI: 10.1039/D0CP00502A
   
   for sTDA-xTB:
   * S. Grimme and C. Bannwarth, J. Chem. Phys., 2016, 145, 054103.
     DOI: 10.1063/1.4959605
   
   in the mass-spec context:
   * V. Asgeirsson, C. Bauer and S. Grimme, Chem. Sci., 2017, 8, 4879.
     DOI: 10.1039/c7sc00601b
   * J. Koopman and S. Grimme, ACS Omega 2019, 4, 12, 15120-15133.
     DOI: 10.1021/acsomega.9b02011
   
   for metadynamics refer to:
   * S. Grimme, J. Chem. Theory Comput., 2019, 155, 2847-2862
     DOI: 10.1021/acs.jctc.9b00143
   
   for SPH calculations refer to:
   * S. Spicher and S. Grimme, J. Chem. Theory Comput., 2021, 17, 1701-1714
     DOI: 10.1021/acs.jctc.0c01306
   
   with help from (in alphabetical order)
   P. Atkinson, C. Bannwarth, F. Bohle, G. Brandenburg, E. Caldeweyher
   M. Checinski, S. Dohm, S. Ehlert, S. Ehrlich, I. Gerasimov, C. Hölzer
   A. Katbashev, J. Koopman, C. Lavigne, S. Lehtola, F. März, M. Müller,
   F. Musil, H. Neugebauer, J. Pisarek, C. Plett, P. Pracht, F. Pultar,
   J. Seibert, P. Shushkov, S. Spicher, M. Stahn, M. Steiner, T. Strunk,
   J. Stückrath, T. Rose, and J. Unsleber
   
 * started run on 2024/06/05 at 19:58:40.848     

           -------------------------------------------------
          |                Calculation Setup                |
           -------------------------------------------------

          program call               : xtb struc.xyz --opt loose --input .xc1 --gfn2
          hostname                   : n-62-29-9
          coordinate file            : struc.xyz
          omp threads                :                     1

   ID    Z sym.   atoms
    1    6 C      1, 3, 5-7, 10, 11, 14
    2    7 N      2, 4, 9, 13
    3    8 O      8, 12
    4    1 H      15-25
constraining bond 2 9 to    5.8400000 Å, actual value:    3.6850118 Å

           -------------------------------------------------
          |                 G F N 2 - x T B                 |
           -------------------------------------------------

        Reference                      10.1021/acs.jctc.8b01176
      * Hamiltonian:
        H0-scaling (s, p, d)           1.850000    2.230000    2.230000
        zeta-weighting                 0.500000
      * Dispersion:
        s8                             2.700000
        a1                             0.520000
        a2                             5.000000
        s9                             5.000000
      * Repulsion:
        kExp                           1.500000    1.000000
        rExp                           1.000000
      * Coulomb:
        alpha                          2.000000
        third order                    shell-resolved
        anisotropic                    true
        a3                             3.000000
        a5                             4.000000
        cn-shift                       1.200000
        cn-exp                         4.000000
        max-rad                        5.000000


          ...................................................
          :                      SETUP                      :
          :.................................................:
          :  # basis functions                  67          :
          :  # atomic orbitals                  67          :
          :  # shells                           39          :
          :  # electrons                        74          :
          :  max. iterations                   250          :
          :  Hamiltonian                  GFN2-xTB          :
          :  restarted?                      false          :
          :  GBSA solvation                  false          :
          :  PC potential                    false          :
          :  electronic temp.         7500.0000000     K    :
          :  accuracy                    1.0000000          :
          :  -> integral cutoff          0.2500000E+02      :
          :  -> integral neglect         0.1000000E-07      :
          :  -> SCF convergence          0.1000000E-05 Eh   :
          :  -> wf. convergence          0.1000000E-03 e    :
          :  Broyden damping             0.4000000          :
          ...................................................

 iter      E             dE          RMSdq      gap      omega  full diag
   1    -42.5960780 -0.425961E+02  0.440E+00    3.52       0.0  T
   2    -42.7780033 -0.181925E+00  0.248E+00    3.37       1.0  T
   3    -42.7871777 -0.917437E-02  0.149E+00    3.50       1.0  T
   4    -42.7817164  0.546128E-02  0.642E-01    3.42       1.0  T
   5    -42.7911189 -0.940247E-02  0.115E-01    3.49       1.0  T
   6    -42.7912109 -0.920486E-04  0.685E-02    3.46       1.0  T
   7    -42.7912647 -0.537856E-04  0.265E-02    3.48       1.0  T
   8    -42.7912686 -0.385526E-05  0.113E-02    3.47       1.8  T
   9    -42.7912697 -0.111307E-05  0.441E-03    3.47       4.5  T
  10    -42.7912698 -0.733569E-07  0.139E-03    3.47      14.4  T
  11    -42.7912698 -0.243437E-08  0.602E-04    3.47      33.2  T
  12    -42.7912698 -0.222032E-08  0.181E-04    3.47     110.6  T

   *** convergence criteria satisfied after 12 iterations ***

         #    Occupation            Energy/Eh            Energy/eV
      -------------------------------------------------------------
         1        2.0000           -0.9116047             -24.8060
       ...           ...                  ...                  ...
        31        1.9942           -0.6212459             -16.9050
        32        1.9930           -0.6166804             -16.7807
        33        1.9876           -0.6031136             -16.4116
        34        1.9710           -0.5827317             -15.8569
        35        1.9403           -0.5651917             -15.3796
        36        1.9387           -0.5645672             -15.3627
        37        1.9155           -0.5566412             -15.1470 (HOMO)
        38        0.1907           -0.4290919             -11.6762 (LUMO)
        39        0.0640           -0.4015676             -10.9272
        40        0.0206           -0.3740689             -10.1789
        41        0.0006           -0.2879107              -7.8344
        42        0.0000           -0.2065811              -5.6214
       ...           ...                  ...                  ...
        67                          0.5613577              15.2753
      -------------------------------------------------------------
                  HL-Gap            0.1275493 Eh            3.4708 eV
             Fermi-level           -0.4825284 Eh          -13.1303 eV

 SCC (total)                   0 d,  0 h,  0 min,  0.040 sec
 SCC setup                      ...        0 min,  0.000 sec (  0.792%)
 Dispersion                     ...        0 min,  0.000 sec (  0.958%)
 classical contributions        ...        0 min,  0.000 sec (  0.252%)
 integral evaluation            ...        0 min,  0.006 sec ( 15.897%)
 iterations                     ...        0 min,  0.020 sec ( 49.822%)
 molecular gradient             ...        0 min,  0.013 sec ( 31.880%)
 printout                       ...        0 min,  0.000 sec (  0.363%)

         :::::::::::::::::::::::::::::::::::::::::::::::::::::
         ::                     SUMMARY                     ::
         :::::::::::::::::::::::::::::::::::::::::::::::::::::
         :: total energy             -33.968085337458 Eh    ::
         :: gradient norm              5.762699250739 Eh/a0 ::
         :: HOMO-LUMO gap              3.470793873671 eV    ::
         ::.................................................::
         :: SCC energy               -42.791269777655 Eh    ::
         :: -> isotropic ES            0.136760385929 Eh    ::
         :: -> anisotropic ES         -0.005341405309 Eh    ::
         :: -> anisotropic XC          0.011501049227 Eh    ::
         :: -> dispersion             -0.022650340738 Eh    ::
         :: repulsion energy           0.531105277918 Eh    ::
         :: add. restraining           8.291965003270 Eh    ::
         :: total charge               1.000000000010 e     ::
         :::::::::::::::::::::::::::::::::::::::::::::::::::::

      ----------------------------------------------------------- 
     |                   =====================                   |
     |                        A N C O P T                        |
     |                   =====================                   |
     |               Approximate Normal Coordinate               |
     |                Rational Function Optimizer                |
      ----------------------------------------------------------- 

          ...................................................
          :                      SETUP                      :
          :.................................................:
          :   optimization level             loose          :
          :   max. optcycles                   200          :
          :   ANC micro-cycles                  20          :
          :   degrees of freedom                69          :
          :.................................................:
          :   RF solver                   davidson          :
          :   write xtbopt.log                true          :
          :   linear?                        false          :
          :   energy convergence         0.5000000E-04 Eh   :
          :   grad. convergence          0.4000000E-02 Eh/α :
          :   maxmium RF displ.          1.0000000          :
          :   Hlow (freq-cutoff)         0.1000000E-01      :
          :   Hmax (freq-cutoff)         5.0000000          :
          :   S6 in model hess.         20.0000000          :
          ...................................................

generating ANC from model Hessian ...
Using Lindh-Hessian (1995)
 Shifting diagonal of input Hessian by   0.91403853960153514     
 Lowest  eigenvalues of input Hessian
    0.010000    0.588258    0.000000    0.000000    0.000000    0.000000
    0.000000    0.000000    0.916795    0.918601    0.919926    0.923894
    0.923920    0.925912    0.926353    0.928415    0.932835    0.946018
 Highest eigenvalues
    2.988352    3.116993    3.183948    3.301964    3.391925    4.388292


........................................................................
.............................. CYCLE    1 ..............................
........................................................................

 iter      E             dE          RMSdq      gap      omega  full diag
   1    -42.7912698 -0.427913E+02  0.838E-05    3.47       0.0  T
   2    -42.7912698 -0.247127E-10  0.452E-05    3.47     442.9  T
   3    -42.7912698 -0.149214E-11  0.279E-05    3.47     715.8  T
     SCC iter.                  ...        0 min,  0.005 sec
     gradient                   ...        0 min,  0.013 sec
 * total energy  :   -33.9680853 Eh     change       -0.2401919E-09 Eh
   gradient norm :     5.7626987 Eh/α   predicted     0.0000000E+00 (-100.00%)
   displ. norm   :     0.7164396 α      lambda       -0.4092156E+01
   maximum displ.:     0.6302533 α      in ANC's #69, #60, #51, ...

........................................................................
.............................. CYCLE    2 ..............................
........................................................................

 iter      E             dE          RMSdq      gap      omega  full diag
   1    -42.7030090 -0.427030E+02  0.108E+00    2.78       0.0  T
   2    -42.7086040 -0.559496E-02  0.719E-01    3.02       1.0  T
   3    -42.7130102 -0.440622E-02  0.371E-01    2.90       1.0  T
   4    -42.7136801 -0.669905E-03  0.111E-01    2.93       1.0  T
   5    -42.7139175 -0.237379E-03  0.330E-02    2.94       1.0  T
   6    -42.7139240 -0.651095E-05  0.166E-02    2.93       1.2  T
   7    -42.7139252 -0.122807E-05  0.416E-03    2.93       4.8  T
   8    -42.7139254 -0.125936E-06  0.166E-03    2.93      12.0  T
   9    -42.7139254 -0.111683E-07  0.818E-04    2.93      24.4  T
  10    -42.7139254 -0.882593E-08  0.314E-04    2.93      63.8  T
     SCC iter.                  ...        0 min,  0.016 sec
     gradient                   ...        0 min,  0.013 sec
 * total energy  :   -37.4402485 Eh     change       -0.3472163E+01 Eh
   gradient norm :     4.0117064 Eh/α   predicted    -0.3101160E+01 ( -10.69%)
   displ. norm   :     0.7469921 α      lambda       -0.2980031E+01
   maximum displ.:     0.6609797 α      in ANC's #69, #51, #60, ...

........................................................................
.............................. CYCLE    3 ..............................
........................................................................

 iter      E             dE          RMSdq      gap      omega  full diag
   1    -42.4510993 -0.424511E+02  0.138E+00    1.31       0.0  T
   2    -42.3920650  0.590343E-01  0.191E+00    2.76       1.0  T
   3    -42.5277611 -0.135696E+00  0.557E-01    2.30       1.0  T
   4    -42.5289276 -0.116653E-02  0.377E-01    2.13       1.0  T
   5    -42.5311537 -0.222610E-02  0.792E-02    2.08       1.0  T
   6    -42.5312568 -0.103140E-03  0.258E-02    2.11       1.0  T
   7    -42.5312559  0.895681E-06  0.170E-02    2.12       1.2  T
   8    -42.5312598 -0.383854E-05  0.531E-03    2.11       3.8  T
   9    -42.5312604 -0.642135E-06  0.294E-03    2.11       6.8  T
  10    -42.5312605 -0.120343E-06  0.101E-03    2.11      19.8  T
  11    -42.5312605 -0.169981E-07  0.466E-04    2.11      43.0  T
  12    -42.5312605 -0.105037E-08  0.203E-04    2.11      98.6  T
     SCC iter.                  ...        0 min,  0.019 sec
     gradient                   ...        0 min,  0.013 sec
 * total energy  :   -39.8195652 Eh     change       -0.2379317E+01 Eh
   gradient norm :     2.4500302 Eh/α   predicted    -0.2321439E+01 (  -2.43%)
   displ. norm   :     0.7246869 α      lambda       -0.1737731E+01
   maximum displ.:     0.5829726 α      in ANC's #69, #51, #49, ...

........................................................................
.............................. CYCLE    4 ..............................
........................................................................

 iter      E             dE          RMSdq      gap      omega  full diag
   1    -42.3154224 -0.423154E+02  0.137E+00    0.69       0.0  T
   2    -42.0897594  0.225663E+00  0.240E+00    1.22       1.0  T
   3    -42.3929570 -0.303198E+00  0.512E-01    0.90       1.0  T
   4    -42.3922710  0.685989E-03  0.337E-01    0.91       1.0  T
   5    -42.3937518 -0.148079E-02  0.137E-01    0.87       1.0  T
   6    -42.3941702 -0.418347E-03  0.415E-02    0.90       1.0  T
   7    -42.3941846 -0.144738E-04  0.249E-02    0.89       1.0  T
   8    -42.3941905 -0.586449E-05  0.152E-02    0.89       1.3  T
   9    -42.3941960 -0.546349E-05  0.535E-03    0.89       3.7  T
  10    -42.3941965 -0.501421E-06  0.189E-03    0.89      10.6  T
  11    -42.3941965 -0.402682E-07  0.990E-04    0.89      20.2  T
  12    -42.3941965 -0.835538E-08  0.374E-04    0.89      53.5  T
     SCC iter.                  ...        0 min,  0.019 sec
     gradient                   ...        0 min,  0.013 sec
 * total energy  :   -41.1725140 Eh     change       -0.1352949E+01 Eh
   gradient norm :     1.3454098 Eh/α   predicted    -0.1325192E+01 (  -2.05%)
   displ. norm   :     0.6083885 α      lambda       -0.8022245E+00
   maximum displ.:     0.4854404 α      in ANC's #69, #16, #51, ...

........................................................................
.............................. CYCLE    5 ..............................
........................................................................

 iter      E             dE          RMSdq      gap      omega  full diag
   1    -42.2946330 -0.422946E+02  0.106E+00    1.03       0.0  T
   2    -42.1870220  0.107611E+00  0.155E+00    0.31       1.0  T
   3    -42.3099664 -0.122944E+00  0.616E-01    0.99       1.0  T
   4    -42.3230653 -0.130989E-01  0.342E-01    0.89       1.0  T
   5    -42.3243322 -0.126695E-02  0.203E-01    0.80       1.0  T
   6    -42.3254690 -0.113674E-02  0.613E-02    0.83       1.0  T
   7    -42.3256164 -0.147426E-03  0.275E-02    0.85       1.0  T
   8    -42.3256358 -0.193436E-04  0.850E-03    0.86       2.4  T
   9    -42.3256364 -0.649185E-06  0.344E-03    0.86       5.8  T
  10    -42.3256367 -0.295943E-06  0.108E-03    0.86      18.5  T
  11    -42.3256367 -0.230199E-07  0.613E-04    0.86      32.6  T
  12    -42.3256367 -0.527431E-08  0.335E-04    0.86      59.6  T
     SCC iter.                  ...        0 min,  0.019 sec
     gradient                   ...        0 min,  0.013 sec
 * total energy  :   -41.7052691 Eh     change       -0.5327551E+00 Eh
   gradient norm :     0.4530280 Eh/α   predicted    -0.5495785E+00 (   3.16%)
   displ. norm   :     0.3554775 α      lambda       -0.1544644E+00
   maximum displ.:     0.2015432 α      in ANC's #69, #16, #35, ...

........................................................................
.............................. CYCLE    6 ..............................
........................................................................

 iter      E             dE          RMSdq      gap      omega  full diag
   1    -42.3362724 -0.423363E+02  0.448E-01    1.11       0.0  T
   2    -42.3356420  0.630395E-03  0.401E-01    1.03       1.0  T
   3    -42.3388575 -0.321558E-02  0.183E-01    1.05       1.0  T
   4    -42.3369649  0.189268E-02  0.226E-01    1.18       1.0  T
   5    -42.3390726 -0.210772E-02  0.856E-02    1.00       1.0  T
   6    -42.3394479 -0.375355E-03  0.183E-02    1.07       1.1  T
   7    -42.3394519 -0.395624E-05  0.107E-02    1.06       1.9  T
   8    -42.3394526 -0.696133E-06  0.458E-03    1.07       4.4  T
   9    -42.3394534 -0.779059E-06  0.171E-03    1.07      11.7  T
  10    -42.3394534 -0.206352E-07  0.900E-04    1.07      22.2  T
  11    -42.3394534 -0.118148E-07  0.386E-04    1.07      51.8  T
     SCC iter.                  ...        0 min,  0.017 sec
     gradient                   ...        0 min,  0.013 sec
 * total energy  :   -41.8071497 Eh     change       -0.1018807E+00 Eh
   gradient norm :     0.2592516 Eh/α   predicted    -0.8699262E-01 ( -14.61%)
   displ. norm   :     0.3201759 α      lambda       -0.6816961E-01
   maximum displ.:     0.1703452 α      in ANC's #16, #35, #23, ...

........................................................................
.............................. CYCLE    7 ..............................
........................................................................

 iter      E             dE          RMSdq      gap      omega  full diag
   1    -42.3881801 -0.423882E+02  0.394E-01    0.92       0.0  T
   2    -42.3710217  0.171584E-01  0.667E-01    1.23       1.0  T
   3    -42.3928984 -0.218767E-01  0.177E-01    1.07       1.0  T
   4    -42.3921472  0.751179E-03  0.168E-01    1.17       1.0  T
   5    -42.3930600 -0.912782E-03  0.275E-02    1.08       1.0  T
   6    -42.3930699 -0.990372E-05  0.141E-02    1.09       1.4  T
   7    -42.3930730 -0.314202E-05  0.764E-03    1.08       2.6  T
   8    -42.3930739 -0.923773E-06  0.300E-03    1.09       6.7  T
   9    -42.3930741 -0.139622E-06  0.166E-03    1.09      12.0  T
  10    -42.3930741 -0.504218E-07  0.633E-04    1.09      31.6  T
  11    -42.3930741 -0.487803E-08  0.269E-04    1.09      74.4  T
     SCC iter.                  ...        0 min,  0.017 sec
     gradient                   ...        0 min,  0.011 sec
 * total energy  :   -41.8625910 Eh     change       -0.5544128E-01 Eh
   gradient norm :     0.2557051 Eh/α   predicted    -0.3758394E-01 ( -32.21%)
   displ. norm   :     0.5301018 α      lambda       -0.9310863E-01
   maximum displ.:     0.3008651 α      in ANC's #16, #35, #23, ...

........................................................................
.............................. CYCLE    8 ..............................
........................................................................

 iter      E             dE          RMSdq      gap      omega  full diag
   1    -42.4733534 -0.424734E+02  0.677E-01    0.71       0.0  T
   2    -42.4331792  0.401742E-01  0.104E+00    1.16       1.0  T
   3    -42.4850543 -0.518751E-01  0.279E-01    0.98       1.0  T
   4    -42.4847703  0.283985E-03  0.185E-01    1.03       1.0  T
   5    -42.4854369 -0.666583E-03  0.400E-02    1.03       1.0  T
   6    -42.4854708 -0.339230E-04  0.179E-02    1.01       1.1  T
   7    -42.4854748 -0.393646E-05  0.109E-02    1.02       1.8  T
   8    -42.4854768 -0.202863E-05  0.322E-03    1.01       6.2  T
   9    -42.4854768 -0.613783E-07  0.159E-03    1.01      12.6  T
  10    -42.4854769 -0.176563E-07  0.869E-04    1.01      23.0  T
  11    -42.4854769 -0.153951E-07  0.339E-04    1.01      58.9  T
     SCC iter.                  ...        0 min,  0.015 sec
     gradient                   ...        0 min,  0.011 sec
 * total energy  :   -41.9335611 Eh     change       -0.7097008E-01 Eh
   gradient norm :     0.2170729 Eh/α   predicted    -0.5963732E-01 ( -15.97%)
   displ. norm   :     0.5045551 α      lambda       -0.6312790E-01
   maximum displ.:     0.2980397 α      in ANC's #16, #35, #23, ...

........................................................................
.............................. CYCLE    9 ..............................
........................................................................

 iter      E             dE          RMSdq      gap      omega  full diag
   1    -42.5360786 -0.425361E+02  0.652E-01    0.70       0.0  T
   2    -42.5156075  0.204711E-01  0.798E-01    1.07       1.0  T
   3    -42.5408202 -0.252126E-01  0.319E-01    0.82       1.0  T
   4    -42.5423111 -0.149092E-02  0.164E-01    0.94       1.0  T
   5    -42.5429986 -0.687483E-03  0.387E-02    0.95       1.0  T
   6    -42.5430330 -0.344483E-04  0.132E-02    0.93       1.5  T
   7    -42.5430347 -0.167699E-05  0.835E-03    0.93       2.4  T
   8    -42.5430358 -0.109679E-05  0.268E-03    0.93       7.5  T
   9    -42.5430359 -0.730236E-07  0.160E-03    0.93      12.5  T
  10    -42.5430359 -0.524583E-07  0.610E-04    0.93      32.8  T
  11    -42.5430359 -0.486303E-08  0.285E-04    0.93      70.2  T
     SCC iter.                  ...        0 min,  0.016 sec
     gradient                   ...        0 min,  0.011 sec
 * total energy  :   -41.9816279 Eh     change       -0.4806676E-01 Eh
   gradient norm :     0.1792560 Eh/α   predicted    -0.3959952E-01 ( -17.62%)
   displ. norm   :     0.4767371 α      lambda       -0.4405909E-01
   maximum displ.:     0.2857510 α      in ANC's #16, #35, #21, ...

........................................................................
.............................. CYCLE   10 ..............................
........................................................................

 iter      E             dE          RMSdq      gap      omega  full diag
   1    -42.5598006 -0.425598E+02  0.612E-01    0.75       0.0  T
   2    -42.5524857  0.731484E-02  0.576E-01    1.01       1.0  T
   3    -42.5585334 -0.604767E-02  0.375E-01    0.70       1.0  T
   4    -42.5617888 -0.325534E-02  0.177E-01    0.95       1.0  T
   5    -42.5630500 -0.126126E-02  0.308E-02    0.89       1.0  T
   6    -42.5630681 -0.181060E-04  0.129E-02    0.88       1.5  T
   7    -42.5630710 -0.286938E-05  0.739E-03    0.88       2.7  T
   8    -42.5630720 -0.989863E-06  0.222E-03    0.88       9.0  T
   9    -42.5630721 -0.839590E-07  0.906E-04    0.88      22.1  T
  10    -42.5630721 -0.835959E-08  0.447E-04    0.88      44.8  T
     SCC iter.                  ...        0 min,  0.014 sec
     gradient                   ...        0 min,  0.011 sec
 * total energy  :   -42.0142879 Eh     change       -0.3266000E-01 Eh
   gradient norm :     0.1452555 Eh/α   predicted    -0.2703677E-01 ( -17.22%)
   displ. norm   :     0.3967815 α      lambda       -0.2666186E-01
   maximum displ.:     0.2318931 α      in ANC's #16, #21, #23, ...

........................................................................
.............................. CYCLE   11 ..............................
........................................................................

 iter      E             dE          RMSdq      gap      omega  full diag
   1    -42.5641735 -0.425642E+02  0.484E-01    0.81       0.0  T
   2    -42.5629873  0.118622E-02  0.373E-01    0.96       1.0  T
   3    -42.5627399  0.247380E-03  0.301E-01    0.72       1.0  T
   4    -42.5634482 -0.708303E-03  0.189E-01    0.95       1.0  T
   5    -42.5653649 -0.191672E-02  0.296E-02    0.85       1.0  T
   6    -42.5653932 -0.282724E-04  0.944E-03    0.85       2.1  T
   7    -42.5653948 -0.163401E-05  0.540E-03    0.85       3.7  T
   8    -42.5653951 -0.330770E-06  0.217E-03    0.85       9.2  T
   9    -42.5653953 -0.127927E-06  0.742E-04    0.85      27.0  T
  10    -42.5653953 -0.793192E-08  0.333E-04    0.85      60.0  T
     SCC iter.                  ...        0 min,  0.014 sec
     gradient                   ...        0 min,  0.011 sec
 * total energy  :   -42.0335255 Eh     change       -0.1923762E-01 Eh
   gradient norm :     0.1175349 Eh/α   predicted    -0.1542971E-01 ( -19.79%)
   displ. norm   :     0.2888348 α      lambda       -0.1641236E-01
   maximum displ.:     0.1493320 α      in ANC's #16, #21, #40, ...

........................................................................
.............................. CYCLE   12 ..............................
........................................................................

 iter      E             dE          RMSdq      gap      omega  full diag
   1    -42.5713237 -0.425713E+02  0.347E-01    0.84       0.0  T
   2    -42.5717234 -0.399784E-03  0.231E-01    0.81       1.0  T
   3    -42.5720955 -0.372113E-03  0.135E-01    0.84       1.0  T
   4    -42.5721512 -0.556275E-04  0.565E-02    0.81       1.0  T
   5    -42.5722506 -0.994639E-04  0.235E-02    0.84       1.0  T
   6    -42.5722715 -0.208930E-04  0.783E-03    0.82       2.6  T
   7    -42.5722734 -0.183997E-05  0.424E-03    0.83       4.7  T
   8    -42.5722738 -0.401799E-06  0.111E-03    0.83      18.0  T
   9    -42.5722738 -0.199722E-07  0.509E-04    0.83      39.3  T
  10    -42.5722738  0.236327E-10  0.307E-04    0.83      65.1  T
     SCC iter.                  ...        0 min,  0.014 sec
     gradient                   ...        0 min,  0.011 sec
 * total energy  :   -42.0452514 Eh     change       -0.1172588E-01 Eh
   gradient norm :     0.0868983 Eh/α   predicted    -0.8890951E-02 ( -24.18%)
   displ. norm   :     0.2051230 α      lambda       -0.1046631E-01
   maximum displ.:     0.0964209 α      in ANC's #21, #40, #16, ...

........................................................................
.............................. CYCLE   13 ..............................
........................................................................

 iter      E             dE          RMSdq      gap      omega  full diag
   1    -42.5902880 -0.425903E+02  0.231E-01    0.84       0.0  T
   2    -42.5902672  0.208166E-04  0.177E-01    0.74       1.0  T
   3    -42.5904116 -0.144487E-03  0.136E-01    0.88       1.0  T
   4    -42.5908287 -0.417063E-03  0.996E-02    0.77       1.0  T
   5    -42.5910893 -0.260608E-03  0.216E-02    0.81       1.0  T
   6    -42.5911033 -0.139663E-04  0.504E-03    0.81       4.0  T
   7    -42.5911035 -0.198788E-06  0.315E-03    0.81       6.3  T
   8    -42.5911036 -0.126424E-06  0.116E-03    0.81      17.2  T
   9    -42.5911036 -0.265682E-07  0.512E-04    0.81      39.0  T
  10    -42.5911036 -0.164969E-08  0.302E-04    0.81      66.3  T
     SCC iter.                  ...        0 min,  0.014 sec
     gradient                   ...        0 min,  0.011 sec
 * total energy  :   -42.0524336 Eh     change       -0.7182212E-02 Eh
   gradient norm :     0.0802109 Eh/α   predicted    -0.5453833E-02 ( -24.06%)
   displ. norm   :     0.1548375 α      lambda       -0.6522908E-02
   maximum displ.:     0.0761695 α      in ANC's #21, #40, #6, ...

........................................................................
.............................. CYCLE   14 ..............................
........................................................................

 iter      E             dE          RMSdq      gap      omega  full diag
   1    -42.6126594 -0.426127E+02  0.140E-01    0.80       0.0  T
   2    -42.6126469  0.125022E-04  0.973E-02    0.76       1.0  T
   3    -42.6124352  0.211711E-03  0.942E-02    0.84       1.0  T
   4    -42.6127198 -0.284610E-03  0.509E-02    0.76       1.0  T
   5    -42.6127985 -0.786817E-04  0.905E-03    0.79       2.2  T
   6    -42.6128005 -0.204228E-05  0.356E-03    0.79       5.6  T
   7    -42.6128006 -0.298744E-07  0.234E-03    0.79       8.6  T
   8    -42.6128007 -0.127200E-06  0.797E-04    0.79      25.1  T
   9    -42.6128007 -0.115540E-07  0.412E-04    0.79      48.6  T
     SCC iter.                  ...        0 min,  0.013 sec
     gradient                   ...        0 min,  0.011 sec
 * total energy  :   -42.0573541 Eh     change       -0.4920492E-02 Eh
   gradient norm :     0.0824277 Eh/α   predicted    -0.3340270E-02 ( -32.12%)
   displ. norm   :     0.2410522 α      lambda       -0.7960615E-02
   maximum displ.:     0.1160622 α      in ANC's #21, #1, #40, ...

........................................................................
.............................. CYCLE   15 ..............................
........................................................................

 iter      E             dE          RMSdq      gap      omega  full diag
   1    -42.6391289 -0.426391E+02  0.207E-01    0.72       0.0  T
   2    -42.6390746  0.542434E-04  0.138E-01    0.79       1.0  T
   3    -42.6381174  0.957233E-03  0.157E-01    0.65       1.0  T
   4    -42.6392337 -0.111633E-02  0.507E-02    0.77       1.0  T
   5    -42.6393031 -0.693653E-04  0.141E-02    0.75       1.4  T
   6    -42.6393079 -0.484628E-05  0.498E-03    0.75       4.0  T
   7    -42.6393080 -0.661595E-07  0.301E-03    0.75       6.6  T
   8    -42.6393082 -0.180610E-06  0.110E-03    0.75      18.2  T
   9    -42.6393082 -0.292880E-07  0.468E-04    0.75      42.7  T
  10    -42.6393082 -0.272664E-08  0.178E-04    0.75     112.2  T
     SCC iter.                  ...        0 min,  0.014 sec
     gradient                   ...        0 min,  0.011 sec
 * total energy  :   -42.0625397 Eh     change       -0.5185678E-02 Eh
   gradient norm :     0.0704573 Eh/α   predicted    -0.4211677E-02 ( -18.78%)
   displ. norm   :     0.4240699 α      lambda       -0.7529566E-02
   maximum displ.:     0.3473257 α      in ANC's #1, #21, #6, ...

........................................................................
.............................. CYCLE   16 ..............................
........................................................................

 iter      E             dE          RMSdq      gap      omega  full diag
   1    -42.6558703 -0.426559E+02  0.354E-01    0.64       0.0  T
   2    -42.6549217  0.948609E-03  0.266E-01    0.79       1.0  T
   3    -42.6529482  0.197344E-02  0.282E-01    0.54       1.0  T
   4    -42.6563499 -0.340163E-02  0.453E-02    0.69       1.0  T
   5    -42.6564110 -0.611776E-04  0.178E-02    0.68       1.1  T
   6    -42.6564192 -0.820538E-05  0.790E-03    0.69       2.5  T
   7    -42.6564198 -0.520031E-06  0.469E-03    0.69       4.3  T
   8    -42.6564202 -0.437741E-06  0.187E-03    0.69      10.7  T
   9    -42.6564203 -0.987649E-07  0.619E-04    0.69      32.3  T
  10    -42.6564203 -0.114488E-08  0.202E-04    0.69      99.2  T
     SCC iter.                  ...        0 min,  0.014 sec
     gradient                   ...        0 min,  0.011 sec
 * total energy  :   -42.0646857 Eh     change       -0.2145956E-02 Eh
   gradient norm :     0.0723977 Eh/α   predicted    -0.4441885E-02 ( 106.99%)
   displ. norm   :     0.2754920 α      lambda       -0.6414802E-02
   maximum displ.:     0.2418526 α      in ANC's #1, #21, #33, ...

........................................................................
.............................. CYCLE   17 ..............................
........................................................................

 iter      E             dE          RMSdq      gap      omega  full diag
   1    -42.6607757 -0.426608E+02  0.233E-01    0.62       0.0  T
   2    -42.6601815  0.594206E-03  0.191E-01    0.75       1.0  T
   3    -42.6601863 -0.482442E-05  0.155E-01    0.58       1.0  T
   4    -42.6610247 -0.838313E-03  0.492E-02    0.67       1.0  T
   5    -42.6610993 -0.746502E-04  0.111E-02    0.66       1.8  T
   6    -42.6611009 -0.159383E-05  0.616E-03    0.66       3.2  T
   7    -42.6611014 -0.534470E-06  0.321E-03    0.66       6.2  T
   8    -42.6611018 -0.351027E-06  0.917E-04    0.66      21.8  T
   9    -42.6611018 -0.156249E-07  0.384E-04    0.66      52.1  T
     SCC iter.                  ...        0 min,  0.013 sec
     gradient                   ...        0 min,  0.011 sec
 * total energy  :   -42.0687764 Eh     change       -0.4090693E-02 Eh
   gradient norm :     0.0666681 Eh/α   predicted    -0.3450947E-02 ( -15.64%)
   displ. norm   :     0.1317398 α      lambda       -0.4122606E-02
   maximum displ.:     0.0809814 α      in ANC's #1, #21, #8, ...

........................................................................
.............................. CYCLE   18 ..............................
........................................................................

 iter      E             dE          RMSdq      gap      omega  full diag
   1    -42.6517464 -0.426517E+02  0.129E-01    0.64       0.0  T
   2    -42.6516353  0.111154E-03  0.106E-01    0.68       1.0  T
   3    -42.6517173 -0.820865E-04  0.702E-02    0.62       1.0  T
   4    -42.6517986 -0.812443E-04  0.468E-02    0.68       1.0  T
   5    -42.6518808 -0.822527E-04  0.811E-03    0.65       2.5  T
   6    -42.6518823 -0.148353E-05  0.373E-03    0.65       5.4  T
   7    -42.6518825 -0.188636E-06  0.215E-03    0.65       9.3  T
   8    -42.6518826 -0.861338E-07  0.697E-04    0.65      28.7  T
   9    -42.6518826 -0.826840E-08  0.375E-04    0.65      53.4  T
     SCC iter.                  ...        0 min,  0.013 sec
     gradient                   ...        0 min,  0.011 sec
 * total energy  :   -42.0718982 Eh     change       -0.3121822E-02 Eh
   gradient norm :     0.0473527 Eh/α   predicted    -0.2097218E-02 ( -32.82%)
   displ. norm   :     0.2202439 α      lambda       -0.5001551E-02
   maximum displ.:     0.1104325 α      in ANC's #21, #6, #8, ...

........................................................................
.............................. CYCLE   19 ..............................
........................................................................

 iter      E             dE          RMSdq      gap      omega  full diag
   1    -42.6477810 -0.426478E+02  0.199E-01    0.63       0.0  T
   2    -42.6476816  0.993245E-04  0.143E-01    0.66       1.0  T
   3    -42.6476024  0.792479E-04  0.112E-01    0.59       1.0  T
   4    -42.6478389 -0.236525E-03  0.716E-02    0.67       1.0  T
   5    -42.6480327 -0.193773E-03  0.152E-02    0.63       1.3  T
   6    -42.6480394 -0.672001E-05  0.498E-03    0.63       4.0  T
   7    -42.6480397 -0.271821E-06  0.337E-03    0.63       5.9  T
   8    -42.6480399 -0.212783E-06  0.107E-03    0.63      18.8  T
   9    -42.6480399 -0.186494E-07  0.513E-04    0.63      39.0  T
  10    -42.6480399 -0.405920E-08  0.230E-04    0.63      86.8  T
     SCC iter.                  ...        0 min,  0.014 sec
     gradient                   ...        0 min,  0.011 sec
 * total energy  :   -42.0754669 Eh     change       -0.3568709E-02 Eh
   gradient norm :     0.0454059 Eh/α   predicted    -0.2622106E-02 ( -26.53%)
   displ. norm   :     0.2189127 α      lambda       -0.3528903E-02
   maximum displ.:     0.0894841 α      in ANC's #21, #6, #8, ...

........................................................................
.............................. CYCLE   20 ..............................
........................................................................

 iter      E             dE          RMSdq      gap      omega  full diag
   1    -42.6488927 -0.426489E+02  0.188E-01    0.65       0.0  T
   2    -42.6489545 -0.618547E-04  0.107E-01    0.63       1.0  T
   3    -42.6489165  0.380586E-04  0.858E-02    0.64       1.0  T
   4    -42.6489916 -0.751578E-04  0.414E-02    0.64       1.0  T
   5    -42.6490430 -0.513398E-04  0.143E-02    0.63       1.4  T
   6    -42.6490511 -0.813740E-05  0.549E-03    0.64       3.6  T
   7    -42.6490518 -0.719270E-06  0.336E-03    0.63       6.0  T
   8    -42.6490521 -0.277045E-06  0.959E-04    0.63      20.8  T
   9    -42.6490521 -0.182746E-07  0.377E-04    0.63      53.0  T
     SCC iter.                  ...        0 min,  0.013 sec
     gradient                   ...        0 min,  0.011 sec
 * total energy  :   -42.0780098 Eh     change       -0.2542892E-02 Eh
   gradient norm :     0.0452296 Eh/α   predicted    -0.1849068E-02 ( -27.28%)
   displ. norm   :     0.2044144 α      lambda       -0.2783922E-02
   maximum displ.:     0.0890719 α      in ANC's #6, #21, #17, ...
 * RMSD in coord.:     0.9400122 α      energy gain  -0.8109924E+01 Eh

generating ANC from model Hessian ...
Using Lindh-Hessian (1995)
 Shifting diagonal of input Hessian by    9.6141577304512081E-003
 Lowest  eigenvalues of input Hessian
    0.000000    0.000000    0.000000    0.000000    0.000000    0.000000
    0.010000    0.010295    0.010969    0.011471    0.012507    0.012934
    0.014750    0.015190    0.017365    0.019111    0.019701    0.021210
 Highest eigenvalues
    2.004580    2.135718    2.326807    2.539656    2.849996    2.903521


........................................................................
.............................. CYCLE   21 ..............................
........................................................................

 iter      E             dE          RMSdq      gap      omega  full diag
   1    -42.6525556 -0.426526E+02  0.159E-01    0.67       0.0  T
   2    -42.6525538  0.179336E-05  0.932E-02    0.62       1.0  T
   3    -42.6524540  0.998170E-04  0.894E-02    0.69       1.0  T
   4    -42.6526121 -0.158079E-03  0.381E-02    0.63       1.0  T
   5    -42.6526552 -0.430866E-04  0.151E-02    0.65       1.3  T
   6    -42.6526648 -0.964512E-05  0.445E-03    0.65       4.5  T
   7    -42.6526653 -0.437523E-06  0.246E-03    0.65       8.1  T
   8    -42.6526654 -0.116122E-06  0.777E-04    0.65      25.7  T
   9    -42.6526654 -0.139731E-07  0.266E-04    0.65      75.2  T
     SCC iter.                  ...        0 min,  0.013 sec
     gradient                   ...        0 min,  0.011 sec
 * total energy  :   -42.0800771 Eh     change       -0.2067271E-02 Eh
   gradient norm :     0.0438234 Eh/α   predicted     0.0000000E+00 (-100.00%)
   displ. norm   :     0.4726829 α      lambda       -0.1039524E-01
   maximum displ.:     0.3076445 α      in ANC's #10, #7, #11, ...

........................................................................
.............................. CYCLE   22 ..............................
........................................................................

 iter      E             dE          RMSdq      gap      omega  full diag
   1    -42.6652036 -0.426652E+02  0.214E-01    0.72       0.0  T
   2    -42.6652547 -0.511146E-04  0.147E-01    0.68       1.0  T
   3    -42.6653438 -0.891248E-04  0.112E-01    0.72       1.0  T
   4    -42.6655022 -0.158403E-03  0.548E-02    0.71       1.0  T
   5    -42.6655655 -0.633330E-04  0.259E-02    0.68       1.0  T
   6    -42.6655992 -0.336558E-04  0.598E-03    0.70       3.3  T
   7    -42.6655998 -0.639066E-06  0.267E-03    0.70       7.5  T
   8    -42.6655999 -0.512402E-07  0.114E-03    0.70      17.5  T
   9    -42.6655999 -0.344087E-07  0.444E-04    0.70      45.1  T
  10    -42.6655999 -0.126588E-08  0.216E-04    0.70      92.7  T
     SCC iter.                  ...        0 min,  0.014 sec
     gradient                   ...        0 min,  0.011 sec
 * total energy  :   -42.0887516 Eh     change       -0.8674540E-02 Eh
   gradient norm :     0.0314581 Eh/α   predicted    -0.6359012E-02 ( -26.69%)
   displ. norm   :     0.7143761 α      lambda       -0.1135173E-01
   maximum displ.:     0.4875579 α      in ANC's #10, #7, #11, ...

........................................................................
.............................. CYCLE   23 ..............................
........................................................................

 iter      E             dE          RMSdq      gap      omega  full diag
   1    -42.6687903 -0.426688E+02  0.331E-01    0.82       0.0  T
   2    -42.6686251  0.165189E-03  0.241E-01    0.77       1.0  T
   3    -42.6690740 -0.448911E-03  0.185E-01    0.80       1.0  T
   4    -42.6695380 -0.464021E-03  0.872E-02    0.83       1.0  T
   5    -42.6696817 -0.143689E-03  0.514E-02    0.76       1.0  T
   6    -42.6698135 -0.131837E-03  0.938E-03    0.80       2.1  T
   7    -42.6698148 -0.129630E-05  0.485E-03    0.79       4.1  T
   8    -42.6698151 -0.271306E-06  0.181E-03    0.79      11.1  T
   9    -42.6698152 -0.806992E-07  0.646E-04    0.79      31.0  T
  10    -42.6698152 -0.217732E-08  0.280E-04    0.79      71.4  T
     SCC iter.                  ...        0 min,  0.014 sec
     gradient                   ...        0 min,  0.011 sec
 * total energy  :   -42.0967308 Eh     change       -0.7979165E-02 Eh
   gradient norm :     0.0400328 Eh/α   predicted    -0.8572456E-02 (   7.44%)
   displ. norm   :     0.7965966 α      lambda       -0.1198901E-01
   maximum displ.:     0.4930356 α      in ANC's #10, #3, #15, ...

........................................................................
.............................. CYCLE   24 ..............................
........................................................................

 iter      E             dE          RMSdq      gap      omega  full diag
   1    -42.6580779 -0.426581E+02  0.535E-01    0.93       0.0  T
   2    -42.6574293  0.648564E-03  0.364E-01    0.83       1.0  T
   3    -42.6560123  0.141707E-02  0.341E-01    0.90       1.0  T
   4    -42.6587860 -0.277378E-02  0.122E-01    0.89       1.0  T
   5    -42.6592435 -0.457436E-03  0.592E-02    0.86       1.0  T
   6    -42.6594161 -0.172578E-03  0.122E-02    0.90       1.6  T
   7    -42.6594179 -0.183257E-05  0.672E-03    0.90       3.0  T
   8    -42.6594185 -0.591953E-06  0.213E-03    0.90       9.4  T
   9    -42.6594186 -0.105487E-06  0.851E-04    0.90      23.5  T
  10    -42.6594186 -0.674265E-08  0.365E-04    0.90      54.9  T
     SCC iter.                  ...        0 min,  0.014 sec
     gradient                   ...        0 min,  0.011 sec
 * total energy  :   -42.0992189 Eh     change       -0.2488086E-02 Eh
   gradient norm :     0.0573800 Eh/α   predicted    -0.9798416E-02 ( 293.81%)
   displ. norm   :     0.3383969 α      lambda       -0.9402663E-02
   maximum displ.:     0.1790350 α      in ANC's #10, #3, #7, ...

........................................................................
.............................. CYCLE   25 ..............................
........................................................................

 iter      E             dE          RMSdq      gap      omega  full diag
   1    -42.6763058 -0.426763E+02  0.318E-01    0.88       0.0  T
   2    -42.6764878 -0.182037E-03  0.190E-01    0.87       1.0  T
   3    -42.6763770  0.110803E-03  0.128E-01    0.87       1.0  T
   4    -42.6764339 -0.569166E-04  0.682E-02    0.87       1.0  T
   5    -42.6766602 -0.226268E-03  0.146E-02    0.88       1.4  T
   6    -42.6766682 -0.799835E-05  0.579E-03    0.87       3.5  T
   7    -42.6766685 -0.280938E-06  0.326E-03    0.87       6.1  T
   8    -42.6766687 -0.209894E-06  0.159E-03    0.87      12.6  T
   9    -42.6766688 -0.714821E-07  0.470E-04    0.87      42.5  T
  10    -42.6766688 -0.170005E-08  0.198E-04    0.87     100.9  T
     SCC iter.                  ...        0 min,  0.014 sec
     gradient                   ...        0 min,  0.011 sec
 * total energy  :   -42.1049147 Eh     change       -0.5695823E-02 Eh
   gradient norm :     0.0423704 Eh/α   predicted    -0.5239693E-02 (  -8.01%)
   displ. norm   :     0.3519909 α      lambda       -0.5234568E-02
   maximum displ.:     0.2337665 α      in ANC's #10, #19, #7, ...

........................................................................
.............................. CYCLE   26 ..............................
........................................................................

 iter      E             dE          RMSdq      gap      omega  full diag
   1    -42.6759766 -0.426760E+02  0.206E-01    0.83       0.0  T
   2    -42.6759784 -0.185530E-05  0.133E-01    0.82       1.0  T
   3    -42.6752574  0.720988E-03  0.130E-01    0.83       1.0  T
   4    -42.6759825 -0.725027E-03  0.477E-02    0.82       1.0  T
   5    -42.6760715 -0.890589E-04  0.132E-02    0.83       1.5  T
   6    -42.6760757 -0.419442E-05  0.537E-03    0.83       3.7  T
   7    -42.6760759 -0.168649E-06  0.371E-03    0.83       5.4  T
   8    -42.6760764 -0.469518E-06  0.776E-04    0.83      25.8  T
   9    -42.6760764 -0.176857E-07  0.353E-04    0.83      56.7  T
     SCC iter.                  ...        0 min,  0.013 sec
     gradient                   ...        0 min,  0.011 sec
 * total energy  :   -42.1074859 Eh     change       -0.2571179E-02 Eh
   gradient norm :     0.0255107 Eh/α   predicted    -0.2941564E-02 (  14.41%)
   displ. norm   :     0.4362692 α      lambda       -0.4152962E-02
   maximum displ.:     0.2976849 α      in ANC's #10, #11, #15, ...

........................................................................
.............................. CYCLE   27 ..............................
........................................................................

 iter      E             dE          RMSdq      gap      omega  full diag
   1    -42.6749169 -0.426749E+02  0.189E-01    0.80       0.0  T
   2    -42.6747622  0.154748E-03  0.134E-01    0.75       1.0  T
   3    -42.6744579  0.304215E-03  0.129E-01    0.82       1.0  T
   4    -42.6750169 -0.558960E-03  0.492E-02    0.78       1.0  T
   5    -42.6750914 -0.745513E-04  0.199E-02    0.78       1.0  T
   6    -42.6751075 -0.160813E-04  0.591E-03    0.78       3.4  T
   7    -42.6751081 -0.594202E-06  0.253E-03    0.78       7.9  T
   8    -42.6751082 -0.537151E-07  0.773E-04    0.78      25.9  T
   9    -42.6751082 -0.150061E-07  0.355E-04    0.78      56.3  T
     SCC iter.                  ...        0 min,  0.013 sec
     gradient                   ...        0 min,  0.011 sec
 * total energy  :   -42.1095508 Eh     change       -0.2064930E-02 Eh
   gradient norm :     0.0227515 Eh/α   predicted    -0.2471699E-02 (  19.70%)
   displ. norm   :     0.2659193 α      lambda       -0.1664396E-02
   maximum displ.:     0.1944422 α      in ANC's #10, #15, #11, ...

........................................................................
.............................. CYCLE   28 ..............................
........................................................................

 iter      E             dE          RMSdq      gap      omega  full diag
   1    -42.6781756 -0.426782E+02  0.132E-01    0.78       0.0  T
   2    -42.6782409 -0.653172E-04  0.884E-02    0.75       1.0  T
   3    -42.6783061 -0.652357E-04  0.567E-02    0.78       1.0  T
   4    -42.6782582  0.479529E-04  0.515E-02    0.75       1.0  T
   5    -42.6783618 -0.103618E-03  0.136E-02    0.76       1.5  T
   6    -42.6783697 -0.788556E-05  0.498E-03    0.76       4.0  T
   7    -42.6783704 -0.757335E-06  0.217E-03    0.76       9.2  T
   8    -42.6783705 -0.786774E-07  0.789E-04    0.76      25.3  T
   9    -42.6783705 -0.116140E-07  0.292E-04    0.76      68.5  T
     SCC iter.                  ...        0 min,  0.013 sec
     gradient                   ...        0 min,  0.011 sec
 * total energy  :   -42.1104790 Eh     change       -0.9282095E-03 Eh
   gradient norm :     0.0179448 Eh/α   predicted    -0.8910460E-03 (  -4.00%)
   displ. norm   :     0.1572320 α      lambda       -0.1022753E-02
   maximum displ.:     0.0921230 α      in ANC's #12, #30, #7, ...

........................................................................
.............................. CYCLE   29 ..............................
........................................................................

 iter      E             dE          RMSdq      gap      omega  full diag
   1    -42.6823462 -0.426823E+02  0.104E-01    0.73       0.0  T
   2    -42.6823008  0.454024E-04  0.847E-02    0.76       1.0  T
   3    -42.6823349 -0.340907E-04  0.598E-02    0.73       1.0  T
   4    -42.6823547 -0.197619E-04  0.372E-02    0.75       1.0  T
   5    -42.6824167 -0.620476E-04  0.170E-02    0.74       1.2  T
   6    -42.6824295 -0.128465E-04  0.291E-03    0.74       6.9  T
   7    -42.6824297 -0.123206E-06  0.139E-03    0.74      14.4  T
   8    -42.6824297 -0.502695E-08  0.667E-04    0.74      30.0  T
   9    -42.6824297 -0.130034E-07  0.169E-04    0.74     118.5  T
     SCC iter.                  ...        0 min,  0.013 sec
     gradient                   ...        0 min,  0.011 sec
 * total energy  :   -42.1109902 Eh     change       -0.5111315E-03 Eh
   gradient norm :     0.0139653 Eh/α   predicted    -0.5240217E-03 (   2.52%)
   displ. norm   :     0.2240992 α      lambda       -0.6626577E-03
   maximum displ.:     0.1375834 α      in ANC's #10, #12, #15, ...

........................................................................
.............................. CYCLE   30 ..............................
........................................................................

 iter      E             dE          RMSdq      gap      omega  full diag
   1    -42.6780347 -0.426780E+02  0.899E-02    0.73       0.0  T
   2    -42.6780089  0.257519E-04  0.575E-02    0.72       1.0  T
   3    -42.6777905  0.218383E-03  0.746E-02    0.75       1.0  T
   4    -42.6780457 -0.255146E-03  0.135E-02    0.73       1.5  T
   5    -42.6780508 -0.511000E-05  0.598E-03    0.73       3.3  T
   6    -42.6780522 -0.139045E-05  0.183E-03    0.73      10.9  T
   7    -42.6780522 -0.299311E-07  0.858E-04    0.73      23.3  T
   8    -42.6780522 -0.165407E-07  0.276E-04    0.73      72.6  T
     SCC iter.                  ...        0 min,  0.012 sec
     gradient                   ...        0 min,  0.011 sec
 * total energy  :   -42.1114704 Eh     change       -0.4802718E-03 Eh
   gradient norm :     0.0142917 Eh/α   predicted    -0.3479685E-03 ( -27.55%)
   displ. norm   :     0.2605711 α      lambda       -0.7389575E-03
   maximum displ.:     0.1228821 α      in ANC's #12, #10, #15, ...

........................................................................
.............................. CYCLE   31 ..............................
........................................................................

 iter      E             dE          RMSdq      gap      omega  full diag
   1    -42.6742964 -0.426743E+02  0.131E-01    0.73       0.0  T
   2    -42.6742133  0.831396E-04  0.870E-02    0.70       1.0  T
   3    -42.6737765  0.436822E-03  0.111E-01    0.76       1.0  T
   4    -42.6743338 -0.557347E-03  0.193E-02    0.72       1.0  T
   5    -42.6743459 -0.120594E-04  0.611E-03    0.72       3.3  T
   6    -42.6743472 -0.135849E-05  0.273E-03    0.72       7.3  T
   7    -42.6743473 -0.116641E-06  0.129E-03    0.72      15.5  T
   8    -42.6743474 -0.247782E-07  0.485E-04    0.72      41.3  T
   9    -42.6743474 -0.650132E-08  0.168E-04    0.72     118.9  T
     SCC iter.                  ...        0 min,  0.013 sec
     gradient                   ...        0 min,  0.011 sec
 * total energy  :   -42.1119935 Eh     change       -0.5230877E-03 Eh
   gradient norm :     0.0160050 Eh/α   predicted    -0.3945672E-03 ( -24.57%)
   displ. norm   :     0.2691304 α      lambda       -0.6492704E-03
   maximum displ.:     0.1446761 α      in ANC's #12, #14, #10, ...

........................................................................
.............................. CYCLE   32 ..............................
........................................................................

 iter      E             dE          RMSdq      gap      omega  full diag
   1    -42.6705158 -0.426705E+02  0.163E-01    0.73       0.0  T
   2    -42.6704124  0.103480E-03  0.110E-01    0.71       1.0  T
   3    -42.6698254  0.586941E-03  0.127E-01    0.76       1.0  T
   4    -42.6705531 -0.727730E-03  0.335E-02    0.72       1.0  T
   5    -42.6705944 -0.412963E-04  0.625E-03    0.73       3.2  T
   6    -42.6705956 -0.112832E-05  0.245E-03    0.73       8.2  T
   7    -42.6705956 -0.664714E-07  0.172E-03    0.73      11.7  T
   8    -42.6705957 -0.792162E-07  0.469E-04    0.73      42.7  T
   9    -42.6705957 -0.571375E-08  0.180E-04    0.73     110.9  T
     SCC iter.                  ...        0 min,  0.013 sec
     gradient                   ...        0 min,  0.011 sec
 * total energy  :   -42.1124777 Eh     change       -0.4842278E-03 Eh
   gradient norm :     0.0161089 Eh/α   predicted    -0.3481491E-03 ( -28.10%)
   displ. norm   :     0.2781595 α      lambda       -0.8618890E-03
   maximum displ.:     0.1234088 α      in ANC's #14, #12, #8, ...

........................................................................
.............................. CYCLE   33 ..............................
........................................................................

 iter      E             dE          RMSdq      gap      omega  full diag
   1    -42.6683204 -0.426683E+02  0.229E-01    0.77       0.0  T
   2    -42.6682297  0.907266E-04  0.145E-01    0.74       1.0  T
   3    -42.6672286  0.100107E-02  0.164E-01    0.81       1.0  T
   4    -42.6683231 -0.109452E-02  0.505E-02    0.74       1.0  T
   5    -42.6684347 -0.111522E-03  0.104E-02    0.76       1.9  T
   6    -42.6684386 -0.392936E-05  0.336E-03    0.76       6.0  T
   7    -42.6684388 -0.256472E-06  0.222E-03    0.76       9.0  T
   8    -42.6684389 -0.881269E-07  0.668E-04    0.76      29.9  T
   9    -42.6684389 -0.652788E-08  0.214E-04    0.76      93.4  T
     SCC iter.                  ...        0 min,  0.013 sec
     gradient                   ...        0 min,  0.011 sec
 * total energy  :   -42.1131099 Eh     change       -0.6321827E-03 Eh
   gradient norm :     0.0184358 Eh/α   predicted    -0.4642901E-03 ( -26.56%)
   displ. norm   :     0.3277609 α      lambda       -0.1112291E-02
   maximum displ.:     0.1767125 α      in ANC's #14, #15, #8, ...

........................................................................
.............................. CYCLE   34 ..............................
........................................................................

 iter      E             dE          RMSdq      gap      omega  full diag
   1    -42.6632522 -0.426633E+02  0.335E-01    0.84       0.0  T
   2    -42.6632377  0.145356E-04  0.201E-01    0.83       1.0  T
   3    -42.6620978  0.113989E-02  0.180E-01    0.88       1.0  T
   4    -42.6632015 -0.110370E-02  0.620E-02    0.81       1.0  T
   5    -42.6633861 -0.184589E-03  0.114E-02    0.84       1.8  T
   6    -42.6633908 -0.468334E-05  0.487E-03    0.83       4.1  T
   7    -42.6633914 -0.611721E-06  0.343E-03    0.83       5.8  T
   8    -42.6633916 -0.249935E-06  0.711E-04    0.83      28.1  T
   9    -42.6633916 -0.433131E-08  0.313E-04    0.83      63.9  T
     SCC iter.                  ...        0 min,  0.013 sec
     gradient                   ...        0 min,  0.011 sec
 * total energy  :   -42.1140696 Eh     change       -0.9596959E-03 Eh
   gradient norm :     0.0299995 Eh/α   predicted    -0.6158909E-03 ( -35.82%)
   displ. norm   :     0.6048025 α      lambda       -0.3492302E-02
   maximum displ.:     0.3928244 α      in ANC's #14, #51, #15, ...

........................................................................
.............................. CYCLE   35 ..............................
........................................................................

 iter      E             dE          RMSdq      gap      omega  full diag
   1    -42.6517953 -0.426518E+02  0.926E-01    1.10       0.0  T
   2    -42.6529067 -0.111131E-02  0.520E-01    1.05       1.0  T
   3    -42.6505755  0.233111E-02  0.367E-01    0.99       1.0  T
   4    -42.6514089 -0.833342E-03  0.228E-01    1.09       1.0  T
   5    -42.6538164 -0.240751E-02  0.285E-02    1.07       1.0  T
   6    -42.6538380 -0.216130E-04  0.142E-02    1.08       1.4  T
   7    -42.6538377  0.287133E-06  0.929E-03    1.08       2.2  T
   8    -42.6538405 -0.278108E-05  0.390E-03    1.08       5.1  T
   9    -42.6538411 -0.553659E-06  0.116E-03    1.08      17.3  T
  10    -42.6538411  0.186931E-08  0.613E-04    1.08      32.6  T
  11    -42.6538411 -0.126623E-07  0.182E-04    1.08     109.8  T
     SCC iter.                  ...        0 min,  0.016 sec
     gradient                   ...        0 min,  0.012 sec
 * total energy  :   -42.1179596 Eh     change       -0.3889986E-02 Eh
   gradient norm :     0.0757977 Eh/α   predicted    -0.2384860E-02 ( -38.69%)
   displ. norm   :     0.5745984 α      lambda       -0.6960526E-02
   maximum displ.:     0.4029807 α      in ANC's #14, #15, #20, ...

........................................................................
.............................. CYCLE   36 ..............................
........................................................................

 iter      E             dE          RMSdq      gap      omega  full diag
   1    -42.6318023 -0.426318E+02  0.913E-01    1.06       0.0  T
   2    -42.6359470 -0.414475E-02  0.504E-01    0.99       1.0  T
   3    -42.6362462 -0.299166E-03  0.271E-01    0.98       1.0  T
   4    -42.6352687  0.977475E-03  0.189E-01    1.04       1.0  T
   5    -42.6370200 -0.175132E-02  0.261E-02    0.99       1.0  T
   6    -42.6370285 -0.850696E-05  0.125E-02    1.00       1.6  T
   7    -42.6370264  0.213224E-05  0.112E-02    1.00       1.8  T
   8    -42.6370293 -0.293172E-05  0.435E-03    1.00       4.6  T
   9    -42.6370301 -0.728896E-06  0.158E-03    1.00      12.6  T
  10    -42.6370301 -0.815859E-08  0.717E-04    1.00      27.9  T
  11    -42.6370301 -0.130088E-07  0.236E-04    1.00      84.9  T
     SCC iter.                  ...        0 min,  0.016 sec
     gradient                   ...        0 min,  0.011 sec
 * total energy  :   -42.1254536 Eh     change       -0.7493950E-02 Eh
   gradient norm :     0.1138904 Eh/α   predicted    -0.4629313E-02 ( -38.23%)
   displ. norm   :     0.7271720 α      lambda       -0.2216485E-01
   maximum displ.:     0.4610960 α      in ANC's #14, #51, #18, ...

........................................................................
.............................. CYCLE   37 ..............................
........................................................................

 iter      E             dE          RMSdq      gap      omega  full diag
   1    -42.5918369 -0.425918E+02  0.113E+00    0.79       0.0  T
   2    -42.6004791 -0.864214E-02  0.788E-01    0.81       1.0  T
   3    -42.6058563 -0.537720E-02  0.513E-01    0.81       1.0  T
   4    -42.6040187  0.183758E-02  0.414E-01    0.80       1.0  T
   5    -42.6091218 -0.510308E-02  0.165E-01    0.81       1.0  T
   6    -42.6100408 -0.919024E-03  0.447E-02    0.81       1.0  T
   7    -42.6101259 -0.850900E-04  0.182E-02    0.80       1.1  T
   8    -42.6101329 -0.704894E-05  0.104E-02    0.81       1.9  T
   9    -42.6101340 -0.104927E-05  0.354E-03    0.81       5.7  T
  10    -42.6101342 -0.199719E-06  0.142E-03    0.81      14.1  T
  11    -42.6101342 -0.206535E-07  0.524E-04    0.81      38.2  T
  12    -42.6101342 -0.344261E-08  0.193E-04    0.81     103.7  T
     SCC iter.                  ...        0 min,  0.017 sec
     gradient                   ...        0 min,  0.011 sec
 * total energy  :   -42.0716659 Eh     change        0.5378768E-01 Eh
   gradient norm :     0.4477941 Eh/α   predicted    -0.1694252E-01 (-131.50%)
   displ. norm   :     0.4924470 α      lambda       -0.1791373E+00
   maximum displ.:     0.3259885 α      in ANC's #14, #51, #20, ...

........................................................................
.............................. CYCLE   38 ..............................
........................................................................

 iter      E             dE          RMSdq      gap      omega  full diag
   1    -42.6187548 -0.426188E+02  0.856E-01    1.02       0.0  T
   2    -42.6253371 -0.658224E-02  0.555E-01    1.03       1.0  T
   3    -42.6279001 -0.256309E-02  0.302E-01    1.08       1.0  T
   4    -42.6261072  0.179299E-02  0.272E-01    0.99       1.0  T
   5    -42.6289543 -0.284719E-02  0.365E-02    1.05       1.0  T
   6    -42.6289679 -0.135775E-04  0.248E-02    1.05       1.0  T
   7    -42.6289836 -0.157021E-04  0.102E-02    1.05       2.0  T
   8    -42.6289844 -0.800174E-06  0.568E-03    1.05       3.5  T
   9    -42.6289851 -0.668397E-06  0.157E-03    1.05      12.7  T
  10    -42.6289851 -0.175187E-07  0.897E-04    1.05      22.3  T
  11    -42.6289851 -0.891522E-08  0.304E-04    1.05      65.7  T
     SCC iter.                  ...        0 min,  0.016 sec
     gradient                   ...        0 min,  0.011 sec
 * total energy  :   -42.1346003 Eh     change       -0.6293439E-01 Eh
   gradient norm :     0.0558097 Eh/α   predicted    -0.1112898E+00 (  76.83%)
   displ. norm   :     0.4124338 α      lambda       -0.1177206E-01
   maximum displ.:     0.2060225 α      in ANC's #18, #10, #8, ...

........................................................................
.............................. CYCLE   39 ..............................
........................................................................

 iter      E             dE          RMSdq      gap      omega  full diag
   1    -42.6574028 -0.426574E+02  0.408E-01    1.02       0.0  T
   2    -42.6568218  0.581017E-03  0.292E-01    1.02       1.0  T
   3    -42.6555144  0.130737E-02  0.277E-01    1.01       1.0  T
   4    -42.6578837 -0.236934E-02  0.768E-02    1.01       1.0  T
   5    -42.6580492 -0.165506E-03  0.235E-02    1.01       1.0  T
   6    -42.6580628 -0.136093E-04  0.120E-02    1.01       1.7  T
   7    -42.6580648 -0.194277E-05  0.673E-03    1.01       3.0  T
   8    -42.6580660 -0.122899E-05  0.175E-03    1.01      11.5  T
   9    -42.6580661 -0.418888E-07  0.847E-04    1.01      23.6  T
  10    -42.6580661 -0.870900E-08  0.275E-04    1.01      72.8  T
     SCC iter.                  ...        0 min,  0.014 sec
     gradient                   ...        0 min,  0.011 sec
 * total energy  :   -42.1328865 Eh     change        0.1713793E-02 Eh
   gradient norm :     0.0913576 Eh/α   predicted    -0.6887228E-02 (-501.87%)
   displ. norm   :     0.4689509 α      lambda       -0.1938860E-01
   maximum displ.:     0.1993900 α      in ANC's #14, #35, #26, ...

........................................................................
.............................. CYCLE   40 ..............................
........................................................................

 iter      E             dE          RMSdq      gap      omega  full diag
   1    -42.6345687 -0.426346E+02  0.442E-01    1.05       0.0  T
   2    -42.6331846  0.138404E-02  0.407E-01    1.02       1.0  T
   3    -42.6361620 -0.297736E-02  0.222E-01    1.06       1.0  T
   4    -42.6357178  0.444196E-03  0.177E-01    1.04       1.0  T
   5    -42.6370092 -0.129142E-02  0.317E-02    1.05       1.0  T
   6    -42.6370367 -0.274633E-04  0.138E-02    1.05       1.5  T
   7    -42.6370404 -0.373369E-05  0.784E-03    1.05       2.6  T
   8    -42.6370412 -0.802986E-06  0.265E-03    1.05       7.5  T
   9    -42.6370414 -0.190975E-06  0.793E-04    1.05      25.2  T
  10    -42.6370414 -0.382819E-09  0.375E-04    1.05      53.3  T
     SCC iter.                  ...        0 min,  0.014 sec
     gradient                   ...        0 min,  0.011 sec
 * total energy  :   -42.1373027 Eh     change       -0.4416252E-02 Eh
   gradient norm :     0.0736302 Eh/α   predicted    -0.1182612E-01 ( 167.79%)
   displ. norm   :     0.3243707 α      lambda       -0.8265760E-02
   maximum displ.:     0.1435553 α      in ANC's #15, #14, #26, ...

........................................................................
.............................. CYCLE   41 ..............................
........................................................................

 iter      E             dE          RMSdq      gap      omega  full diag
   1    -42.6357612 -0.426358E+02  0.286E-01    1.07       0.0  T
   2    -42.6359013 -0.140124E-03  0.197E-01    1.07       1.0  T
   3    -42.6359107 -0.940846E-05  0.135E-01    1.06       1.0  T
   4    -42.6358849  0.257860E-04  0.103E-01    1.08       1.0  T
   5    -42.6363274 -0.442417E-03  0.174E-02    1.07       1.2  T
   6    -42.6363369 -0.958407E-05  0.737E-03    1.07       2.7  T
   7    -42.6363383 -0.134931E-05  0.372E-03    1.07       5.4  T
   8    -42.6363385 -0.182725E-06  0.121E-03    1.07      16.5  T
   9    -42.6363385 -0.251711E-07  0.462E-04    1.07      43.3  T
  10    -42.6363385 -0.114650E-08  0.162E-04    1.07     123.4  T
     SCC iter.                  ...        0 min,  0.014 sec
     gradient                   ...        0 min,  0.011 sec
 * total energy  :   -42.1399365 Eh     change       -0.2633817E-02 Eh
   gradient norm :     0.0280259 Eh/α   predicted    -0.4567786E-02 (  73.43%)
   displ. norm   :     0.1785846 α      lambda       -0.2387510E-02
   maximum displ.:     0.0853160 α      in ANC's #6, #8, #15, ...

........................................................................
.............................. CYCLE   42 ..............................
........................................................................

 iter      E             dE          RMSdq      gap      omega  full diag
   1    -42.6435274 -0.426435E+02  0.167E-01    1.06       0.0  T
   2    -42.6434988  0.286022E-04  0.103E-01    1.07       1.0  T
   3    -42.6429450  0.553871E-03  0.125E-01    1.05       1.0  T
   4    -42.6435551 -0.610130E-03  0.162E-02    1.06       1.2  T
   5    -42.6435621 -0.696006E-05  0.785E-03    1.06       2.5  T
   6    -42.6435638 -0.176620E-05  0.331E-03    1.06       6.1  T
   7    -42.6435639 -0.629751E-07  0.123E-03    1.06      16.2  T
   8    -42.6435639 -0.582368E-07  0.452E-04    1.06      44.2  T
   9    -42.6435639 -0.308354E-08  0.248E-04    1.06      80.7  T
     SCC iter.                  ...        0 min,  0.013 sec
     gradient                   ...        0 min,  0.011 sec
 * total energy  :   -42.1409287 Eh     change       -0.9921616E-03 Eh
   gradient norm :     0.0144944 Eh/α   predicted    -0.1231829E-02 (  24.16%)
   displ. norm   :     0.1576518 α      lambda       -0.7959143E-03
   maximum displ.:     0.0789306 α      in ANC's #7, #12, #10, ...
 * RMSD in coord.:     0.8047775 α      energy gain  -0.6291888E-01 Eh

generating ANC from model Hessian ...
Using Lindh-Hessian (1995)
 Shifting diagonal of input Hessian by    8.7133205308171958E-003
 Lowest  eigenvalues of input Hessian
    0.000000    0.000000    0.000000    0.000000    0.000000    0.000000
    0.010000    0.010625    0.013221    0.014263    0.016645    0.018210
    0.019875    0.021171    0.025084    0.025376    0.032271    0.039583
 Highest eigenvalues
    1.933836    2.090899    2.251774    2.309889    2.431625    3.143772


........................................................................
.............................. CYCLE   43 ..............................
........................................................................

 iter      E             dE          RMSdq      gap      omega  full diag
   1    -42.6425307 -0.426425E+02  0.119E-01    1.08       0.0  T
   2    -42.6425383 -0.763548E-05  0.709E-02    1.07       1.0  T
   3    -42.6424815  0.567990E-04  0.602E-02    1.08       1.0  T
   4    -42.6425805 -0.989817E-04  0.175E-02    1.07       1.1  T
   5    -42.6425911 -0.106490E-04  0.640E-03    1.07       3.1  T
   6    -42.6425923 -0.118197E-05  0.341E-03    1.07       5.9  T
   7    -42.6425926 -0.314174E-06  0.129E-03    1.07      15.5  T
   8    -42.6425927 -0.192136E-07  0.488E-04    1.07      41.0  T
   9    -42.6425927 -0.394449E-08  0.184E-04    1.07     108.7  T
     SCC iter.                  ...        0 min,  0.013 sec
     gradient                   ...        0 min,  0.011 sec
 * total energy  :   -42.1411707 Eh     change       -0.2420163E-03 Eh
   gradient norm :     0.0173529 Eh/α   predicted     0.0000000E+00 (-100.00%)
   displ. norm   :     0.0638395 α      lambda       -0.4164501E-03
   maximum displ.:     0.0389730 α      in ANC's #7, #5, #3, ...

........................................................................
.............................. CYCLE   44 ..............................
........................................................................

 iter      E             dE          RMSdq      gap      omega  full diag
   1    -42.6409005 -0.426409E+02  0.400E-02    1.09       0.0  T
   2    -42.6409034 -0.285489E-05  0.239E-02    1.08       1.0  T
   3    -42.6409000  0.340478E-05  0.146E-02    1.09       1.4  T
   4    -42.6409033 -0.331072E-05  0.685E-03    1.08       2.9  T
   5    -42.6409049 -0.165724E-05  0.291E-03    1.08       6.9  T
   6    -42.6409052 -0.269627E-06  0.878E-04    1.08      22.8  T
   7    -42.6409052  0.186350E-08  0.455E-04    1.08      43.9  T
     SCC iter.                  ...        0 min,  0.010 sec
     gradient                   ...        0 min,  0.011 sec
 * total energy  :   -42.1414477 Eh     change       -0.2769374E-03 Eh
   gradient norm :     0.0060551 Eh/α   predicted    -0.2090741E-03 ( -24.50%)
   displ. norm   :     0.0725476 α      lambda       -0.1368978E-03
   maximum displ.:     0.0488424 α      in ANC's #7, #5, #3, ...

........................................................................
.............................. CYCLE   45 ..............................
........................................................................

 iter      E             dE          RMSdq      gap      omega  full diag
   1    -42.6394874 -0.426395E+02  0.393E-02    1.11       0.0  T
   2    -42.6394874  0.246242E-08  0.219E-02    1.10       1.0  T
   3    -42.6394755  0.119192E-04  0.209E-02    1.11       1.0  T
   4    -42.6394904 -0.148769E-04  0.327E-03    1.10       6.1  T
   5    -42.6394906 -0.209314E-06  0.203E-03    1.10       9.8  T
   6    -42.6394907 -0.124325E-06  0.907E-04    1.10      22.1  T
   7    -42.6394907 -0.121650E-07  0.408E-04    1.10      49.0  T
     SCC iter.                  ...        0 min,  0.010 sec
     gradient                   ...        0 min,  0.011 sec
 * total energy  :   -42.1415349 Eh     change       -0.8725564E-04 Eh
   gradient norm :     0.0037535 Eh/α   predicted    -0.6883556E-04 ( -21.11%)
   displ. norm   :     0.0693082 α      lambda       -0.6562073E-04
   maximum displ.:     0.0472990 α      in ANC's #7, #5, #10, ...

........................................................................
.............................. CYCLE   46 ..............................
........................................................................

 iter      E             dE          RMSdq      gap      omega  full diag
   1    -42.6385808 -0.426386E+02  0.375E-02    1.13       0.0  T
   2    -42.6385792  0.154651E-05  0.209E-02    1.12       1.0  T
   3    -42.6385699  0.927582E-05  0.220E-02    1.13       1.0  T
   4    -42.6385859 -0.159873E-04  0.284E-03    1.13       7.0  T
   5    -42.6385860 -0.758558E-07  0.148E-03    1.13      13.6  T
   6    -42.6385860 -0.360300E-07  0.971E-04    1.13      20.6  T
   7    -42.6385861 -0.237591E-07  0.236E-04    1.13      84.7  T
     SCC iter.                  ...        0 min,  0.010 sec
     gradient                   ...        0 min,  0.011 sec
 * total energy  :   -42.1415856 Eh     change       -0.5069258E-04 Eh
   gradient norm :     0.0046579 Eh/α   predicted    -0.3296836E-04 ( -34.96%)
   displ. norm   :     0.1358512 α      lambda       -0.1093225E-03
   maximum displ.:     0.0900873 α      in ANC's #7, #5, #10, ...

........................................................................
.............................. CYCLE   47 ..............................
........................................................................

 iter      E             dE          RMSdq      gap      omega  full diag
   1    -42.6371415 -0.426371E+02  0.826E-02    1.19       0.0  T
   2    -42.6371317  0.974060E-05  0.457E-02    1.17       1.0  T
   3    -42.6370960  0.357386E-04  0.485E-02    1.19       1.0  T
   4    -42.6371712 -0.752534E-04  0.611E-03    1.18       3.3  T
   5    -42.6371717 -0.444120E-06  0.219E-03    1.18       9.1  T
   6    -42.6371716  0.813524E-07  0.203E-03    1.18       9.8  T
   7    -42.6371717 -0.124202E-06  0.604E-04    1.18      33.1  T
   8    -42.6371717 -0.119985E-07  0.254E-04    1.18      78.7  T
     SCC iter.                  ...        0 min,  0.012 sec
     gradient                   ...        0 min,  0.011 sec
 * total energy  :   -42.1416654 Eh     change       -0.7975390E-04 Eh
   gradient norm :     0.0054634 Eh/α   predicted    -0.5567172E-04 ( -30.20%)
   displ. norm   :     0.1572266 α      lambda       -0.1098667E-03
   maximum displ.:     0.0995246 α      in ANC's #7, #10, #5, ...

........................................................................
.............................. CYCLE   48 ..............................
........................................................................

 iter      E             dE          RMSdq      gap      omega  full diag
   1    -42.6356665 -0.426357E+02  0.112E-01    1.26       0.0  T
   2    -42.6356443  0.221733E-04  0.610E-02    1.24       1.0  T
   3    -42.6355966  0.477699E-04  0.658E-02    1.27       1.0  T
   4    -42.6357293 -0.132773E-03  0.870E-03    1.25       2.3  T
   5    -42.6357302 -0.904443E-06  0.293E-03    1.25       6.8  T
   6    -42.6357302  0.416543E-07  0.193E-03    1.25      10.3  T
   7    -42.6357303 -0.828750E-07  0.913E-04    1.25      21.9  T
   8    -42.6357303 -0.267883E-07  0.392E-04    1.25      51.1  T
     SCC iter.                  ...        0 min,  0.012 sec
     gradient                   ...        0 min,  0.012 sec
 * total energy  :   -42.1417543 Eh     change       -0.8894933E-04 Eh
   gradient norm :     0.0057868 Eh/α   predicted    -0.5629264E-04 ( -36.71%)
   displ. norm   :     0.3568138 α      lambda       -0.2471267E-03
   maximum displ.:     0.2206201 α      in ANC's #7, #10, #5, ...

........................................................................
.............................. CYCLE   49 ..............................
........................................................................

 iter      E             dE          RMSdq      gap      omega  full diag
   1    -42.6317218 -0.426317E+02  0.304E-01    1.48       0.0  T
   2    -42.6315127  0.209173E-03  0.160E-01    1.39       1.0  T
   3    -42.6313341  0.178549E-03  0.179E-01    1.48       1.0  T
   4    -42.6322461 -0.911964E-03  0.255E-02    1.44       1.0  T
   5    -42.6322537 -0.759533E-05  0.849E-03    1.44       2.4  T
   6    -42.6322537 -0.307344E-07  0.407E-03    1.44       4.9  T
   7    -42.6322540 -0.293644E-06  0.228E-03    1.44       8.8  T
   8    -42.6322542 -0.145889E-06  0.925E-04    1.44      21.6  T
   9    -42.6322542 -0.174797E-07  0.263E-04    1.44      75.9  T
     SCC iter.                  ...        0 min,  0.013 sec
     gradient                   ...        0 min,  0.011 sec
 * total energy  :   -42.1420300 Eh     change       -0.2756832E-03 Eh
   gradient norm :     0.0129031 Eh/α   predicted    -0.1394042E-03 ( -49.43%)
   displ. norm   :     0.3375867 α      lambda       -0.4309776E-03
   maximum displ.:     0.2095913 α      in ANC's #7, #10, #5, ...

........................................................................
.............................. CYCLE   50 ..............................
........................................................................

 iter      E             dE          RMSdq      gap      omega  full diag
   1    -42.6286654 -0.426287E+02  0.337E-01    1.69       0.0  T
   2    -42.6283227  0.342724E-03  0.170E-01    1.56       1.0  T
   3    -42.6282529  0.698299E-04  0.204E-01    1.69       1.0  T
   4    -42.6293628 -0.110990E-02  0.291E-02    1.63       1.0  T
   5    -42.6293731 -0.103284E-04  0.109E-02    1.63       1.8  T
   6    -42.6293722  0.855425E-06  0.798E-03    1.63       2.5  T
   7    -42.6293742 -0.191962E-05  0.181E-03    1.63      11.1  T
   8    -42.6293742 -0.593931E-07  0.775E-04    1.63      25.8  T
   9    -42.6293742 -0.909413E-08  0.228E-04    1.63      87.8  T
     SCC iter.                  ...        0 min,  0.013 sec
[...]
N           -1.72169832925053        1.25613990462134       -0.00178752106176
C           -2.86912406069219        2.13514432159549       -0.00076100809736
C           -1.95326807705538       -0.09506063741401        0.00981565945241
O           -3.07284760344427       -0.54765138160890        0.02410880134993
N           -0.83585858868385       -0.95508335963245        0.00683160612391
C           -1.15356371681747       -2.37271695261591        0.01700061799766
H            4.34379024619904        0.81915750966294        1.02814082290915
H            5.07737326858038        0.70905933406994       -0.68489831755433
H            1.65865157136047        1.28670666754443       -0.06375239225028
H            3.12933842011496       -2.61865917051473       -0.04824428871262
H           -2.50558573609014        3.16186777208128        0.00816554547491
H           -3.47745207292532        1.95687970418526       -0.88948289420730
H           -3.48593770569946        1.94091978747359        0.87829959018624
H           -0.77761608426069       -2.86147324247783        0.91857281903280
H           -0.79030784126131       -2.87018518722789       -0.88510648944148
H           -2.24272386790145       -2.45272647793770        0.02540045131670
H            1.01499340584956       -2.40054661231284        0.00816853592952

 Bond Distances (Angstroems)
 ---------------------------
C1-N2=1.2669         C1-H15=1.0860        C1-H16=1.0821        N2-C1=1.2669         N2-C3=1.2778         C3-N2=1.2778         
C3-N4=1.3702         C3-H18=1.0876        N4-C3=1.3702         N4-C5=1.3898         N4-H25=1.0150        C5-N4=1.3898         
C5-C6=1.3694         C5-N13=1.3800        C6-C5=1.3694         C6-C7=1.4463         C6-H17=1.0762        C7-C6=1.4463         
C7-O8=1.2142         C7-N9=1.4076         O8-C7=1.2142         N9-C7=1.4076         N9-C10=1.4454        N9-C11=1.3709        
C10-N9=1.4454        C10-H19=1.0892       C10-H20=1.0916       C10-H21=1.0913       C11-N9=1.3709        C11-O12=1.2077       
C11-N13=1.4101       O12-C11=1.2077       N13-C5=1.3800        N13-C11=1.4101       N13-C14=1.4528       C14-N13=1.4528       
C14-H22=1.0923       C14-H23=1.0923       C14-H24=1.0921       H15-C1=1.0860        H16-C1=1.0821        H17-C6=1.0762        
H18-C3=1.0876        H19-C10=1.0892       H20-C10=1.0916       H21-C10=1.0913       H22-C14=1.0923       H23-C14=1.0923       
H24-C14=1.0921       H25-N4=1.0150        
 C  H  Rav=1.0881 sigma=0.0051  Rmin=1.0762  Rmax=1.0923    10
 C  C  Rav=1.4079 sigma=0.0385  Rmin=1.3694  Rmax=1.4463     2
 N  H  Rav=1.0150 sigma=0.0000  Rmin=1.0150  Rmax=1.0150     1
 N  C  Rav=1.3772 sigma=0.0589  Rmin=1.2669  Rmax=1.4528    10
 O  C  Rav=1.2109 sigma=0.0032  Rmin=1.2077  Rmax=1.2142     2

 selected bond angles (degree)
 --------------------
H15-C1-N2=122.21               H16-C1-N2=118.54               H16-C1-H15=118.86              C3-N2-C1=154.87                
N4-C3-N2=134.08                H18-C3-N2=114.08               H18-C3-N4=111.54               C5-N4-C3=138.85                
H25-N4-C3=110.53               H25-N4-C5=110.59               C6-C5-N4=126.69                N13-C5-N4=114.96               
N13-C5-C6=118.36               C7-C6-C5=122.05                H17-C6-C5=121.85               H17-C6-C7=116.10               
O8-C7-C6=123.41                N9-C7-C6=116.24                N9-C7-O8=120.35                C10-N9-C7=119.50               
C11-N9-C7=122.76               C11-N9-C10=117.73              H19-C10-N9=107.96              H20-C10-N9=110.03              
H20-C10-H19=110.28             H21-C10-N9=109.94              H21-C10-H19=110.48             H21-C10-H20=108.16             

 selected dihedral angles (degree)
 ---------------------------------
C3-N2-C1-H15= 28.15           C3-N2-C1-H16=200.94           N4-C3-N2-C1= 48.56            H18-C3-N2-C1=221.57           
C5-N4-C3-N2=355.25            C5-N4-C3-H18=182.10           H25-N4-C3-N2=172.81           H25-N4-C3-H18=359.66          
C6-C5-N4-C3=357.78            C6-C5-N4-H25=180.22           N13-C5-N4-C3=178.16           N13-C5-N4-H25=  0.61          
C7-C6-C5-N4=180.67            C7-C6-C5-N13=  0.27           H17-C6-C5-N4=  0.87           H17-C6-C5-N13=180.48          
O8-C7-C6-C5=179.94            O8-C7-C6-H17=359.75           N9-C7-C6-C5=  0.09            N9-C7-C6-H17=179.90           
C10-N9-C7-C6=180.27           C10-N9-C7-O8=  0.41           C11-N9-C7-C6=359.35           C11-N9-C7-O8=179.49           
H19-C10-N9-C7=358.08          H19-C10-N9-C11=178.95         H20-C10-N9-C7=118.47          H20-C10-N9-C11=299.34         
H21-C10-N9-C7=237.50          H21-C10-N9-C11= 58.37         
           -------------------------------------------------
          |                Final Singlepoint                |
           -------------------------------------------------

          ...................................................
          :                      SETUP                      :
          :.................................................:
          :  # basis functions                  67          :
          :  # atomic orbitals                  67          :
          :  # shells                           39          :
          :  # electrons                        74          :
          :  max. iterations                   250          :
          :  Hamiltonian                  GFN2-xTB          :
          :  restarted?                      false          :
          :  GBSA solvation                  false          :
          :  PC potential                    false          :
          :  electronic temp.         7500.0000000     K    :
          :  accuracy                    1.0000000          :
          :  -> integral cutoff          0.2500000E+02      :
          :  -> integral neglect         0.1000000E-07      :
          :  -> SCF convergence          0.1000000E-05 Eh   :
          :  -> wf. convergence          0.1000000E-03 e    :
          :  Broyden damping             0.4000000          :
          ...................................................

 iter      E             dE          RMSdq      gap      omega  full diag
   1    -42.7208543 -0.427209E+02  0.481E-05    2.33       0.0  T
   2    -42.7208543 -0.116316E-10  0.324E-05    2.33     618.2  T
   3    -42.7208543 -0.140901E-10  0.171E-05    2.33    1169.5  T

   *** convergence criteria satisfied after 3 iterations ***

         #    Occupation            Energy/Eh            Energy/eV
      -------------------------------------------------------------
         1        2.0000           -0.8762735             -23.8446
       ...           ...                  ...                  ...
        31        1.9904           -0.6210184             -16.8988
        32        1.9794           -0.6027823             -16.4025
        33        1.9549           -0.5839052             -15.8889
        34        1.9470           -0.5800091             -15.7829
        35        1.8900           -0.5619290             -15.2909
        36        1.8716           -0.5580341             -15.1849
        37        1.8237           -0.5498882             -14.9632 (HOMO)
        38        0.4375           -0.4641581             -12.6304 (LUMO)
        39        0.1033           -0.4252781             -11.5724
        40        0.0181           -0.3828284             -10.4173
        41        0.0128           -0.3745481             -10.1920
        42        0.0003           -0.2864381              -7.7944
       ...           ...                  ...                  ...
        67                          0.6312169              17.1763
      -------------------------------------------------------------
                  HL-Gap            0.0857301 Eh            2.3328 eV
             Fermi-level           -0.4943953 Eh          -13.4532 eV

 SCC (total)                   0 d,  0 h,  0 min,  0.021 sec
 SCC setup                      ...        0 min,  0.000 sec (  0.856%)
 Dispersion                     ...        0 min,  0.000 sec (  0.937%)
 classical contributions        ...        0 min,  0.000 sec (  0.324%)
 integral evaluation            ...        0 min,  0.004 sec ( 20.624%)
 iterations                     ...        0 min,  0.005 sec ( 23.449%)
 molecular gradient             ...        0 min,  0.011 sec ( 53.206%)
 printout                       ...        0 min,  0.000 sec (  0.548%)

         :::::::::::::::::::::::::::::::::::::::::::::::::::::
         ::                     SUMMARY                     ::
         :::::::::::::::::::::::::::::::::::::::::::::::::::::
         :: total energy             -42.183101010695 Eh    ::
         :: gradient norm              0.003980323646 Eh/a0 ::
         :: HOMO-LUMO gap              2.332835352350 eV    ::
         ::.................................................::
         :: SCC energy               -42.720854337422 Eh    ::
         :: -> isotropic ES            0.138915976064 Eh    ::
         :: -> anisotropic ES         -0.008997283566 Eh    ::
         :: -> anisotropic XC          0.017896267239 Eh    ::
         :: -> dispersion             -0.021140553241 Eh    ::
         :: repulsion energy           0.537599649343 Eh    ::
         :: add. restraining           0.000106550306 Eh    ::
         :: total charge               1.000000000000 e     ::
         :::::::::::::::::::::::::::::::::::::::::::::::::::::

           -------------------------------------------------
          |                Property Printout                |
           -------------------------------------------------

    * Orbital Energies and Occupations

         #    Occupation            Energy/Eh            Energy/eV
      -------------------------------------------------------------
         1        2.0000           -0.8762735             -23.8446
       ...           ...                  ...                  ...
        25        1.9984           -0.6639499             -18.0670
        26        1.9978           -0.6559917             -17.8504
        27        1.9966           -0.6456781             -17.5698
        28        1.9961           -0.6422674             -17.4770
        29        1.9946           -0.6346392             -17.2694
        30        1.9921           -0.6257697             -17.0281
        31        1.9904           -0.6210184             -16.8988
        32        1.9794           -0.6027823             -16.4025
        33        1.9549           -0.5839052             -15.8889
        34        1.9470           -0.5800091             -15.7829
        35        1.8900           -0.5619290             -15.2909
        36        1.8716           -0.5580341             -15.1849
        37        1.8237           -0.5498882             -14.9632 (HOMO)
        38        0.4375           -0.4641581             -12.6304 (LUMO)
        39        0.1033           -0.4252781             -11.5724
        40        0.0181           -0.3828284             -10.4173
        41        0.0128           -0.3745481             -10.1920
        42        0.0003           -0.2864381              -7.7944
        43        0.0000           -0.2061051              -5.6084
        44        0.0000           -0.1709099              -4.6507
        45        0.0000           -0.1379628              -3.7542
        46        0.0000           -0.1076963              -2.9306
        47                         -0.0771798              -2.1002
        48                         -0.0571458              -1.5550
       ...                                ...                  ...
        67                          0.6312169              17.1763
      -------------------------------------------------------------
                  HL-Gap            0.0857301 Eh            2.3328 eV
             Fermi-level           -0.4943953 Eh          -13.4532 eV

     #   Z          covCN         q      C6AA      α(0)
     1   6 C        2.766     0.007    27.850     8.643
     2   7 N        1.822    -0.024    22.417     7.016
     3   6 C        2.751     0.095    25.862     8.327
     4   7 N        2.689    -0.102    23.252     7.162
     5   6 C        2.821     0.127    25.204     8.226
     6   6 C        2.905    -0.102    30.568     9.066
     7   6 C        2.767     0.271    22.415     7.754
     8   8 O        0.859    -0.327    20.274     6.037
     9   7 N        2.738    -0.062    22.444     7.036
    10   6 C        3.702    -0.059    21.793     6.675
    11   6 C        2.721     0.318    21.601     7.608
    12   8 O        0.860    -0.358    20.862     6.124
    13   7 N        2.748    -0.062    22.433     7.035
    14   6 C        3.699    -0.078    22.163     6.733
    15   1 H        0.925     0.120     1.612     1.986
    16   1 H        0.925     0.135     1.498     1.914
    17   1 H        0.926     0.099     1.797     2.096
    18   1 H        0.925     0.117     1.639     2.002
    19   1 H        0.925     0.124     1.582     1.967
    20   1 H        0.924     0.110     1.693     2.035
    21   1 H        0.924     0.111     1.690     2.033
    22   1 H        0.924     0.085     1.928     2.171
    23   1 H        0.924     0.085     1.929     2.172
    24   1 H        0.924     0.139     1.472     1.897
    25   1 H        0.860     0.232     0.958     1.533

 Mol. C6AA /au·bohr⁶  :       6648.120928
 Mol. C8AA /au·bohr⁸  :     152990.711320
 Mol. α(0) /au        :        125.246928


Wiberg/Mayer (AO) data.
largest (>0.10) Wiberg bond orders for each atom

 ---------------------------------------------------------------------------
     #   Z sym  total        # sym  WBO       # sym  WBO       # sym  WBO
 ---------------------------------------------------------------------------
     1   6 C    3.631 --     2 N    1.684    16 H    0.934    15 H    0.922
     2   7 N    3.353 --     1 C    1.684     3 C    1.537
     3   6 C    3.787 --     2 N    1.537     4 N    1.204    18 H    0.922
     4   7 N    3.472 --     3 C    1.204     5 C    1.123    25 H    0.896
     5   6 C    3.873 --     6 C    1.464    13 N    1.157     4 N    1.123
     6   6 C    3.766 --     5 C    1.464     7 C    1.116    17 H    0.955
     7   6 C    3.917 --     8 O    1.658     6 C    1.116     9 N    1.064
     8   8 O    1.910 --     7 C    1.658     9 N    0.107
     9   7 N    3.480 --    11 C    1.145     7 C    1.064    10 C    0.983
                            12 O    0.119     8 O    0.107
    10   6 C    3.868 --     9 N    0.983    19 H    0.954    21 H    0.945
                            20 H    0.944
    11   6 C    3.944 --    12 O    1.653     9 N    1.145    13 N    1.060
    12   8 O    1.967 --    11 C    1.653     9 N    0.119    13 N    0.111
    13   7 N    3.475 --     5 C    1.157    11 C    1.060    14 C    0.985
                            12 O    0.111
    14   6 C    3.914 --    13 N    0.985    23 H    0.959    22 H    0.959
                            24 H    0.947
    15   1 H    0.963 --     1 C    0.922
    16   1 H    0.967 --     1 C    0.934
    17   1 H    0.986 --     6 C    0.955
    18   1 H    0.973 --     3 C    0.922
    19   1 H    0.972 --    10 C    0.954
    20   1 H    0.962 --    10 C    0.944
    21   1 H    0.963 --    10 C    0.945
    22   1 H    0.981 --    14 C    0.959
    23   1 H    0.981 --    14 C    0.959
    24   1 H    0.976 --    14 C    0.947
    25   1 H    0.945 --     4 N    0.896
 ---------------------------------------------------------------------------

Topologies differ in total number of bonds
Writing topology from bond orders to xtbtopo.mol

molecular dipole:
                 x           y           z       tot (Debye)
 q only:        2.584      -1.818       0.060
   full:        2.738      -2.031       0.112       8.670
molecular quadrupole (traceless):
                xx          xy          yy          xz          yz          zz
 q only:       24.733     -11.821      -3.883       0.333       0.382     -20.850
  q+dip:       22.255     -11.029      -4.570       0.736       0.656     -17.686
   full:       21.506     -11.917      -5.535       1.131       0.433     -15.971

           -------------------------------------------------
          |                Geometry Summary                 |
           -------------------------------------------------

      molecular mass/u    :      195.1988581
   center of mass at/Å    :        0.0434804       0.0841458      -0.0172161
  moments of inertia/u·Å² :        0.4402569E+03   0.1074829E+04   0.1504563E+04
rotational constants/cm⁻¹ :        0.3829044E-01   0.1568401E-01   0.1120434E-01

 * 24 selected distances

     #   Z          #   Z                                           value/Å
     1   6 C        2   7 N                                       1.2669393
     2   7 N        3   6 C                                       1.2777572
     3   6 C        4   7 N                                       1.3701594
     4   7 N        5   6 C                                       1.3898163
     5   6 C        6   6 C                                       1.3694033
     7   6 C        8   8 O                                       1.2141534
     7   6 C        9   7 N                                       1.4076071
     9   7 N       10   6 C                                       1.4454190
     9   7 N       11   6 C                                       1.3709495
    11   6 C       12   8 O                                       1.2076843
     5   6 C       13   7 N                                       1.3800266
    11   6 C       13   7 N                                       1.4100540
    13   7 N       14   6 C                                       1.4528336 (max)
     1   6 C       15   1 H                                       1.0859845
     1   6 C       16   1 H                                       1.0820793
     6   6 C       17   1 H                                       1.0762097
     3   6 C       18   1 H                                       1.0875800
    10   6 C       19   1 H                                       1.0892204
    10   6 C       20   1 H                                       1.0916355
    10   6 C       21   1 H                                       1.0912974
    14   6 C       22   1 H                                       1.0922692
    14   6 C       23   1 H                                       1.0923493
    14   6 C       24   1 H                                       1.0921273
     4   7 N       25   1 H                                       1.0149969 (min)

 * 5 distinct bonds (by element types)

   Z      Z             #   av. dist./Å        max./Å        min./Å
   1 H    6 C          10     1.0880753     1.0923493     1.0762097
   6 C    6 C           1     1.3694033     1.3694033     1.3694033
   1 H    7 N           1     1.0149969     1.0149969     1.0149969
   6 C    7 N          10     1.3771562     1.4528336     1.2669393
   6 C    8 O           2     1.2109188     1.2141534     1.2076843


optimized geometry written to: xtbopt.xyz


           -------------------------------------------------
          | TOTAL ENERGY              -42.183101010695 Eh   |
          | GRADIENT NORM               0.003980323646 Eh/α |
          | HOMO-LUMO GAP               2.332835352350 eV   |
           -------------------------------------------------

------------------------------------------------------------------------
 * finished run on 2024/06/05 at 19:58:43.054     
------------------------------------------------------------------------
 total:
 * wall-time:     0 d,  0 h,  0 min,  2.206 sec
 *  cpu-time:     0 d,  0 h,  0 min,  2.187 sec
 * ratio c/w:     0.991 speedup
 SCF:
 * wall-time:     0 d,  0 h,  0 min,  0.040 sec
 *  cpu-time:     0 d,  0 h,  0 min,  0.040 sec
 * ratio c/w:     1.000 speedup
 ANC optimizer:
 * wall-time:     0 d,  0 h,  0 min,  2.140 sec
 *  cpu-time:     0 d,  0 h,  0 min,  2.134 sec
 * ratio c/w:     0.997 speedup

