25
 energy: 0.000000000000 xtb: 6.6.1 (8d0f1dd)
C            3.23720163006194        1.16630919979326        0.08434469647475
N            2.29877817382611        0.07527477071623        0.03981603040599
C            2.58028210190900       -1.21425402444508        0.03006176031096
N            1.43813958087363       -1.93419271955128        0.00098261760884
C            0.39035688448383       -1.05887472636071       -0.00790371836672
C            0.93510056364412        0.21347819449412        0.01709077491437
C            0.09450143893243        1.40504303904423       -0.00410947031874
O            0.49712751527797        2.54126714362870       -0.00342325688240
N           -1.25076640035757        1.06271879480407       -0.03085478223738
C           -2.21907211982101        2.15522099834493       -0.05001256985998
C           -1.81739487048744       -0.20012725993278       -0.04692818574614
O           -2.99983886758376       -0.37846417018721       -0.07008878229737
N           -0.92618586207120       -1.30210215599479       -0.03682761578324
C           -1.46982264913417       -2.64643102187190       -0.06029820460571
H            3.71247264356769        1.21471455160235        1.06488849150277
H            4.00791497605742        1.03430808813993       -0.67357694370751
H            2.69910007168542        2.09770118228144       -0.09130154882931
H            3.56654120610678       -1.63682992603973        0.04233140067262
H           -1.67107961066214        3.09322851271934       -0.02552706933167
H           -2.82428953597071        2.09428624779827       -0.95318082946668
H           -2.87644029173232        2.07745725625962        0.81450067533302
H           -1.17061996399332       -3.19584890659852        0.83242232437030
H           -1.14560257411436       -3.17511610292205       -0.95688275822323
H           -2.55549792440841       -2.55659984320617       -0.07459039797972
H            1.38130855184625       -2.94313852034425       -0.01389874181052
25
 energy: -5.061672267910 xtb: 6.6.1 (8d0f1dd)
C            3.23390769454540        1.17809516637355        0.08517466240467
N            2.30288783102222        0.09262877566630        0.03541312951514
C            2.60042111638224       -1.23400011419352        0.02946128174525
N            1.43137967063944       -1.94626995926809       -0.00106015606596
C            0.39611029923995       -1.06554511033694       -0.00945719686044
C            0.92433576421804        0.21479343942565        0.01313459015698
C            0.09175625348019        1.38659842462977       -0.00429985440086
O            0.48899993164896        2.55187366546904       -0.00221817915528
N           -1.27243739448838        1.04800456261592       -0.02928681212678
C           -2.21581473143179        2.17240003311442       -0.04736449240425
C           -1.82868123366378       -0.21036606017933       -0.04580312444969
O           -3.02391808028792       -0.40046114152244       -0.06783036955885
N           -0.93424255833417       -1.31184916941613       -0.03708242869143
C           -1.46170461676599       -2.65965420055979       -0.06047907698565
H            3.69162690701897        1.24143887564883        1.07484425113262
H            4.01784951751188        1.03577338363173       -0.65882827797050
H            2.68950180332586        2.09801966480082       -0.11567145826182
H            3.58093754495239       -1.65555504535166        0.04039126644198
H           -1.63585724738000        3.09192705017057       -0.02195203556200
H           -2.82539369700241        2.15427423080115       -0.95152634107248
H           -2.87889057541097        2.13740845339469        0.81760845903277
H           -1.15435479211154       -3.21106405917566        0.83068869250341
H           -1.12891527775083       -3.18997556099165       -0.95540323753030
H           -2.54746390364449       -2.57899406658634       -0.07520777343584
H            1.37017444222291       -2.95047263598886       -0.01621162225337
25
 energy: -4.608747427150 xtb: 6.6.1 (8d0f1dd)
C            3.21897409064679        1.18996629075025        0.08478347956462
N            2.29826857379217        0.10504233079206        0.02493691517502
C            2.61421912485488       -1.25344460115979        0.02815500697544
N            1.42125848555387       -1.95727427168727       -0.00492941222791
C            0.39792616580216       -1.07855621470970       -0.01327202837902
C            0.90466519014749        0.21025272458184        0.00522797308761
C            0.08036129230627        1.35374424972677       -0.00470295742553
O            0.46228764468280        2.53979231673641       -0.00032774526362
N           -1.31061896364085        1.03028215034992       -0.02578604525540
C           -2.20343704341720        2.21151929030033       -0.04107247474551
C           -1.84566706910830       -0.22734098853376       -0.04279348843549
O           -3.04521431640677       -0.44040109159580       -0.06190347343652
N           -0.94560836381414       -1.32711941755844       -0.03766877585055
C           -1.44266526587619       -2.68550020865719       -0.06107219496575
H            3.63546992461151        1.29687170304501        1.09325295887264
H            4.03883919754225        1.03296607935686       -0.62063522465102
H            2.67195249274498        2.09572593976429       -0.17177439812301
H            3.59063031254030       -1.67098582202495        0.03475829901238
H           -1.55561916448010        3.09179787699411       -0.01311794193501
H           -2.81750711895597        2.26724014813616       -0.94686934809861
H           -2.87332143759621        2.24941552832788        0.82475742206877
H           -1.12078021898637       -3.23821026464996        0.82729310059715
H           -1.09444209348725       -3.21644240577376       -0.95289883024231
H           -2.52963631712276       -2.63110561799054       -0.07665730557752
H            1.36187954560287       -2.95920712234872       -0.02064961459354
25
 energy: 1.380917917378 xtb: 6.6.1 (8d0f1dd)
C            3.18906965326368        1.20171805337255        0.08270720788198
N            2.28454852217510        0.10906165879686        0.00878698042356
C            2.61899210333453       -1.27188367869370        0.02549721790153
N            1.41236909048511       -1.97154142441192       -0.01057944454366
C            0.39449209024147       -1.10026839488128       -0.01904655765185
C            0.87922811933839        0.19721558530946       -0.00533999464003
C            0.05988539531318        1.31822423704642       -0.00439125741470
O            0.42918486097445        2.51603924836432        0.00192052087083
N           -1.36074474480861        1.01678561487179       -0.02000048801060
C           -2.18277550462183        2.27237836199634       -0.03083994876944
C           -1.86978739486910       -0.24891280627810       -0.03741662075661
O           -3.06769721029121       -0.49532528768356       -0.05222729458632
N           -0.95825586337346       -1.34815401662524       -0.03838250178788
C           -1.41318723061611       -2.72371668527712       -0.06210918303654
H            3.53217368369178        1.37989371850429        1.11988873216564
H            4.06823895951735        1.01963381038850       -0.55340689139156
H            2.64735442920339        2.08877605577176       -0.26561359522966
H            3.59557596309318       -1.68180405566505        0.02237945799945
H           -1.44376748482332        3.09409149761804        0.00133080651211
H           -2.79574997972743        2.42489291960077       -0.93747763559094
H           -2.85489652731279        2.40478566180345        0.83499163699247
H           -1.07032733213551       -3.27400836196543        0.82324701788999
H           -1.04237829447933       -3.25113686368694       -0.95030047721420
H           -2.50202947390529       -2.71392075106943       -0.07909066962136
H            1.36269883826864       -2.97379549503477       -0.02749312224488
25
 energy: 13.360757640062 xtb: 6.6.1 (8d0f1dd)
C            3.14666466561402        1.21168981348750        0.07944299560310
N            2.26440931136564        0.10449834790201       -0.01097504706287
C            2.61715531046553       -1.28940911553538        0.02118305058440
N            1.40693355623909       -1.98989723644934       -0.01723483206290
C            0.38773379829725       -1.13004451647261       -0.02518097574747
C            0.85090049346333        0.17561761788478       -0.01532611889660
C            0.03418468009581        1.28338333136809       -0.00178836966442
O            0.40229855001861        2.48178993682659        0.00511508288315
N           -1.41984527650865        1.01242550052597       -0.01221796385194
C           -2.16043892621094        2.35290442312255       -0.01852673609124
C           -1.89773363356423       -0.27141286471155       -0.02982428932032
O           -3.08778132769758       -0.56192317553461       -0.04011128406236
N           -0.97023888234166       -1.37308852821059       -0.03849450774042
C           -1.37585008696509       -2.77037146587443       -0.06315343589072
H            3.38992701119534        1.48015762158872        1.14580562046470
H            4.09835752142082        0.99760544553672       -0.45971561975120
H            2.62341678351064        2.07393737365995       -0.38567781011092
H            3.59794609497588       -1.68769426541724        0.00112569025028
H           -1.33063845866661        3.10357763544991        0.01862982934765
H           -2.76162173350701        2.61354751567800       -0.92357157647400
H           -2.82615102369665        2.59110330612116        0.84441630182553
H           -1.00883762190250       -3.31516378812946        0.81946676667190
H           -0.97780373734955       -3.29081990816597       -0.94739314601564
H           -2.46565092454061       -2.81890254664692       -0.08253801427351
H            1.37487852422541       -2.99448185583186       -0.03642171446684
25
 energy: 24.552419933327 xtb: 6.6.1 (8d0f1dd)
C            3.10394465166376        1.21322583204869        0.07606927803969
N            2.24320472915504        0.08672043060438       -0.02658600849174
C            2.60524702386361       -1.29697870692538        0.01684862778992
N            1.41097503334917       -2.00589255108108       -0.02158899021181
C            0.37940079541303       -1.16145490148904       -0.02805416161439
C            0.83036605235750        0.14868641827251       -0.01695861919018
C            0.01111382500819        1.26321297105670        0.00409097164913
O            0.39717795870618        2.44069529512178        0.00901912885021
N           -1.47223466707205        1.02713127922442       -0.00552062153435
C           -2.14979608640980        2.43523481253596       -0.01035800090839
C           -1.91930004536260       -0.28596337997786       -0.02254785426828
O           -3.09142500466068       -0.62389166923548       -0.03061828628185
N           -0.97449094162288       -1.39418485790244       -0.03714860392179
C           -1.34203919829541       -2.81072432409304       -0.06335537021506
H            3.25944441339970        1.55465667891664        1.14669227390929
H            4.10504432797253        0.97994882566264       -0.36912747908550
H            2.61829765335963        2.05144700688547       -0.47841125521991
H            3.59551749938673       -1.68205033889678       -0.02493783099859
H           -1.27332580590866        3.12257535296304        0.03042581215772
H           -2.72295237204799        2.77361830782245       -0.90894921020231
H           -2.79465730331849        2.75133021845885        0.84443677224449
H           -0.95857885506143       -3.34790079813467        0.81840013439757
H           -0.92258714271904       -3.32245373703129       -0.94456225587971
H           -2.42930457186066       -2.91231675731127       -0.08627413519447
H            1.40317269864095       -3.01564280532318       -0.04395041967238
25
 energy: 32.876930338066 xtb: 6.6.1 (8d0f1dd)
C            3.06785924618469        1.20303117525009        0.07259661717283
N            2.22319685081173        0.05353270452440       -0.03048062568313
C            2.57915972284899       -1.27710492963708        0.01697159703068
N            1.43401175454207       -2.01408348527343       -0.02273569092127
C            0.36874983239983       -1.19119156626222       -0.02669428986076
C            0.82424634691382        0.11740822032766       -0.00594078047994
C           -0.00916713032458        1.26585075883119        0.00966761746732
O            0.41785024151290        2.39825994712601        0.01582467092788
N           -1.50387237325554        1.05994628309069       -0.00404015770525
C           -2.15515631780729        2.51039863531984       -0.00905696516142
C           -1.93162435255024       -0.29256093715441       -0.01924745882834
O           -3.07293666557792       -0.67093913474093       -0.02467849869792
N           -0.96557000647986       -1.41295674125147       -0.03476755875071
C           -1.32180666471222       -2.84028359316801       -0.06230138557576
H            3.15769749717814        1.57426638119300        1.10074485470763
H            4.06719761731181        0.97150299928319       -0.29136964171946
H            2.64516607481234        2.01254428263611       -0.51895469733721
H            3.58467645764372       -1.64810084010582       -0.05089342752793
H           -1.28687828775650        3.14291351036055        0.03455414633059
H           -2.68242383841611        2.87821107635784       -0.89390622836987
H           -2.76129706795776        2.85818148761392        0.83109813759020
H           -0.93440365680465       -3.36560582692748        0.82167309722143
H           -0.89225224458957       -3.33919969940263       -0.94264339376909
H           -2.39829072792904       -2.97465311313403       -0.08979322559111
H            1.45808235993760       -3.03033899268500       -0.04859281632206
25
 energy: 49.578629395697 xtb: 6.6.1 (8d0f1dd)
C            3.02970303647176        1.20734298492138        0.06659168122813
N            2.20315082039837        0.05130445664761       -0.04199379047970
C            2.57922142498735       -1.27264126148174        0.01685579394623
N            1.44373960459277       -2.03224457275426       -0.03041422771206
C            0.36423789711191       -1.21951469452068       -0.03070454934633
C            0.80004559777192        0.09554210422414       -0.01067717420892
C           -0.03178806925302        1.23857068596196        0.01152751554649
O            0.41692208165579        2.37620773656647        0.02782787823375
N           -1.53803255082441        1.05438725583841        0.00149269146489
C           -2.14200639606951        2.58041190048331        0.00137214848476
C           -1.95227889286905       -0.31278084986880       -0.01392972220722
O           -3.08877562628338       -0.71809984949239       -0.01094271251379
N           -0.97119017173931       -1.44298975916927       -0.03366277748159
C           -1.29784362172498       -2.88307483268505       -0.06238353322730
H            3.00025082834205        1.64812036009725        1.10850782737039
H            4.08597703543877        0.93500516616000       -0.18769165184298
H            2.64119338096505        1.98070470768746       -0.64265455277399
H            3.58811578171523       -1.62573374076027       -0.07640763613306
H           -1.20586654786569        3.15516901351733        0.05244382484360
H           -2.65544183888640        3.03666859800983       -0.88428665832030
H           -2.74240399824445        3.01355181405908        0.83934682787947
H           -0.89123270055908       -3.40066083166091        0.82028486572591
H           -0.84513388352356       -3.37097653529288       -0.94053445533573
H           -2.36961683140548       -3.05927637901846       -0.09338281731749
H            1.49126830773373       -3.04596487529757       -0.05955089967580
25
 energy: 56.109712053100 xtb: 6.6.1 (8d0f1dd)
C            3.01494718189429        1.20944644973759        0.06302636912619
N            2.19264818847916        0.05509055035374       -0.03938410559842
C            2.58417722596826       -1.26078549003301        0.02028007318852
N            1.45517653532481       -2.04194549783320       -0.03335694798469
C            0.36614425459223       -1.23344476793245       -0.03119983334399
C            0.78802334282769        0.08580733191947       -0.00752195696969
C           -0.04584819386546        1.22377234230005        0.01404496791501
O            0.41725179589900        2.37034666804294        0.04064644559030
N           -1.53919409116247        1.04620494074200        0.00204861770792
C           -2.13619312333929        2.62036972889081        0.00120432406365
C           -1.95732352215563       -0.32415856105325       -0.01214398876903
O           -3.09447207398294       -0.72858702492579       -0.00581386142347
N           -0.97057012441683       -1.46550043407659       -0.03250870233855
C           -1.29361869222832       -2.90701861603709       -0.06212250803890
H            2.94601163791355        1.65979880383466        1.07948839579562
H            4.06402026856404        0.93259537900718       -0.14852456571140
H            2.65496251587011        1.95732796855877       -0.66654340756009
H            3.59277645398874       -1.60332477095943       -0.08601769347832
H           -1.18164576161730        3.17208537044345        0.05645610984929
H           -2.64317218996267        3.09971234136370       -0.88329810965946
H           -2.73754334941520        3.07800742634093        0.83491223340956
H           -0.88306497573663       -3.42261439104721        0.82014676620971
H           -0.83384781367838       -3.39172151402538       -0.93857050116373
H           -2.36142813367893       -3.09141041425541       -0.09560196459678
H            1.51399731185455       -3.05102521718451       -0.06261226007193
25
 energy: 62.726544290184 xtb: 6.6.1 (8d0f1dd)
C            3.01227321295281        1.20868305229755        0.05660515842006
N            2.18496461786178        0.06014305562819       -0.03022448265047
C            2.59949843928353       -1.24226778190569        0.02984819342627
N            1.47777690448236       -2.05598560642925       -0.04115272420771
C            0.37912474523100       -1.24859721413946       -0.03503386829775
C            0.78046638070210        0.07466773030458       -0.00646973117781
C           -0.06277325308622        1.20677405225223        0.01922288114007
O            0.42825056965662        2.36610139007438        0.06582650685692
N           -1.51100321368718        1.03372060489561        0.00320134183349
C           -2.14615601513703        2.68218581127630        0.00399919135299
C           -1.94722448680262       -0.33483683315151       -0.00944062710817
O           -3.09001771135612       -0.71947972609327        0.00233742880462
N           -0.95872990978080       -1.50009747660124       -0.03264267161186
C           -1.29927320014886       -2.93258450896132       -0.06349415444482
H            2.85303944045348        1.69891452609856        1.03341447263876
H            4.06262858682039        0.90886918755379       -0.06078102736518
H            2.70788011705675        1.90700360598459       -0.74026779260345
H            3.60378406733530       -1.57411261466635       -0.10013666987836
H           -1.21827261042893        3.22097045288452        0.06545182522861
H           -2.64494440950978        3.13904373911012       -0.87501769603331
H           -2.74394335529557        3.11626085155500        0.83101695957951
H           -0.89481871569046       -3.45225737154885        0.81767911919053
H           -0.84561432758560       -3.41743461358568       -0.93983958000485
H           -2.36073978433954       -3.10087976081178       -0.09735742375496
H            1.54603857894902       -3.05577594984900       -0.06971073318574
25
 energy: 71.189471352126 xtb: 6.6.1 (8d0f1dd)
C            3.00900687438117        1.21099746727473        0.05310999574642
N            2.17897137905997        0.05771169019641       -0.01771867564405
C            2.61121959738200       -1.23983333075714        0.03713964630037
N            1.49316150030000       -2.06686654935205       -0.04365203891004
C            0.39125678432781       -1.26273200684210       -0.03462538666697
C            0.77664286004166        0.06198004704403       -0.00001683177753
C           -0.08957998776115        1.19093218396493        0.03298361442737
O            0.40950031807568        2.34926295084597        0.08106349521243
N           -1.50009829917273        1.01714360423458        0.00739270086446
C           -2.16995280393047        2.75271274627227        0.00304243057681
C           -1.93983906670022       -0.35237136206338       -0.00670639478985
O           -3.08480456310203       -0.73316816696146        0.00328346833915
N           -0.94417157044550       -1.53003204726826       -0.03195460282671
C           -1.29351867190689       -2.95698839334875       -0.06471041230015
H            2.79847501007324        1.74491588954296        0.97311244492072
H            4.04609528491415        0.90888406300614        0.01097734414296
H            2.76344380222819        1.86646227270050       -0.77706263818391
H            3.61537625401701       -1.56541449011258       -0.12216475421680
H           -1.20156058158720        3.24811575031269        0.07272106630492
H           -2.65709785054709        3.21003326438698       -0.88125394306772
H           -2.76777494564112        3.18614767399482        0.82968071200366
H           -0.89754850379442       -3.48260591623217        0.81668918375140
H           -0.84616367153013       -3.44617606180477       -0.94139237526975
H           -2.35774253863917       -3.11463521286618       -0.09965539865987
H            1.56891805789364       -3.06544746399621       -0.07324875412993
25
 energy: 79.507415389385 xtb: 6.6.1 (8d0f1dd)
C            3.00022816325923        1.21051386505345        0.04832992896489
N            2.17321537357925        0.04916002472850       -0.01057436446949
C            2.62250426228896       -1.23752244659068        0.04049930249618
N            1.51301075510355       -2.08316252046630       -0.04914146483368
C            0.40178032627042       -1.28801758243187       -0.03663376923956
C            0.77327452697308        0.03723315878549        0.00101662073667
C           -0.11852113516226        1.16251436246938        0.04217508036835
O            0.39635163939751        2.31239153771503        0.09417118826177
N           -1.49918881915489        0.99014781410638        0.01482612831025
C           -2.19300350263536        2.86458168396220        0.00785573067367
C           -1.93362908266784       -0.38180604171715       -0.00374010907116
O           -3.07400592405157       -0.77020458460225        0.00761468742604
N           -0.92534040137682       -1.57165109342640       -0.03277626149156
C           -1.27793918772822       -2.99507183796682       -0.06640758421917
H            2.70195676930747        1.80846161083299        0.92404707539741
H            4.04825468784412        0.89717011132364        0.11193880895341
H            2.81664451054966        1.81492949878135       -0.85249772035529
H            3.62675699110387       -1.55246351389700       -0.14196542317836
H           -1.22019928910530        3.31169675203122        0.08077452217590
H           -2.66965335482452        3.33100354918435       -0.87398718566051
H           -2.78591618798418        3.30783690619121        0.83131484940653
H           -0.88692908299765       -3.52286473060157        0.81577169829383
H           -0.83567306764292       -3.48403821180751       -0.94510894113106
H           -2.34281309253208       -3.14129090660764       -0.10105366004490
H            1.60104879012298       -3.08051880287804       -0.07941524162276
25
 energy: 81.031178980973 xtb: 6.6.1 (8d0f1dd)
C            3.00118451033027        1.21091679281197        0.04867487917094
N            2.17187242668791        0.04418255056194        0.00493791909297
C            2.63619594989019       -1.23036236081467        0.03550653578038
N            1.53597479164418       -2.09639926948789       -0.05185649207508
C            0.41497602518502       -1.30714569004729       -0.03459025936181
C            0.77596589317701        0.01663707597565        0.00559515693340
C           -0.15199670489231        1.13478891393830        0.04698322811968
O            0.37089161984449        2.28173993706039        0.09968183002338
N           -1.48603041301521        0.94259156250570        0.01627773957265
C           -2.22579785070639        2.98250660991572        0.00516845853922
C           -1.92163935515616       -0.41683664323426       -0.00255584978173
O           -3.06127445553237       -0.80124254177410        0.00616027509970
N           -0.90144017960025       -1.61598655604829       -0.03178755786962
C           -1.26575107974323       -3.02953025535062       -0.06672482390094
H            2.67380715192548        1.81870278911011        0.85598121248406
H            4.01361598242595        0.91674458817962        0.16146460195616
H            2.85797400448931        1.76767084045251       -0.85131591155879
H            3.63783819495792       -1.53855315000503       -0.14466808804565
H           -1.22778813418207        3.37602019016501        0.08201329828268
H           -2.69857253052833        3.43669871836733       -0.87845847646855
H           -2.81747422352417        3.41408059549357        0.83014370776465
H           -0.88389885975233       -3.55834140000414        0.81768051057558
H           -0.83238019081345       -3.51947917753445       -0.94773127883226
H           -2.33373035150395       -3.15003388950158       -0.10097742522989
H            1.62969244632893       -3.09034162856352       -0.07856929412376
25
 energy: 75.052804078477 xtb: 6.6.1 (8d0f1dd)
C            3.01821456285314        1.20853039590491        0.05167124423471
N            2.18688073985178        0.02566405243258        0.02746899168999
C            2.64542038076859       -1.22519446217608        0.00168351816052
N            1.56392785694236       -2.10187212520623       -0.05399055186014
C            0.42703999783496       -1.32076600816931       -0.02879787121060
C            0.81076144112783       -0.01202923501005        0.00494031043921
C           -0.18695307982860        1.10124954025989        0.04593162388985
O            0.32262204728862        2.22997930664954        0.09061353897041
N           -1.44502967135405        0.80576922633055        0.02040334876553
C           -2.30441226848632        3.19726078538730        0.00440040695736
C           -1.89113479169887       -0.48261429810457       -0.00064088507929
O           -3.02637672187574       -0.84927021676431        0.00145986642042
N           -0.85542474542197       -1.67526320976863       -0.03079084410889
C           -1.24504060190178       -3.06417646415022       -0.06778246783988
H            2.65895495070532        1.82371869783149        0.78063816606748
H            3.98959714490634        0.94836674289639        0.21292692417605
H            2.90521905118435        1.70465129651680       -0.83723941121494
H            3.64426527034019       -1.53485282325364       -0.12312949635645
H           -1.26670988905726        3.47404572690204        0.07940475877452
H           -2.76858473855805        3.56273567315949       -0.89352823767568
H           -2.88045207854919        3.53941242860885        0.84886971717370
H           -0.87927801280084       -3.58870235210529        0.82210229635213
H           -0.83134942905316       -3.55119227945423       -0.95705186011122
H           -2.32940346302073       -3.13016341564417       -0.09803320613368
H            1.64946071573957       -3.09625838090114       -0.07449598433374
25
 energy: 66.738718484608 xtb: 6.6.1 (8d0f1dd)
C            3.02301789562114        1.20360350437051        0.05520708599704
N            2.20321733457502        0.00477276339794        0.03762418802810
C            2.64760645189864       -1.23732595140215       -0.02506549942865
N            1.57941199098552       -2.10166976890469       -0.05481779736676
C            0.42911790287054       -1.32932125042948       -0.02580793624623
C            0.84693552960531       -0.02890064241762        0.00422075625293
C           -0.18848009037433        1.09137561719136        0.04820494843271
O            0.28322908852824        2.20090469152608        0.08821280586059
N           -1.42101490413272        0.67295026486990        0.03032810322236
C           -2.37597951921897        3.38605271874191        0.00701047925679
C           -1.86999823320802       -0.53760656722961        0.00111340573452
O           -3.00288187764581       -0.90400520114801        0.00007149640848
N           -0.82481357537685       -1.71123631188376       -0.03240315492533
C           -1.22409264603605       -3.08795037196419       -0.06891909226657
H            2.64518203799623        1.83951809788080        0.76188444901575
H            4.00128544367331        0.95934574885914        0.24374266511460
H            2.92308569055103        1.68237319198619       -0.86470386681930
H            3.65677762902315       -1.54757503789996       -0.10233948506636
H           -1.29362856880609        3.53098627119541        0.07805143782398
H           -2.82405623596676        3.66982693101802       -0.91728243298253
H           -2.93471816174980        3.64415822483130        0.87699684100026
H           -0.87239027224267       -3.61146934710513        0.82352492233495
H           -0.82769182139279       -3.57509432656312       -0.96358167004406
H           -2.32133048861060       -3.12175318093501       -0.09578228721365
H            1.65442406736982       -3.10293146581387       -0.07845646597621
25