      -----------------------------------------------------------      
     |                   =====================                   |     
     |                           x T B                           |     
     |                   =====================                   |     
     |                         S. Grimme                         |     
     |          Mulliken Center for Theoretical Chemistry        |     
     |                    University of Bonn                     |     
      -----------------------------------------------------------      

   * xtb version 6.6.1 (8d0f1dd) compiled by 'conda@1efc2f54142f' on 2023-08-01

   xtb is free software: you can redistribute it and/or modify it under
   the terms of the GNU Lesser General Public License as published by
   the Free Software Foundation, either version 3 of the License, or
   (at your option) any later version.
   
   xtb is distributed in the hope that it will be useful,
   but WITHOUT ANY WARRANTY; without even the implied warranty of
   MERCHANTABILITY or FITNESS FOR A PARTICULAR PURPOSE.  See the
   GNU Lesser General Public License for more details.
   
   Cite this work as:
   * C. Bannwarth, E. Caldeweyher, S. Ehlert, A. Hansen, P. Pracht,
     J. Seibert, S. Spicher, S. Grimme, WIREs Comput. Mol. Sci., 2020, 11,
     e01493. DOI: 10.1002/wcms.1493
   
   for GFN2-xTB:
   * C. Bannwarth, S. Ehlert and S. Grimme., J. Chem. Theory Comput., 2019,
     15, 1652-1671. DOI: 10.1021/acs.jctc.8b01176
   for GFN1-xTB:
   * S. Grimme, C. Bannwarth, P. Shushkov, J. Chem. Theory Comput., 2017,
     13, 1989-2009. DOI: 10.1021/acs.jctc.7b00118
   for GFN0-xTB:
   * P. Pracht, E. Caldeweyher, S. Ehlert, S. Grimme, ChemRxiv, 2019, preprint.
     DOI: 10.26434/chemrxiv.8326202.v1
   for GFN-FF:
   * S. Spicher and S. Grimme, Angew. Chem. Int. Ed., 2020, 59, 15665-15673.
     DOI: 10.1002/anie.202004239
   
   for ALPB and GBSA implicit solvation:
   * S. Ehlert, M. Stahn, S. Spicher, S. Grimme, J. Chem. Theory Comput.,
     2021, 17, 4250-4261. DOI: 10.1021/acs.jctc.1c00471
   
   for DFT-D4:
   * E. Caldeweyher, C. Bannwarth and S. Grimme, J. Chem. Phys., 2017,
     147, 034112. DOI: 10.1063/1.4993215
   * E. Caldeweyher, S. Ehlert, A. Hansen, H. Neugebauer, S. Spicher,
     C. Bannwarth and S. Grimme, J. Chem. Phys., 2019, 150, 154122.
     DOI: 10.1063/1.5090222
   * E. Caldeweyher, J.-M. Mewes, S. Ehlert and S. Grimme, Phys. Chem. Chem. Phys.
     2020, 22, 8499-8512. DOI: 10.1039/D0CP00502A
   
   for sTDA-xTB:
   * S. Grimme and C. Bannwarth, J. Chem. Phys., 2016, 145, 054103.
     DOI: 10.1063/1.4959605
   
   in the mass-spec context:
   * V. Asgeirsson, C. Bauer and S. Grimme, Chem. Sci., 2017, 8, 4879.
     DOI: 10.1039/c7sc00601b
   * J. Koopman and S. Grimme, ACS Omega 2019, 4, 12, 15120-15133.
     DOI: 10.1021/acsomega.9b02011
   
   for metadynamics refer to:
   * S. Grimme, J. Chem. Theory Comput., 2019, 155, 2847-2862
     DOI: 10.1021/acs.jctc.9b00143
   
   for SPH calculations refer to:
   * S. Spicher and S. Grimme, J. Chem. Theory Comput., 2021, 17, 1701-1714
     DOI: 10.1021/acs.jctc.0c01306
   
   with help from (in alphabetical order)
   P. Atkinson, C. Bannwarth, F. Bohle, G. Brandenburg, E. Caldeweyher
   M. Checinski, S. Dohm, S. Ehlert, S. Ehrlich, I. Gerasimov, C. Hölzer
   A. Katbashev, J. Koopman, C. Lavigne, S. Lehtola, F. März, M. Müller,
   F. Musil, H. Neugebauer, J. Pisarek, C. Plett, P. Pracht, F. Pultar,
   J. Seibert, P. Shushkov, S. Spicher, M. Stahn, M. Steiner, T. Strunk,
   J. Stückrath, T. Rose, and J. Unsleber
   
 * started run on 2024/06/05 at 19:59:14.592     

           -------------------------------------------------
          |                Calculation Setup                |
           -------------------------------------------------

          program call               : xtb xtbopt.xyz --opt crude --input .xc2 --gfn2
          hostname                   : n-62-31-11
          coordinate file            : xtbopt.xyz
          omp threads                :                     1

   ID    Z sym.   atoms
    1    6 C      1, 3, 5-7, 10, 11, 14
    2    7 N      2, 4, 9, 13
    3    8 O      8, 12
    4    1 H      15-25
########################################################################
[WARNING] Please study the warnings concerning your input carefully
-1- readin_getIntValue: could not parse ''
########################################################################

           -------------------------------------------------
          |                 G F N 2 - x T B                 |
           -------------------------------------------------

        Reference                      10.1021/acs.jctc.8b01176
      * Hamiltonian:
        H0-scaling (s, p, d)           1.850000    2.230000    2.230000
        zeta-weighting                 0.500000
      * Dispersion:
        s8                             2.700000
        a1                             0.520000
        a2                             5.000000
        s9                             5.000000
      * Repulsion:
        kExp                           1.500000    1.000000
        rExp                           1.000000
      * Coulomb:
        alpha                          2.000000
        third order                    shell-resolved
        anisotropic                    true
        a3                             3.000000
        a5                             4.000000
        cn-shift                       1.200000
        cn-exp                         4.000000
        max-rad                        5.000000

q/qsh data taken from xtbrestart
CAMM data taken from xtbrestart

          ...................................................
          :                      SETUP                      :
          :.................................................:
          :  # basis functions                  67          :
          :  # atomic orbitals                  67          :
          :  # shells                           39          :
          :  # electrons                        74          :
          :  max. iterations                   250          :
          :  Hamiltonian                  GFN2-xTB          :
          :  restarted?                       true          :
          :  GBSA solvation                  false          :
          :  PC potential                    false          :
          :  electronic temp.         5000.0000000     K    :
          :  accuracy                    1.0000000          :
          :  -> integral cutoff          0.2500000E+02      :
          :  -> integral neglect         0.1000000E-07      :
          :  -> SCF convergence          0.1000000E-05 Eh   :
          :  -> wf. convergence          0.1000000E-03 e    :
          :  Broyden damping             0.4000000          :
          ...................................................

 iter      E             dE          RMSdq      gap      omega  full diag
   1    -42.6593897 -0.426594E+02  0.294E-05    1.70       0.0  T
   2    -42.6593897  0.160583E-10  0.340E-05    1.70     587.9  T
   3    -42.6593897 -0.406430E-10  0.806E-06    1.70    2480.4  T

   *** convergence criteria satisfied after 3 iterations ***

         #    Occupation            Energy/Eh            Energy/eV
      -------------------------------------------------------------
         1        2.0000           -0.9031994             -24.5773
       ...           ...                  ...                  ...
        31        1.9998           -0.6169066             -16.7869
        32        1.9994           -0.6022715             -16.3886
        33        1.9976           -0.5802060             -15.7882
        34        1.9974           -0.5789458             -15.7539
        35        1.9870           -0.5531651             -15.0524
        36        1.9859           -0.5519061             -15.0181
        37        1.7578           -0.5049321             -13.7399 (HOMO)
        38        0.2486           -0.4426366             -12.0448 (LUMO)
        39        0.0240           -0.4037346             -10.9862
        40        0.0028           -0.3697596             -10.0617
        41        0.0000           -0.2862949              -7.7905
        42        0.0000           -0.2104408              -5.7264
       ...           ...                  ...                  ...
        67                          0.5497626              14.9598
      -------------------------------------------------------------
                  HL-Gap            0.0622955 Eh            1.6951 eV
             Fermi-level           -0.4735480 Eh          -12.8859 eV

 SCC (total)                   0 d,  0 h,  0 min,  0.025 sec
 SCC setup                      ...        0 min,  0.000 sec (  1.095%)
 Dispersion                     ...        0 min,  0.000 sec (  1.264%)
 classical contributions        ...        0 min,  0.000 sec (  0.347%)
 integral evaluation            ...        0 min,  0.005 sec ( 19.915%)
 iterations                     ...        0 min,  0.006 sec ( 23.723%)
 molecular gradient             ...        0 min,  0.013 sec ( 53.047%)
 printout                       ...        0 min,  0.000 sec (  0.563%)

         :::::::::::::::::::::::::::::::::::::::::::::::::::::
         ::                     SUMMARY                     ::
         :::::::::::::::::::::::::::::::::::::::::::::::::::::
         :: total energy             -42.158129269997 Eh    ::
         :: gradient norm              0.022291896592 Eh/a0 ::
         :: HOMO-LUMO gap              1.695146071486 eV    ::
         ::.................................................::
         :: SCC energy               -42.659389710880 Eh    ::
         :: -> isotropic ES            0.128872609614 Eh    ::
         :: -> anisotropic ES         -0.003222736724 Eh    ::
         :: -> anisotropic XC          0.011422263668 Eh    ::
         :: -> dispersion             -0.022072746647 Eh    ::
         :: repulsion energy           0.501178138848 Eh    ::
         :: add. restraining           0.000000000000 Eh    ::
         :: total charge               1.000000000000 e     ::
         :::::::::::::::::::::::::::::::::::::::::::::::::::::

      ----------------------------------------------------------- 
     |                   =====================                   |
     |                        A N C O P T                        |
     |                   =====================                   |
     |               Approximate Normal Coordinate               |
     |                Rational Function Optimizer                |
      ----------------------------------------------------------- 

          ...................................................
          :                      SETUP                      :
          :.................................................:
          :   optimization level             crude          :
          :   max. optcycles                   200          :
          :   ANC micro-cycles                  20          :
          :   degrees of freedom                69          :
          :.................................................:
          :   RF solver                   davidson          :
          :   write xtbopt.log                true          :
          :   linear?                        false          :
          :   energy convergence         0.5000000E-03 Eh   :
          :   grad. convergence          0.1000000E-01 Eh/α :
          :   maxmium RF displ.          1.0000000          :
          :   Hlow (freq-cutoff)         0.1000000E-01      :
          :   Hmax (freq-cutoff)         5.0000000          :
          :   S6 in model hess.         20.0000000          :
          ...................................................

generating ANC from model Hessian ...
Using Lindh-Hessian (1995)
 Shifting diagonal of input Hessian by    7.7870508468950959E-003
 Lowest  eigenvalues of input Hessian
    0.000000    0.000000    0.000000    0.000000    0.000000    0.000000
    0.010000    0.011136    0.011374    0.015040    0.016679    0.018238
    0.019265    0.023090    0.025645    0.026224    0.031450    0.040518
 Highest eigenvalues
    1.925263    2.108564    2.148868    2.215546    2.281956    2.505056


........................................................................
.............................. CYCLE    1 ..............................
........................................................................

 iter      E             dE          RMSdq      gap      omega  full diag
   1    -42.6593897 -0.426594E+02  0.245E-06    1.70       0.0  T
   2    -42.6593897 -0.355271E-13  0.160E-06    1.70   12524.5  T
   3    -42.6593897 -0.568434E-13  0.103E-06    1.70   19344.1  T
     SCC iter.                  ...        0 min,  0.005 sec
     gradient                   ...        0 min,  0.013 sec
 * total energy  :   -42.1581293 Eh     change       -0.2202682E-12 Eh
   gradient norm :     0.0222919 Eh/α   predicted     0.0000000E+00 (-100.00%)
   displ. norm   :     0.2569676 α      lambda       -0.2744311E-02
   maximum displ.:     0.1062914 α      in ANC's #2, #10, #6, ...

........................................................................
.............................. CYCLE    2 ..............................
........................................................................

 iter      E             dE          RMSdq      gap      omega  full diag
   1    -42.6651587 -0.426652E+02  0.120E-01    1.72       0.0  T
   2    -42.6651737 -0.149981E-04  0.703E-02    1.71       1.0  T
   3    -42.6651381  0.356169E-04  0.377E-02    1.73       1.0  T
   4    -42.6651760 -0.379112E-04  0.144E-02    1.71       1.4  T
   5    -42.6651825 -0.649939E-05  0.506E-03    1.72       4.0  T
   6    -42.6651827 -0.157267E-06  0.271E-03    1.72       7.4  T
   7    -42.6651827 -0.495267E-07  0.662E-04    1.72      30.2  T
   8    -42.6651827 -0.344723E-08  0.273E-04    1.72      73.3  T
     SCC iter.                  ...        0 min,  0.011 sec
     gradient                   ...        0 min,  0.013 sec
 * total energy  :   -42.1600402 Eh     change       -0.1910914E-02 Eh
   gradient norm :     0.0092636 Eh/α   predicted    -0.1462790E-02 ( -23.45%)
   displ. norm   :     0.2747147 α      lambda       -0.1062648E-02
   maximum displ.:     0.1661572 α      in ANC's #2, #1, #6, ...

........................................................................
.............................. CYCLE    3 ..............................
........................................................................

 iter      E             dE          RMSdq      gap      omega  full diag
   1    -42.6682330 -0.426682E+02  0.104E-01    1.74       0.0  T
   2    -42.6682387 -0.562662E-05  0.618E-02    1.73       1.0  T
   3    -42.6682043  0.344075E-04  0.346E-02    1.76       1.0  T
   4    -42.6682416 -0.373730E-04  0.939E-03    1.74       2.1  T
   5    -42.6682438 -0.218070E-05  0.372E-03    1.74       5.4  T
   6    -42.6682439 -0.481784E-07  0.183E-03    1.74      10.9  T
   7    -42.6682439 -0.324568E-07  0.584E-04    1.74      34.3  T
   8    -42.6682439 -0.386226E-08  0.200E-04    1.74     100.1  T
     SCC iter.                  ...        0 min,  0.011 sec
     gradient                   ...        0 min,  0.013 sec
 * total energy  :   -42.1607613 Eh     change       -0.7211147E-03 Eh
   gradient norm :     0.0046000 Eh/α   predicted    -0.5716190E-03 ( -20.73%)
   displ. norm   :     0.2811684 α      lambda       -0.5184379E-03
   maximum displ.:     0.1841611 α      in ANC's #2, #1, #3, ...

........................................................................
.............................. CYCLE    4 ..............................
........................................................................

 iter      E             dE          RMSdq      gap      omega  full diag
   1    -42.6685405 -0.426685E+02  0.103E-01    1.75       0.0  T
   2    -42.6685439 -0.335007E-05  0.613E-02    1.75       1.0  T
   3    -42.6685281  0.157925E-04  0.237E-02    1.76       1.0  T
   4    -42.6685451 -0.169743E-04  0.650E-03    1.75       3.1  T
   5    -42.6685460 -0.952182E-06  0.259E-03    1.75       7.7  T
   6    -42.6685460 -0.278034E-07  0.109E-03    1.75      18.3  T
   7    -42.6685460 -0.603013E-08  0.341E-04    1.75      58.6  T
   8    -42.6685460 -0.134781E-08  0.145E-04    1.75     138.3  T
     SCC iter.                  ...        0 min,  0.011 sec
     gradient                   ...        0 min,  0.014 sec
 * total energy  :   -42.1611737 Eh     change       -0.4123582E-03 Eh
   gradient norm :     0.0064107 Eh/α   predicted    -0.2797135E-03 ( -32.17%)
   displ. norm   :     0.3788006 α      lambda       -0.5693631E-03
   maximum displ.:     0.2307739 α      in ANC's #2, #1, #3, ...

   *** GEOMETRY OPTIMIZATION CONVERGED AFTER 4 ITERATIONS ***

------------------------------------------------------------------------
 total energy gain   :        -0.0030444 Eh       -1.9104 kcal/mol
 total RMSD          :         0.1547838 a0        0.0819 Å
 total power (kW/mol):        -1.9982590 (step)  -66.3311 (real)
------------------------------------------------------------------------

 ANCopt (total)                0 d,  0 h,  0 min,  0.121 sec
 optimizer setup                ...        0 min,  0.000 sec (  0.389%)
 model hessian                  ...        0 min,  0.006 sec (  4.790%)
 ANC generation                 ...        0 min,  0.001 sec (  0.644%)
 coordinate transformation      ...        0 min,  0.000 sec (  0.028%)
 single point calculation       ...        0 min,  0.111 sec ( 92.176%)
 optimization log               ...        0 min,  0.002 sec (  1.412%)
 hessian update                 ...        0 min,  0.000 sec (  0.037%)
 rational function              ...        0 min,  0.000 sec (  0.253%)

================
 final structure:
================
25
 xtb: 6.6.1 (8d0f1dd)
C            3.39542969481910        0.88483451485095        0.33089200352290
N            2.38586865105992       -0.12115820105106        0.15127554177431
C            2.57473621796508       -1.43266018356502        0.04723841392843
N            1.38058943267406       -2.06307871760676       -0.09067949964936
C            0.40620738748354       -1.11671333919243       -0.06796066365007
C            1.03183844651386        0.12634105488944        0.08496098824948
C            0.30434951557415        1.32233124541786        0.18344767728929
O           -2.75997976028331        2.52276073671901       -0.71257850260842
N           -1.01669119696872        1.13434569789306        0.12629133459564
C           -1.87124016997196        2.33470114614043        0.31578593177521
C           -1.72265015675253       -0.06973477222152       -0.02149846030020
O           -2.91434521946657       -0.14266442613929       -0.03195738435400
N           -0.92530401932267       -1.23446179872912       -0.15299204608962
C           -1.58260080938527       -2.51730023692116       -0.30667998684970
H            3.87767777427640        0.77212764699157        1.30277132081347
H            4.15399731493220        0.80775105361084       -0.44769979322021
H            2.91513566315864        1.85977295034220        0.28098633528666
H            3.52390611257881       -1.92922697911512        0.07230426671607
H           -2.33743989337241        2.89328443874283       -1.50087683576671
H           -2.46552036126226        2.17687109368976        1.22661442253304
H           -1.16954467075397        3.16510250718953        0.46089206992622
H           -1.38132631759995       -3.15527015774942        0.55476804276043
H           -1.24930655498042       -3.00616756110866       -1.22237927053582
H           -2.65425103776894       -2.33149794735062       -0.36898169493666
H            1.26089547095542       -3.06205122412821       -0.18277259331037

 Bond Distances (Angstroems)
 ---------------------------
C1-N2=1.4365         C1-H15=1.0908        C1-H16=1.0898        C1-H17=1.0880        N2-C1=1.4365         N2-C3=1.3291         
N2-C6=1.3781         C3-N2=1.3291         C3-N4=1.3574         C3-H18=1.0715        N4-C3=1.3574         N4-C5=1.3585         
N4-H25=1.0103        C5-N4=1.3585         C5-C6=1.4000         C5-N13=1.3394        C6-N2=1.3781         C6-C5=1.4000         
C6-C7=1.4033         C7-C6=1.4033         C7-N9=1.3356         O8-C10=1.3721        O8-H19=0.9681        N9-C7=1.3356         
N9-C10=1.4856        N9-C11=1.4036        C10-O8=1.3721        C10-N9=1.4856        C10-H20=1.0989       C10-H21=1.0968       
C11-N9=1.4036        C11-O12=1.1940       C11-N13=1.4176       O12-C11=1.1940       N13-C5=1.3394        N13-C11=1.4176       
N13-C14=1.4496       C14-N13=1.4496       C14-H22=1.0907       C14-H23=1.0902       C14-H24=1.0894       H15-C1=1.0908        
H16-C1=1.0898        H17-C1=1.0880        H18-C3=1.0715        H19-O8=0.9681        H20-C10=1.0989       H21-C10=1.0968       
H22-C14=1.0907       H23-C14=1.0902       H24-C14=1.0894       H25-N4=1.0103        
 C  H  Rav=1.0896 sigma=0.0072  Rmin=1.0715  Rmax=1.0989     9
 C  C  Rav=1.4017 sigma=0.0017  Rmin=1.4000  Rmax=1.4033     2
 N  H  Rav=1.0103 sigma=0.0000  Rmin=1.0103  Rmax=1.0103     1
 N  C  Rav=1.3901 sigma=0.0498  Rmin=1.3291  Rmax=1.4856    11
 O  H  Rav=0.9681 sigma=0.0000  Rmin=0.9681  Rmax=0.9681     1
 O  C  Rav=1.2831 sigma=0.0891  Rmin=1.1940  Rmax=1.3721     2

 selected bond angles (degree)
 --------------------
H15-C1-N2=110.47               H16-C1-N2=110.51               H16-C1-H15=108.76              H17-C1-N2=108.15               
H17-C1-H15=109.19              H17-C1-H16=109.75              C3-N2-C1=126.94                C6-N2-C1=124.80                
C6-N2-C3=108.24                N4-C3-N2=109.95                H18-C3-N2=125.54               H18-C3-N4=124.50               
C5-N4-C3=107.80                H25-N4-C3=124.94               H25-N4-C5=127.25               C6-C5-N4=107.45                
N13-C5-N4=130.60               N13-C5-C6=121.95               C5-C6-N2=106.55                C7-C6-N2=131.23                
C7-C6-C5=122.19                N9-C7-C6=112.94                H19-O8-C10=112.33              C10-N9-C7=116.73               
C11-N9-C7=128.52               C11-N9-C10=114.66              N9-C10-O8=112.81               H20-C10-O8=106.89              
H20-C10-N9=107.50              H21-C10-O8=114.19              H21-C10-N9=105.11              H21-C10-H20=110.18             

 selected dihedral angles (degree)
 ---------------------------------
C3-N2-C1-H15=294.06           C3-N2-C1-H16= 54.46           C3-N2-C1-H17=174.61           C6-N2-C1-H15=112.65           
C6-N2-C1-H16=233.05           C6-N2-C1-H17=353.20           N4-C3-N2-C1=178.97            N4-C3-N2-C6=  0.18            
H18-C3-N2-C1=359.25           H18-C3-N2-C6=180.47           C5-N4-C3-N2=359.78            C5-N4-C3-H18=179.50           
H25-N4-C3-N2=180.36           H25-N4-C3-H18=  0.07          C6-C5-N4-C3=  0.16            C6-C5-N4-H25=179.57           
N13-C5-N4-C3=180.82           N13-C5-N4-H25=  0.22          C5-C6-N2-C1=181.11            C5-C6-N2-C3=359.92            
C7-C6-N2-C1=359.04            C7-C6-N2-C3=177.85            N2-C6-C5-N4=359.95            N2-C6-C5-N13=179.36           
C7-C6-C5-N4=181.79            C7-C6-C5-N13=  1.20           N9-C7-C6-N2=182.85            N9-C7-C6-C5=  0.50            
C10-N9-C7-C6=175.95           C11-N9-C7-C6=359.64           N9-C10-O8-H19=283.08          H20-C10-O8-H19=165.13         
H21-C10-O8-H19= 43.01         O8-C10-N9-C7=125.58           O8-C10-N9-C11=302.40          H20-C10-N9-C7=243.18          
H20-C10-N9-C11= 60.00         H21-C10-N9-C7=  0.55          H21-C10-N9-C11=177.37         
           -------------------------------------------------
          |                Final Singlepoint                |
           -------------------------------------------------

          ...................................................
          :                      SETUP                      :
          :.................................................:
          :  # basis functions                  67          :
          :  # atomic orbitals                  67          :
          :  # shells                           39          :
          :  # electrons                        74          :
          :  max. iterations                   250          :
          :  Hamiltonian                  GFN2-xTB          :
          :  restarted?                      false          :
          :  GBSA solvation                  false          :
          :  PC potential                    false          :
          :  electronic temp.         5000.0000000     K    :
          :  accuracy                    1.0000000          :
          :  -> integral cutoff          0.2500000E+02      :
          :  -> integral neglect         0.1000000E-07      :
          :  -> SCF convergence          0.1000000E-05 Eh   :
          :  -> wf. convergence          0.1000000E-03 e    :
          :  Broyden damping             0.4000000          :
          ...................................................

 iter      E             dE          RMSdq      gap      omega  full diag
   1    -42.6685461 -0.426685E+02  0.723E-05    1.75       0.0  T
   2    -42.6685461 -0.111839E-10  0.464E-05    1.75     431.3  T
   3    -42.6685461  0.238742E-11  0.357E-05    1.75     560.6  T

   *** convergence criteria satisfied after 3 iterations ***

         #    Occupation            Energy/Eh            Energy/eV
      -------------------------------------------------------------
         1        2.0000           -0.9037473             -24.5922
       ...           ...                  ...                  ...
        31        1.9998           -0.6172953             -16.7975
        32        1.9993           -0.6005746             -16.3425
        33        1.9976           -0.5808399             -15.8055
        34        1.9969           -0.5767629             -15.6945
        35        1.9872           -0.5543566             -15.0848
        36        1.9855           -0.5523699             -15.0308
        37        1.7729           -0.5070276             -13.7969 (HOMO)
        38        0.2358           -0.4426295             -12.0446 (LUMO)
        39        0.0230           -0.4039363             -10.9917
        40        0.0027           -0.3695982             -10.0573
        41        0.0000           -0.2839965              -7.7279
        42                         -0.2002306              -5.4486
       ...                                ...                  ...
        67                          0.5533629              15.0578
      -------------------------------------------------------------
                  HL-Gap            0.0643982 Eh            1.7524 eV
             Fermi-level           -0.4744929 Eh          -12.9116 eV

 SCC (total)                   0 d,  0 h,  0 min,  0.024 sec
 SCC setup                      ...        0 min,  0.000 sec (  0.853%)
 Dispersion                     ...        0 min,  0.000 sec (  0.736%)
 classical contributions        ...        0 min,  0.000 sec (  0.321%)
 integral evaluation            ...        0 min,  0.005 sec ( 20.406%)
 iterations                     ...        0 min,  0.005 sec ( 20.730%)
 molecular gradient             ...        0 min,  0.013 sec ( 56.437%)
 printout                       ...        0 min,  0.000 sec (  0.468%)

         :::::::::::::::::::::::::::::::::::::::::::::::::::::
         ::                     SUMMARY                     ::
         :::::::::::::::::::::::::::::::::::::::::::::::::::::
         :: total energy             -42.161173656813 Eh    ::
         :: gradient norm              0.006410943040 Eh/a0 ::
         :: HOMO-LUMO gap              1.752363209437 eV    ::
         ::.................................................::
         :: SCC energy               -42.668546050208 Eh    ::
         :: -> isotropic ES            0.129572394044 Eh    ::
         :: -> anisotropic ES         -0.003318014878 Eh    ::
         :: -> anisotropic XC          0.011267003634 Eh    ::
         :: -> dispersion             -0.022213571578 Eh    ::
         :: repulsion energy           0.507275297955 Eh    ::
         :: add. restraining           0.000000000000 Eh    ::
         :: total charge               1.000000000000 e     ::
         :::::::::::::::::::::::::::::::::::::::::::::::::::::

           -------------------------------------------------
          |                Property Printout                |
           -------------------------------------------------

    * Orbital Energies and Occupations

         #    Occupation            Energy/Eh            Energy/eV
      -------------------------------------------------------------
         1        2.0000           -0.9037473             -24.5922
       ...           ...                  ...                  ...
        25        2.0000           -0.6668665             -18.1464
        26        2.0000           -0.6589597             -17.9312
        27        2.0000           -0.6529152             -17.7667
        28        1.9999           -0.6327271             -17.2174
        29        1.9999           -0.6281285             -17.0922
        30        1.9998           -0.6216517             -16.9160
        31        1.9998           -0.6172953             -16.7975
        32        1.9993           -0.6005746             -16.3425
        33        1.9976           -0.5808399             -15.8055
        34        1.9969           -0.5767629             -15.6945
        35        1.9872           -0.5543566             -15.0848
        36        1.9855           -0.5523699             -15.0308
        37        1.7729           -0.5070276             -13.7969 (HOMO)
        38        0.2358           -0.4426295             -12.0446 (LUMO)
        39        0.0230           -0.4039363             -10.9917
        40        0.0027           -0.3695982             -10.0573
        41        0.0000           -0.2839965              -7.7279
        42                         -0.2002306              -5.4486
        43                         -0.1907075              -5.1894
        44                         -0.1349790              -3.6730
        45                         -0.1221878              -3.3249
        46                         -0.0721001              -1.9619
        47                         -0.0453801              -1.2349
        48                         -0.0386867              -1.0527
       ...                                ...                  ...
        67                          0.5533629              15.0578
      -------------------------------------------------------------
                  HL-Gap            0.0643982 Eh            1.7524 eV
             Fermi-level           -0.4744929 Eh          -12.9116 eV

     #   Z          covCN         q      C6AA      α(0)
     1   6 C        3.692    -0.090    22.408     6.774
     2   7 N        2.828     0.067    20.069     6.653
     3   6 C        3.050     0.050    26.838     8.496
     4   7 N        2.782    -0.064    22.471     7.040
     5   6 C        3.047     0.115    25.420     8.269
     6   6 C        3.120     0.021    27.360     8.567
     7   6 C        1.921    -0.122    34.523     9.489
     8   8 O        1.657    -0.380    20.462     6.107
     9   7 N        2.759    -0.039    21.994     6.965
    10   6 C        3.631     0.132    18.798     6.242
    11   6 C        2.720     0.318    21.603     7.609
    12   8 O        0.859    -0.337    20.458     6.064
    13   7 N        2.738    -0.051    22.231     7.003
    14   6 C        3.696    -0.070    22.013     6.711
    15   1 H        0.924     0.106     1.735     2.060
    16   1 H        0.925     0.104     1.749     2.068
    17   1 H        0.925     0.122     1.600     1.978
    18   1 H        0.926     0.117     1.637     2.001
    19   1 H        0.805     0.316     0.674     1.290
    20   1 H        0.923     0.098     1.799     2.098
    21   1 H        0.924     0.076     2.020     2.223
    22   1 H        0.924     0.081     1.973     2.196
    23   1 H        0.924     0.081     1.971     2.196
    24   1 H        0.925     0.125     1.574     1.962
    25   1 H        0.860     0.224     0.993     1.561

 Mol. C6AA /au·bohr⁶  :       6570.794685
 Mol. C8AA /au·bohr⁸  :     151396.289424
 Mol. α(0) /au        :        123.621580


Wiberg/Mayer (AO) data.
largest (>0.10) Wiberg bond orders for each atom

 ---------------------------------------------------------------------------
     #   Z sym  total        # sym  WBO       # sym  WBO       # sym  WBO
 ---------------------------------------------------------------------------
     1   6 C    3.925 --     2 N    0.989    17 H    0.969    16 H    0.963
                            15 H    0.959
     2   7 N    3.644 --     3 C    1.387     6 C    1.134     1 C    0.989
     3   6 C    3.806 --     2 N    1.387     4 N    1.254    18 H    0.955
     4   7 N    3.584 --     3 C    1.254     5 C    1.202    25 H    0.920
     5   6 C    3.907 --     6 C    1.278    13 N    1.236     4 N    1.202
     6   6 C    3.896 --     5 C    1.278     7 C    1.240     2 N    1.134
     7   6 C    2.784 --     9 N    1.358     6 C    1.240
     8   8 O    2.025 --    10 C    1.059    19 H    0.884
     9   7 N    3.591 --     7 C    1.358    11 C    1.065    10 C    0.916
                            12 O    0.116
    10   6 C    3.919 --     8 O    1.059    21 H    0.957    20 H    0.948
                             9 N    0.916
    11   6 C    3.938 --    12 O    1.743     9 N    1.065    13 N    1.033
    12   8 O    2.079 --    11 C    1.743    13 N    0.133     9 N    0.116
    13   7 N    3.557 --     5 C    1.236    11 C    1.033    14 C    0.975
                            12 O    0.133
    14   6 C    3.927 --    13 N    0.975    23 H    0.971    22 H    0.970
                            24 H    0.965
    15   1 H    0.984 --     1 C    0.959
    16   1 H    0.986 --     1 C    0.963
    17   1 H    0.985 --     1 C    0.969
    18   1 H    0.985 --     3 C    0.955
    19   1 H    0.899 --     8 O    0.884
    20   1 H    0.985 --    10 C    0.948
    21   1 H    0.990 --    10 C    0.957
    22   1 H    0.991 --    14 C    0.970
    23   1 H    0.991 --    14 C    0.971
    24   1 H    0.984 --    14 C    0.965
    25   1 H    0.949 --     4 N    0.920
 ---------------------------------------------------------------------------

Topologies differ in total number of bonds
Writing topology from bond orders to xtbtopo.mol

molecular dipole:
                 x           y           z       tot (Debye)
 q only:        3.090      -1.286      -0.048
   full:        3.428      -2.021      -0.166      10.124
molecular quadrupole (traceless):
                xx          xy          yy          xz          yz          zz
 q only:        3.464      -3.069      13.095       2.254       0.811     -16.559
  q+dip:       -1.401      -5.454      15.055       1.013      -0.349     -13.655
   full:       -2.256      -5.194      13.983       1.294      -0.670     -11.726

           -------------------------------------------------
          |                Geometry Summary                 |
           -------------------------------------------------

      molecular mass/u    :      195.1988581
   center of mass at/Å    :       -0.1550280      -0.0069838      -0.0228487
  moments of inertia/u·Å² :        0.4322234E+03   0.8909481E+03   0.1290589E+04
rotational constants/cm⁻¹ :        0.3900212E-01   0.1892100E-01   0.1306197E-01

 * 24 selected distances

     #   Z          #   Z                                           value/Å
     1   6 C        2   7 N                                       1.4364878
     2   7 N        3   6 C                                       1.3291096
     3   6 C        4   7 N                                       1.3573635
     4   7 N        5   6 C                                       1.3585081
     2   7 N        6   6 C                                       1.3780608
     5   6 C        6   6 C                                       1.3999942
     7   6 C        9   7 N                                       1.3355727
     8   8 O       10   6 C                                       1.3721364
     9   7 N       11   6 C                                       1.4035776
    11   6 C       12   8 O                                       1.1939705
     5   6 C       13   7 N                                       1.3394096
    11   6 C       13   7 N                                       1.4176180
    13   7 N       14   6 C                                       1.4495978 (max)
     1   6 C       15   1 H                                       1.0907867
     1   6 C       16   1 H                                       1.0897578
     1   6 C       17   1 H                                       1.0879697
     3   6 C       18   1 H                                       1.0715086
     8   8 O       19   1 H                                       0.9681127 (min)
    10   6 C       20   1 H                                       1.0989486
    10   6 C       21   1 H                                       1.0968131
    14   6 C       22   1 H                                       1.0906924
    14   6 C       23   1 H                                       1.0902209
    14   6 C       24   1 H                                       1.0894211
     4   7 N       25   1 H                                       1.0103237

 * 6 distinct bonds (by element types)

   Z      Z             #   av. dist./Å        max./Å        min./Å
   1 H    6 C           9     1.0895688     1.0989486     1.0715086
   6 C    6 C           1     1.3999942     1.3999942     1.3999942
   1 H    7 N           1     1.0103237     1.0103237     1.0103237
   6 C    7 N          10     1.3805306     1.4495978     1.3291096
   1 H    8 O           1     0.9681127     0.9681127     0.9681127
   6 C    8 O           2     1.2830534     1.3721364     1.1939705


optimized geometry written to: xtbopt.xyz


           -------------------------------------------------
          | TOTAL ENERGY              -42.161173656813 Eh   |
          | GRADIENT NORM               0.006410943040 Eh/α |
          | HOMO-LUMO GAP               1.752363209437 eV   |
           -------------------------------------------------

------------------------------------------------------------------------
 * finished run on 2024/06/05 at 19:59:14.802     
------------------------------------------------------------------------
 total:
 * wall-time:     0 d,  0 h,  0 min,  0.210 sec
 *  cpu-time:     0 d,  0 h,  0 min,  0.182 sec
 * ratio c/w:     0.864 speedup
 SCF:
 * wall-time:     0 d,  0 h,  0 min,  0.025 sec
 *  cpu-time:     0 d,  0 h,  0 min,  0.025 sec
 * ratio c/w:     1.000 speedup
 ANC optimizer:
 * wall-time:     0 d,  0 h,  0 min,  0.151 sec
 *  cpu-time:     0 d,  0 h,  0 min,  0.144 sec
 * ratio c/w:     0.956 speedup

