25
 energy: -42.169283534632 gnorm: 0.001849820883 xtb: 6.6.1 (8d0f1dd)
C            3.20283782984448        1.17279652361060        0.01841416475977
N            2.21380127057629        0.13375813657208        0.00029299937016
C            2.42791380106730       -1.20104341421972       -0.00419222470301
N            1.31054829103502       -1.89906805200519       -0.00408565325959
C            0.31185549320729       -0.99413460340337        0.00162804660180
C            0.85640256479111        0.29932962959506        0.00546545828254
C            0.02926007840112        1.47543854774237       -0.00271133929006
O            0.42133506860128        2.62410244157779       -0.01456919519481
N           -1.32955266967273        1.14836904065101        0.00162903004290
C           -2.28309017197502        2.24144016090384       -0.00196354445570
C           -1.88935080327952       -0.12474081174574        0.00342467645993
O           -3.08608899959429       -0.27623467921508        0.00545592242489
N           -1.02007599286912       -1.21449957685545        0.00150417500905
C           -1.55595761514457       -2.55485503600663       -0.00138058920124
H            3.71330599452899        1.19505766598049        0.98436408240379
H            3.94548187626634        1.00041001482874       -0.76178015520836
H            2.71483624787034        2.13433061611781       -0.14422305060860
H            3.40207890103917       -1.65005087691369       -0.00894358939002
H           -1.72974490206192        3.18000602869957        0.00532987751519
H           -2.91662457770328        2.18400972940973       -0.88979523976804
H           -2.93022817070319        2.17688089139279        0.87535947067308
H           -1.20466598705845       -3.09684685844854        0.87795573088624
H           -1.21996811993189       -3.08737023694220       -0.89258409172490
H           -2.64377254721307       -2.49171758923327        0.00779481118410
H            2.41989465407833       -4.55712915049304       -0.03121815490911
