25
 energy: 0.000000000000 xtb: 6.6.1 (8d0f1dd)
C            3.23720132972391        1.16630909158653        0.08434468864950
N            2.29877796055224        0.07527476373246        0.03981602671198
C            2.58028186251803       -1.21425391179017        0.03006175752192
N            1.43813944744728       -1.93419254010258        0.00098261751768
C            0.39035684826767       -1.05887462812143       -0.00790371763344
C            0.93510047688824        0.21347817468824        0.01709077332874
C            0.09450143016486        1.40504290868848       -0.00410946993748
O            0.49712746915594        2.54126690785742       -0.00342325656480
N           -1.25076628431515        1.06271869620815       -0.03085477937476
C           -2.21907191394203        2.15522079838987       -0.05001256521996
C           -1.81739470187490       -0.20012724136556       -0.04692818139228
O           -2.99983858926755       -0.37846413507442       -0.07008877579474
N           -0.92618577614240       -1.30210203518959       -0.03682761236648
C           -1.46982251276835       -2.64643077634382       -0.06029819901142
H            3.71247229913541        1.21471443890471        1.06488839270555
H            4.00791460421487        1.03430799217987       -0.67357688121503
H            2.69909982127087        2.09770098766290       -0.09130154035862
H            3.56654087521359       -1.63682977417947        0.04233139674524
H           -1.67107945562430        3.09322822573871       -0.02552706696334
H           -2.82428927394145        2.09428605349656       -0.95318074103337
H           -2.87644002486466        2.07745706351925        0.81450059976605
H           -1.17061985538665       -3.19584861009707        0.83242224714061
H           -1.14560246782873       -3.17511580834413       -0.95688266944647
H           -2.55549768731684       -2.55659960601237       -0.07459039105944
H            1.38130842369251       -2.94313824728853       -0.01389874052104
25
 energy: -5.286731560662 xtb: 6.6.1 (8d0f1dd)
C            3.21476252512188        1.24893916167393        0.09156648084246
N            2.34081617613439        0.10069434284121        0.03173961849121
C            2.61862377097258       -1.26329681427390        0.03478023802059
N            1.41968193175541       -1.95909196424776        0.00594653102824
C            0.40593505010094       -1.08025001200111       -0.01085741861124
C            0.94663150603597        0.19458320693134        0.00630733202314
C            0.13652038750728        1.33906012228957       -0.02047375201140
O            0.52867119560987        2.50628734774902       -0.05430331465138
N           -1.25759837402510        1.02481171681896       -0.03124761220931
C           -2.18641432928020        2.13784713548739       -0.04512637715254
C           -1.82167293831020       -0.21270823243826       -0.04869881082099
O           -3.02315202968246       -0.39438831730514       -0.07003081175095
N           -0.94082564319494       -1.31162756232750       -0.04047361546570
C           -1.49948299845315       -2.64147208201282       -0.06330469435694
H            3.72325865073973        1.33377353946113        1.06074029623880
H            3.99166741898284        1.19425560340548       -0.68137462774415
H            2.59332388979472        2.13577758453748       -0.05552440682932
H            3.58390606186237       -1.70686179694191        0.04637500479732
H           -1.61963730109781        3.06381860896147       -0.02581698103942
H           -2.78573556326712        2.10595810491835       -0.95005028654289
H           -2.82454818247047        2.09338901828650        0.83288542332502
H           -1.21762821031455       -3.20134173467337        0.83071623296846
H           -1.18648169303181       -3.18410418825014       -0.95787520279423
H           -2.58273122532241       -2.52142533163443       -0.08079308872556
H            1.32296331716940       -2.95938578805701       -0.00868549429979
25
 energy: -0.890506493730 xtb: 6.6.1 (8d0f1dd)
C            3.16622198203014        1.31040665335892        0.09412943416811
N            2.37748241760317        0.07727166127980        0.04423914895527
C            2.64094985643686       -1.30157208879136        0.04340905492700
N            1.43341016084288       -1.99853204232501        0.01758369159054
C            0.42073471831745       -1.11682245757668       -0.00735330384225
C            0.97485849617142        0.14995936080604        0.00542310243075
C            0.16220325657552        1.28544216334647       -0.04542414970560
O            0.55383538572926        2.44678238610045       -0.14170602143541
N           -1.24152334260162        0.99535883359099       -0.03297426404828
C           -2.14623816457053        2.12767230600297       -0.04199751421578
C           -1.81261678098648       -0.23558138838545       -0.05029914198023
O           -3.01399043666454       -0.41983733187330       -0.07099992480892
N           -0.93192413999635       -1.33594909755573       -0.04271813849842
C           -1.52659941260137       -2.64936082144221       -0.06641056511127
H            3.70196459898664        1.44915643098763        1.04648436341606
H            3.94015028572320        1.34311400748295       -0.69242134374781
H            2.46966643009212        2.14414321105684       -0.02686886389035
H            3.59174488590332       -1.77397943697647        0.05033135313221
H           -1.56856990779093        3.04352248839696       -0.02737154354322
H           -2.74356515328404        2.12159226964858       -0.94535278198623
H           -2.76891930653547        2.11048084814076        0.84540593363104
H           -1.26890600351900       -3.21661788119495        0.82963784751078
H           -1.23049707911505       -3.20147285858115       -0.96003407266701
H           -2.60640902925387       -2.49114047518941       -0.08816551044854
H            1.29669419383922       -2.99693854659200        0.00822148531319
25
 energy: 5.788734224525 xtb: 6.6.1 (8d0f1dd)
C            3.11382699674971        1.37553073167049        0.09810660708178
N            2.41264840403907        0.06622909032463        0.06295116423456
C            2.66910534283865       -1.32812008250666        0.05769273630770
N            1.45968625795482       -2.03224481211275        0.02961144164473
C            0.43936006819481       -1.15398931060748       -0.00452415116714
C            1.00219093768880        0.11009364759535        0.00258111770786
C            0.18716817221812        1.23946630009830       -0.08508280650187
O            0.56716224178511        2.39661389050468       -0.26350395658147
N           -1.21842090062041        0.97084359729438       -0.03746724173743
C           -2.10335635130079        2.12085095301205       -0.03762569545440
C           -1.79368196753105       -0.25432863447040       -0.05325759969151
O           -2.99458939403038       -0.42888277047372       -0.06972846840498
N           -0.91977178201445       -1.36179174492489       -0.04646698551271
C           -1.55276461377824       -2.65891828279029       -0.06957255184737
H            3.66333002051485        1.56502102935680        1.03475033406461
H            3.87221122898848        1.48649173579198       -0.70359488750478
H            2.35121302715139        2.15247926308019        0.00096105469105
H            3.60231507165415       -1.83459348058050        0.05929683662491
H           -1.51517088868490        3.02630566429722       -0.02827312269858
H           -2.70120793164740        2.14001497348667       -0.93725727728165
H           -2.70886311278838        2.12678651077993        0.85992189477370
H           -1.31812804965258       -3.23196070021837        0.82893282954943
H           -1.27309893292586       -3.22200246953863       -0.96094239328439
H           -2.62873228674564       -2.46374900674876       -0.09606974106501
H            1.33107012057821       -3.03652420635321        0.03104895460570
25
 energy: 13.806456719639 xtb: 6.6.1 (8d0f1dd)
C            3.06249441144802        1.44661401895383        0.10179928764910
N            2.42481594818829        0.06242905940181        0.04564614132813
C            2.69514827122026       -1.33567842151689        0.08206438617973
N            1.49178655589521       -2.05216779159456        0.04369183335628
C            0.45529339390912       -1.18696725056023       -0.00406833770953
C            1.01913364774670        0.07872598772672       -0.01112167840440
C            0.20167961453346        1.20229333036752       -0.14008744666792
O            0.56906959215951        2.35437262774927       -0.39505830176526
N           -1.19640051485919        0.95130041550699       -0.04212196175597
C           -2.06213298538025        2.11719998145686       -0.03215270509260
C           -1.77493580986544       -0.26902036126495       -0.05446520816315
O           -2.97670771190814       -0.42428530185159       -0.06437852080410
N           -0.91015261016402       -1.38670999388916       -0.04980159805690
C           -1.57919888335835       -2.66761633756025       -0.07456139413733
H            3.61745299672507        1.67614414252318        1.02362053037508
H            3.79497465053881        1.62379763944182       -0.71426848617181
H            2.23934436456756        2.16453101819103        0.02690246491796
H            3.61110345599019       -1.88258894920570        0.07013417974364
H           -1.46222151950219        3.01157626175500       -0.02958183293869
H           -2.65975992706523        2.15990393298440       -0.92758475818449
H           -2.64895905473629        2.14378691476515        0.87577654820350
H           -1.36790758081278       -3.24709265944051        0.82580041688903
H           -1.31322232403858       -3.24056521822319       -0.96352763262543
H           -2.65057112478081       -2.43733566001505       -0.10841870196435
H            1.39111077511857       -3.06072455772937        0.04966923650545
25
 energy: 23.896857554840 xtb: 6.6.1 (8d0f1dd)
C            3.02801657306886        1.51609927196337        0.11992461564259
N            2.43743657313607        0.05315459435722        0.00740625642036
C            2.71707545122633       -1.34621627807106        0.12698079319926
N            1.51697603215546       -2.07547847285122        0.07128071988811
C            0.46957093771488       -1.21864997355520       -0.00744588989280
C            1.03626093340340        0.04824486665489       -0.04355447492670
C            0.21878632952041        1.16836068237500       -0.20686204257880
O            0.57173791857010        2.31164122191133       -0.52863351443392
N           -1.17151420473789        0.93343729957285       -0.04839913989979
C           -2.01978594718453        2.11372726732767       -0.02448274943922
C           -1.75631046277084       -0.28164290183040       -0.05250469338509
O           -2.95991447629907       -0.41641183932905       -0.04325654722734
N           -0.90048942907279       -1.40992686223306       -0.05408151652108
C           -1.60517391307834       -2.67517785349078       -0.07988248292664
H            3.56885954468846        1.77389549154611        1.02332874019733
H            3.71224115224109        1.75137259122036       -0.71928443605012
H            2.14951689512759        2.17488766163343        0.08876062601082
H            3.61760531758486       -1.92003644117560        0.10682136463604
H           -1.40998966769846        2.99840903432410       -0.03125843176740
H           -2.62011145999774        2.17653911963215       -0.91285600823584
H           -2.58754952034999        2.15800982636389        0.89375724957336
H           -1.41655700659914       -3.26025801470193        0.82234950326867
H           -1.35291445760679       -3.25874860006976       -0.96588407982167
H           -2.67180639076971       -2.41202749939698       -0.12136147469844
H            1.43631520390671       -3.08788052560507        0.08674095743083
25
 energy: 36.208288555106 xtb: 6.6.1 (8d0f1dd)
C            2.99075599056030        1.58969317040189        0.17286534360828
N            2.44547324913147        0.03436534116733       -0.04071462148104
C            2.71635622140572       -1.35728317808431        0.18148219049699
N            1.52141763744573       -2.09734614600844        0.11773847568629
C            0.47524303411248       -1.24553340253105       -0.01195713044639
C            1.04640531395667        0.01992700093786       -0.09217930243604
C            0.23448661315639        1.14052114167807       -0.28671563202357
O            0.58685362848109        2.26490187098381       -0.66810767004458
N           -1.14512066119350        0.92236588171984       -0.05946422028942
C           -1.97782670797450        2.11200731405589       -0.01445563435674
C           -1.74067879806448       -0.29046553740704       -0.05074960320588
O           -2.94699355721755       -0.40327831554475       -0.01553122882320
N           -0.89800870008136       -1.42925105320111       -0.05869740993219
C           -1.63238991751122       -2.68193647110803       -0.08533754508816
H            3.56950147880790        1.88953449101051        1.02891657431298
H            3.58799913906510        1.85557663062600       -0.71568728704088
H            2.08204970578901        2.19217211851432        0.19720674214845
H            3.60754465204785       -1.96010211022851        0.14708546178555
H           -1.36095757154531        2.98848381902277       -0.03348919009092
H           -2.58920476472001        2.18992226434665       -0.88792966523643
H           -2.52120066935540        2.16459040378275        0.91646627424641
H           -1.46341746792859       -3.27144616023874        0.81837240665270
H           -1.39528845105178       -3.27609001667616       -0.96842500277926
H           -2.69380433401001       -2.38956518477357       -0.13395879493730
H            1.47944656984110       -3.11177368563685        0.12984252878904
25
 energy: 48.815198126535 xtb: 6.6.1 (8d0f1dd)
C            3.03186496596997        1.90912306939752        0.22717353895677
N            2.42254418831903       -0.14363676847007       -0.12680184862131
C            2.65552625933430       -1.41507504271681        0.13233156417403
N            1.48698453555724       -2.16114440495722        0.15831308586156
C            0.45409958891582       -1.28762417394112       -0.01383533974778
C            1.05583219267744       -0.04457372760999       -0.15211262992636
C            0.25448928095091        1.11463057769161       -0.37124498837980
O            0.60909202295387        2.19364379829457       -0.80195262817262
N           -1.10940362385399        0.91149395420769       -0.06862750543905
C           -1.93453973989186        2.10872148811321       -0.00086670109614
C           -1.72897808430469       -0.30412431516557       -0.04549895534900
O           -2.93541477254648       -0.38966535995101        0.01684582963665
N           -0.91143808300473       -1.45413443572900       -0.06194566463409
C           -1.66766700566778       -2.69317741054313       -0.09283844643104
H            3.64414644205189        2.08543371186698        1.04883809450137
H            3.51579536675966        2.02902812505913       -0.73726918565791
H            2.05217444319703        2.27188473946549        0.34689465436102
H            3.57769569744903       -1.97228943229467        0.22060845549565
H           -1.31357523101645        2.97851770027555       -0.03724707413531
H           -2.57939416237534        2.19314255246835       -0.84444735900070
H           -2.45118850670502        2.16900309017610        0.94497075914818
H           -1.51758961402674       -3.28460604012552        0.81281196243138
H           -1.43392096657127       -3.29170034445420       -0.97318147355013
H           -2.72012395922248       -2.36851733387923       -0.15552226297168
H            1.49040951821926       -3.16704127451676        0.18913106600950
25
 energy: 46.311176028031 xtb: 6.6.1 (8d0f1dd)
C            3.02569844535767        2.03041377968848        0.26487240768834
N            2.41008862553349       -0.18415167124694       -0.16756351737712
C            2.62990244188900       -1.43925621828260        0.11762235962910
N            1.47066038145987       -2.18940287300498        0.18558036013798
C            0.44549191437989       -1.31451772061477       -0.02304750140870
C            1.05001277213443       -0.07669098625546       -0.20275968056943
C            0.26548967812394        1.09281797438381       -0.44627152466610
O            0.63683199496475        2.14375159385852       -0.91885831463378
N           -1.08892496248431        0.89844071527256       -0.08511513509524
C           -1.89939829152989        2.10649466038411        0.01330417124829
C           -1.71941443017292       -0.31421382257067       -0.04306813018043
O           -2.92649159228909       -0.38133540810635        0.05028358521418
N           -0.91911621847468       -1.47472274079486       -0.07043434358808
C           -1.69924414795651       -2.69870334082453       -0.10045126228959
H            3.71445690755132        2.19070507520812        1.02804746098077
H            3.41880226404514        2.16358612977232       -0.73814066131273
H            2.03710002659671        2.30491013496684        0.47831756727257
H            3.56487345049345       -1.95114164854193        0.27006546528019
H           -1.26938103603228        2.96664670487433       -0.04424349285813
H           -2.58802667888707        2.19269312899269       -0.79309311910256
H           -2.38243682675332        2.17117113591793        0.97829009824141
H           -1.56886710257057       -3.29292389208138        0.80742382969909
H           -1.47617277342225       -3.30725660625121       -0.97680120293317
H           -2.74342260676941       -2.34438385174210       -0.17221700450761
H            1.48253455437972       -3.19509570315945        0.24870537490405
25
 energy: 44.006954508704 xtb: 6.6.1 (8d0f1dd)
C            3.02980391294578        2.13114278212703        0.32750221288567
N            2.40374296649860       -0.22937173267663       -0.21360450968584
C            2.61131759394122       -1.47666226477741        0.09708441293771
N            1.44904425991841       -2.21850526031198        0.20186782796977
C            0.43415807647677       -1.33993676197185       -0.03661437477528
C            1.04754982253910       -0.11073199825799       -0.25104916815247
C            0.27772272851496        1.06733269359091       -0.51678449421362
O            0.66306108711816        2.09189463691620       -1.02988657614997
N           -1.06754675044801        0.88572297506048       -0.10173067377860
C           -1.86514184575522        2.10067758152814        0.02819275823778
C           -1.71297371677496       -0.32229628875323       -0.03522716175137
O           -2.91932186194536       -0.37130493433696        0.08583978113165
N           -0.93024906676677       -1.49324804603548       -0.07995617419383
C           -1.73136017912735       -2.70299978396066       -0.10961815726088
H            3.81583798589995        2.24448485544925        1.00697446206399
H            3.31694052393751        2.28058889609318       -0.71185276882307
H            2.03990302401360        2.33158686677997        0.61688749072268
H            3.55378505516745       -1.94711349257697        0.30204151064680
H           -1.22820212257996        2.95379775332351       -0.05040158788276
H           -2.59769477788430        2.19272878292083       -0.73876867154453
H           -2.31427710000547        2.16668206708162        1.01241217280981
H           -1.62036769259180       -3.29927155813283        0.80091658694285
H           -1.51753163594473       -3.32134126277433       -0.98140069661328
H           -2.76742921143580       -2.32447601453256       -0.19496433418729
H            1.45211649462099       -3.22256117984214        0.30171204274799
25
 energy: 42.509233462741 xtb: 6.6.1 (8d0f1dd)
C            3.04090299655439        2.22549157017036        0.40827090819042
N            2.40203552374448       -0.28277412978306       -0.26480293181864
C            2.59802803283778       -1.52506126903944        0.06678134641786
N            1.41999058885819       -2.24078619105982        0.21753904797895
C            0.41775294506025       -1.36120161121499       -0.04983251367939
C            1.04811290278999       -0.14690936268024       -0.29058303022617
C            0.28906215825512        1.03364431273095       -0.58048815957930
O            0.68867961806792        2.02777509303909       -1.13389336055247
N           -1.04876349320052        0.87242574419326       -0.11902563077418
C           -1.83189058292123        2.09282669540720        0.04463578911393
C           -1.71025053458044       -0.32331631908928       -0.02487791868853
O           -2.91438643523322       -0.35607570804599        0.12051035767923
N           -0.94648997146218       -1.50638685635476       -0.09027666390723
C           -1.76343316099171       -2.70560712597279       -0.11929425417233
H            3.91050247366326        2.27323272952771        1.00009059092698
H            3.19992046223872        2.35327931929280       -0.65382215434852
H            2.05304481788534        2.35391614041465        0.75759133308529
H            3.54339446135016       -1.99961692987735        0.25453245613010
H           -1.18826982750031        2.93970471029108       -0.05531522867087
H           -2.60402379063717        2.19469767811845       -0.68310628386465
H           -2.24847961061204        2.15831807568079        1.04724876274466
H           -1.67105363449899       -3.30273615781734        0.79463586161912
H           -1.55828563547812       -3.33454828122672       -0.98554488183927
H           -2.79104581566149       -2.30610927927126       -0.22181673141416
H            1.39294401121853       -3.24265105841818        0.31949969444155
25
 energy: 41.644324690026 xtb: 6.6.1 (8d0f1dd)
C            3.03888847778870        2.34259335119804        0.46934711246136
N            2.39784460918624       -0.32937374755140       -0.32442582055779
C            2.58221364916631       -1.56800279133170        0.03028933154416
N            1.38929183796274       -2.25913613394663        0.21873281133246
C            0.40090947919282       -1.37461359754820       -0.06915655053110
C            1.04452377674723       -0.17224659451516       -0.34019543107289
C            0.29432769529188        1.01382129363645       -0.65503395355776
O            0.69798462236570        1.97474569620477       -1.26238494203443
N           -1.03072669013380        0.86842267694429       -0.14432570497556
C           -1.80209927632405        2.08736754049463        0.06469224216597
C           -1.70472847112478       -0.31736541267027       -0.01967486406976
O           -2.90427950436984       -0.33833429453851        0.15284282658230
N           -0.96343751730748       -1.51401484566654       -0.10314809685801
C           -1.79226895799896       -2.70649119590185       -0.13186329901183
H            3.91546193369249        2.36329986329957        1.06307638795744
H            3.09779126057465        2.45010635596413       -0.60295126266157
H            2.05873834627765        2.38072419849643        0.87840927054526
H            3.52827349230778       -2.04798807122813        0.20577492598823
H           -1.15075918654887        2.92677841963338       -0.05585550844111
H           -2.60904287356837        2.19947792675870       -0.62551622212078
H           -2.18578647114063        2.14261019913481        1.08399558615549
H           -1.72166688845284       -3.30277685247484        0.78605758287820
H           -1.59696545114080       -3.34696782594753       -0.99174639793097
H           -2.80959532753514       -2.29333993780687       -0.25515836437326
H            1.32781291693348       -3.25628196412195        0.32715996879669
25
 energy: 41.022989392238 xtb: 6.6.1 (8d0f1dd)
C            3.05562395077314        2.46309174695600        0.49503722141092
N            2.39246891660476       -0.37596562167888       -0.38008816310805
C            2.56329096788683       -1.61284297910872       -0.01099066707261
N            1.36045442502102       -2.28763313506108        0.19503266469487
C            0.38396461781659       -1.38957419190846       -0.08666133278748
C            1.03941606315739       -0.19734141232216       -0.38783910081063
C            0.29448711235007        0.98792177564756       -0.70578928393989
O            0.68624702379197        1.94523408488943       -1.32331998356720
N           -1.01961977973174        0.86451396198425       -0.16392633958894
C           -1.77632398262870        2.08348166788740        0.08721274575285
C           -1.70664039743438       -0.30892349591319       -0.01886482088405
O           -2.90142844261865       -0.31989561270870        0.18482302820674
N           -0.98004754691655       -1.51379038060979       -0.10434151290997
C           -1.81822516780332       -2.70489039084543       -0.14441541468455
H            3.94932577499053        2.48412722940469        1.06708894362519
H            3.02006202072644        2.58462120960285       -0.57320558796711
H            2.09947346180212        2.42126416432792        0.95703280464720
H            3.50461471310392       -2.10131491886234        0.16058445668209
H           -1.11827040330119        2.91894713950897       -0.05676666937033
H           -2.61343763406072        2.20494352729923       -0.56760521434249
H           -2.12645239651625        2.12269543120924        1.12015754138178
H           -1.77275507018628       -3.30217359931619        0.77562515109919
H           -1.63316373340667       -3.35568299814368       -0.99902453284840
H           -2.82430070894692       -2.28498254493116       -0.29307716224886
H            1.27006499799828       -3.28134267097917        0.33294529813703
25
 energy: 40.230606087152 xtb: 6.6.1 (8d0f1dd)
C            3.07002173235913        2.57268977109783        0.52787022047793
N            2.39167146333874       -0.42297782829679       -0.42555748667165
C            2.54695904433089       -1.65898834983449       -0.05318641991681
N            1.33854984309096       -2.31868410235753        0.16500454251176
C            0.37297784218940       -1.39812518914853       -0.08902988487799
C            1.03776171318394       -0.22086559579923       -0.42841068819886
C            0.28506585427713        0.96430604083566       -0.72672307929554
O            0.63852704681458        1.92864257380975       -1.34700484839423
N           -1.01503381039600        0.86155586916766       -0.16438783514672
C           -1.75145053271458        2.08430447872025        0.11346365784094
C           -1.71016335895549       -0.30359778834587       -0.00461830091601
O           -2.90369008618773       -0.31193402997253        0.21039583570698
N           -0.99297858739494       -1.51360074325514       -0.09650477382914
C           -1.83878358656519       -2.70442860004469       -0.15910649996344
H            3.95713641448130        2.61830634846334        1.10347608362972
H            3.11276119619204        2.62074031684225       -0.53750770972878
H            2.10810953767166        2.47239511644109        1.00124522198524
H            3.48198199419737       -2.15585758173678        0.12021450693857
H           -1.08327218919706        2.90971520604789       -0.05824129437528
H           -2.61223114397217        2.21639093384423       -0.51016469213792
H           -2.06838839821476        2.10658436466141        1.15704225238182
H           -1.82207229984460       -3.30089449409126        0.76365837778725
H           -1.66170458909006       -3.36476398051397       -1.00883466582827
H           -2.83462653141561       -2.27935695106498       -0.33314762786613
H            1.21578227212524       -3.30880667308307        0.30581229810707
25
 energy: 39.833942565569 xtb: 6.6.1 (8d0f1dd)
C            3.10496285464494        2.67942968547327        0.53319322909919
N            2.39008869047726       -0.47824813312811       -0.44984549167331
C            2.52584107972941       -1.71341571203941       -0.08122554215259
N            1.31187049987325       -2.36086044373510        0.14576098160083
C            0.35997747935162       -1.41848804182783       -0.08398248035566
C            1.03659651457162       -0.25423555386581       -0.44237965646009
C            0.30187276600430        0.95062923011953       -0.69862884623309
O            0.69426078896830        1.95211184626880       -1.22907033661225
N           -1.01296865915758        0.85648245090936       -0.17860576228333
C           -1.72664453463048        2.08182139369802        0.13770454414599
C           -1.71267967416331       -0.29869364789819        0.00642766331232
O           -2.90567333179267       -0.29150691189127        0.21936917847409
N           -1.00393709580021       -1.51033839008689       -0.08391376480589
C           -1.84883213704165       -2.70501452611457       -0.17699781896548
H            3.96780079999902        2.75263395345175        1.13742518062974
H            3.24595643186914        2.63987515848304       -0.51226912899217
H            2.10726394078232        2.57480549942751        0.94949830320714
H            3.45139770393781       -2.21890723366565        0.10298922302815
H           -1.04663567096679        2.89168473308149       -0.06011197769641
H           -2.61226552417736        2.22442154428762       -0.44960141387986
H           -2.00682034858570        2.08974565330505        1.19126221698645
H           -1.87009698956213       -3.29614870198081        0.75030002416258
H           -1.63394351109409       -3.37326984263296       -1.01432352723445
H           -2.83513856095619       -2.28299494938937       -0.37929461263876
H            1.17047835314801       -3.35112252114190        0.28320891546520
25