25
 energy: 0.000000000000 xtb: 6.6.1 (8d0f1dd)
C            3.23720163006194        1.16630919979326        0.08434469647475
N            2.29877817382611        0.07527477071623        0.03981603040599
C            2.58028210190900       -1.21425402444508        0.03006176031096
N            1.43813958087363       -1.93419271955128        0.00098261760884
C            0.39035688448383       -1.05887472636071       -0.00790371836672
C            0.93510056364412        0.21347819449412        0.01709077491437
C            0.09450143893243        1.40504303904423       -0.00410947031874
O            0.49712751527797        2.54126714362870       -0.00342325688240
N           -1.25076640035757        1.06271879480407       -0.03085478223738
C           -2.21907211982101        2.15522099834493       -0.05001256985998
C           -1.81739487048744       -0.20012725993278       -0.04692818574614
O           -2.99983886758376       -0.37846417018721       -0.07008878229737
N           -0.92618586207120       -1.30210215599479       -0.03682761578324
C           -1.46982264913417       -2.64643102187190       -0.06029820460571
H            3.71247264356769        1.21471455160235        1.06488849150277
H            4.00791497605742        1.03430808813993       -0.67357694370751
H            2.69910007168542        2.09770118228144       -0.09130154882931
H            3.56654120610678       -1.63682992603973        0.04233140067262
H           -1.67107961066214        3.09322851271934       -0.02552706933167
H           -2.82428953597071        2.09428624779827       -0.95318082946668
H           -2.87644029173232        2.07745725625962        0.81450067533302
H           -1.17061996399332       -3.19584890659852        0.83242232437030
H           -1.14560257411436       -3.17511610292205       -0.95688275822323
H           -2.55549792440841       -2.55659984320617       -0.07459039797972
H            1.38130855184625       -2.94313852034425       -0.01389874181052
25
 energy: -5.417723694881 xtb: 6.6.1 (8d0f1dd)
C            3.24312325536100        1.17969807822968        0.08677249659589
N            2.30859762817951        0.09491542047655        0.03788362245463
C            2.59951068966668       -1.23380815540683        0.03015957532290
N            1.42710472549906       -1.94145389277543        0.00082561868261
C            0.39623422940727       -1.05725817283130       -0.00827508833424
C            0.93063340987877        0.22125587628401        0.01530443119043
C            0.10256871106116        1.39477153151146       -0.00525964084347
O            0.49977207482450        2.56039872713836       -0.00460299498831
N           -1.25952621553302        1.04996785321169       -0.03110229665518
C           -2.21894799873642        2.14669366561759       -0.04976963035899
C           -1.82347322831645       -0.20098915356896       -0.04732579862815
O           -3.02021127371768       -0.38273590477419       -0.07041454290328
N           -0.93451462386346       -1.30159422065154       -0.03711515190337
C           -1.47320046354038       -2.64327984226186       -0.06033042359799
H            3.72188844892780        1.22905592507870        1.06849048011727
H            4.01181716525748        1.04856147373075       -0.67626554209734
H            2.69522848130123        2.10373404676327       -0.08866895707789
H            3.57724818361089       -1.66114950693879        0.04275925181912
H           -1.65656387381366        3.07747910728397       -0.02540458240641
H           -2.82443359285226        2.09359107358941       -0.95411476824936
H           -2.87635802268461        2.07707775634487        0.81624412335174
H           -1.17033314660540       -3.19471647964012        0.83182035490951
H           -1.14508234805940       -3.17422345802501       -0.95609260360272
H           -2.55846988019315       -2.55170672329807       -0.07482242468352
H            1.35960233287675       -2.94525642291619       -0.01366161196663
25
 energy: -6.562694463202 xtb: 6.6.1 (8d0f1dd)
C            3.24760521130633        1.19037040603572        0.08913299669157
N            2.31662294059793        0.10544580811927        0.03467776229568
C            2.60994423197318       -1.24922025128696        0.03069226689307
N            1.41493136516921       -1.94200361605469        0.00125380154237
C            0.39981190654012       -1.05490224856957       -0.00891964133106
C            0.92817332295692        0.22691215498921        0.01273138657223
C            0.11037392132494        1.38070000945389       -0.00743865205792
O            0.49050834983576        2.56130569462800       -0.00748993755010
N           -1.26806789973838        1.03758437308771       -0.03172049947108
C           -2.21608646085607        2.13951408273032       -0.04935896413128
C           -1.82546759390825       -0.20311549169793       -0.04778649741697
O           -3.02654466714978       -0.38978455867607       -0.07053343246368
N           -0.94056846528590       -1.29962683128224       -0.03749993594260
C           -1.47582733602048       -2.63933916356696       -0.06039634608275
H            3.73386661139170        1.24835441590206        1.06898328083926
H            4.01639674726363        1.07398404282555       -0.67832290326791
H            2.69025651461298        2.11008311589250       -0.08163151566581
H            3.58001433248591       -1.68503590176918        0.04369551389541
H           -1.63418760041034        3.05916605748786       -0.02531475216047
H           -2.82286687386665        2.09490093068131       -0.95385008249914
H           -2.87357197639799        2.07884417485404        0.81783282062645
H           -1.17238907364721       -3.19314135885999        0.83130631489851
H           -1.14649630133031       -3.17315501400507       -0.95524647825450
H           -2.56101695918809       -2.54510150097328       -0.07533324968819
H            1.33680042027703       -2.94371072777344       -0.01242936012382
25
 energy: -6.585138644475 xtb: 6.6.1 (8d0f1dd)
C            3.24712067544884        1.19632895751020        0.09033721651952
N            2.32130701264669        0.10538418477621        0.03207802155817
C            2.61171354825421       -1.25702386570966        0.03134040207478
N            1.41046849068002       -1.94197025517041        0.00223103729894
C            0.40101828580014       -1.05533165613329       -0.00947803100750
C            0.92958295034473        0.22741094488961        0.01065055249083
C            0.11421341260763        1.37516522660686       -0.00998291232322
O            0.48097596792667        2.55903514438758       -0.01119211078140
N           -1.27171067353728        1.03216909109309       -0.03269627774919
C           -2.21182971839730        2.13775577808705       -0.04900501438360
C           -1.82565205736747       -0.20627941898377       -0.04828962295030
O           -3.02638083532829       -0.39689631119085       -0.07059398085075
N           -0.94125772785638       -1.29971124362012       -0.03784876130530
C           -1.47691158756109       -2.63834268342031       -0.06043698146133
H            3.73958058660046        1.26005561261281        1.06741702513555
H            4.01574655063141        1.09795661388257       -0.68069738040489
H            2.68190724659509        2.11378383410352       -0.07269753179142
H            3.57802296254249       -1.70048730645135        0.04464865206853
H           -1.61660063866970        3.04897876289346       -0.02556745453481
H           -2.81993463433360        2.09856047179474       -0.95281215534147
H           -2.86837218931695        2.08284709534800        0.81925925281984
H           -1.17575676784347       -3.19271424574124        0.83171296848685
H           -1.14886877222693       -3.17342836436533       -0.95504351619705
H           -2.56210533173792       -2.54055490479893       -0.07598180757046
H            1.32593791203422       -2.94366286022847       -0.01031769365306
25
 energy: -6.356061567499 xtb: 6.6.1 (8d0f1dd)
C            3.24102325147483        1.20663951319558        0.09244831366305
N            2.32893102270411        0.10093666964802        0.02726058926156
C            2.61294589883123       -1.26782836058397        0.03264151963085
N            1.40744393776957       -1.94344502018976        0.00473535478400
C            0.40257487038228       -1.05814969131977       -0.01062611408621
C            0.93417088492813        0.22504832638243        0.00636091846900
C            0.12085115875433        1.36859057938203       -0.01608668120124
O            0.46816948884220        2.55474111603742       -0.02004830627606
N           -1.27422540565954        1.02468995564010       -0.03533084905191
C           -2.20144637830052        2.13747543611575       -0.04832275780162
C           -1.82530657372103       -0.21238250487731       -0.04958413808181
O           -3.02477132094239       -0.40824819336592       -0.07065723193187
N           -0.94011956210834       -1.30190911279845       -0.03865629888311
C           -1.47878592218775       -2.63890994394212       -0.06045760640386
H            3.74504550812757        1.27536135972412        1.06382542885247
H            4.00638179166984        1.14515169916802       -0.68769743419367
H            2.65720743700668        2.11798215520772       -0.05140399004627
H            3.57353241037992       -1.72450770272857        0.04667041281055
H           -1.58600665197615        3.03551557411638       -0.02673765741717
H           -2.81282033670252        2.10814586954414       -0.95010213469528
H           -2.85497595455857        2.09303815210529        0.82267951645499
H           -1.18332503414389       -3.19357182481636        0.83311720337833
H           -1.15381679722379       -3.17614834880604       -0.95460216988885
H           -2.56385360310833       -2.53387050777904       -0.07758195663305
H            1.31339054769830       -2.94531659288767       -0.00481003456551
25
 energy: -5.353258113348 xtb: 6.6.1 (8d0f1dd)
C            3.22154850674268        1.22706765094750        0.09721907004825
N            2.34153455162496        0.08998812637095        0.01783486010379
C            2.61543114216351       -1.28464829730957        0.03506558093607
N            1.40686973551810       -1.94904597400093        0.01046414236329
C            0.40519480597501       -1.06615251678823       -0.01322036074765
C            0.94345860364053        0.21667999807361       -0.00319205741552
C            0.13465046515297        1.35718798912179       -0.03062350973664
O            0.45546607425276        2.54552967305173       -0.04114107828404
N           -1.27325337066637        1.01218421645679       -0.04204735282598
C           -2.17759925613160        2.13984268485610       -0.04694453195790
C           -1.82350139428671       -0.22291336325222       -0.05276297425709
O           -3.02112748600832       -0.42466292714286       -0.07062244538005
N           -0.93676167606821       -1.30870825714947       -0.04065527404035
C           -1.48322670925136       -2.64280517979075       -0.06039779401266
H            3.75020514522708        1.29589334853534        1.05611895381810
H            3.97372446421130        1.24114571810583       -0.70563972187281
H            2.59500482079957        2.12244541199636       -0.00107080224305
H            3.56641773444191       -1.76355480544224        0.05108339896535
H           -1.52953598328101        3.01621221634488       -0.03046840067486
H           -2.79682545335560        2.12940786717847       -0.94356439385587
H           -2.82278010198177        2.11546080571877        0.83106616728034
H           -1.19958433428061       -3.19755654716832        0.83645096520423
H           -1.16355709380034       -3.18498299622252       -0.95290982517451
H           -2.56777681639086       -2.52401567479677       -0.08145631773328
H            1.29823829368854       -2.95097056552219        0.00844759764011
25
 energy: -0.974340360902 xtb: 6.6.1 (8d0f1dd)
C            3.17657327775603        1.26775219501437        0.10872398890872
N            2.36492562135578        0.06703517152583       -0.00191865792612
C            2.62076011668289       -1.31418296578573        0.04028460354032
N            1.40982896152250       -1.96213668264392        0.02325847747980
C            0.41019042490899       -1.08378949710313       -0.01950820391811
C            0.96222105381911        0.19725626273392       -0.02539407763212
C            0.16375853355861        1.33572880563983       -0.06469330823497
O            0.44373577614512        2.52643284707561       -0.09066551514425
N           -1.26621396929023        0.99020334172723       -0.05820045001071
C           -2.12861726634539        2.14647266610592       -0.04374915910967
C           -1.81848005400791       -0.24117070294502       -0.06023070949401
O           -3.01303860144054       -0.45067432564550       -0.07010442996790
N           -0.92931313350473       -1.32370405235780       -0.04570609665345
C           -1.49262528101418       -2.65225962010925       -0.06033266055807
H            3.76147698394099        1.32399590874403        1.03837514002173
H            3.88977259955629        1.43670423656502       -0.74494835735771
H            2.46274494351743        2.12715523061439        0.11366360609738
H            3.55351619768714       -1.83455312132529        0.06114242859909
H           -1.42531898385690        2.98450470360946       -0.04020737266348
H           -2.76608900959558        2.17164490337270       -0.92757352145011
H           -2.75246115310100        2.15959817852373        0.85093035590966
H           -1.23321510216209       -3.20626226167640        0.84380825624957
H           -1.18182035082867       -3.20561020516799       -0.94819209617439
H           -2.57582037962403       -2.50727492511125       -0.09066942737446
H            1.27572346225640       -2.96383748920875        0.03894108301051
25
 energy: -0.758966534596 xtb: 6.6.1 (8d0f1dd)
C            3.15961465064386        1.27660383155700        0.11381351266625
N            2.36657931933167        0.06251349166058       -0.00677701662189
C            2.62131860589871       -1.31378124773749        0.04314452371731
N            1.41537593300672       -1.96595294567425        0.02740114661243
C            0.41059107006556       -1.08933025190293       -0.02302718386174
C            0.96565981824041        0.19044297118929       -0.03504263953140
C            0.17063159849953        1.33316125695018       -0.07865262350643
O            0.45520346605205        2.52116543207922       -0.11069013603374
N           -1.25989841692856        0.98921187195043       -0.06452360582001
C           -2.11702669178811        2.15005169915312       -0.04063889371629
C           -1.81613290671010       -0.24251081684719       -0.06303375179190
O           -3.01037320802937       -0.44985716430332       -0.06867299697405
N           -0.92687716008049       -1.32878940121441       -0.04884408043049
C           -1.49508134611502       -2.65661646458615       -0.06137929598107
H            3.76039409342503        1.32311490435120        1.03223356428594
H            3.85098014748372        1.46932653818209       -0.74673522017775
H            2.43720543550667        2.12378016073831        0.14154219547128
H            3.55150697156183       -1.83887563693047        0.06488958878138
H           -1.41361434582243        2.98493655388272       -0.04274563767137
H           -2.76120566296613        2.18132291939801       -0.91845773454461
H           -2.72964102494279        2.16719034364506        0.86094373671766
H           -1.24180181545544       -3.20942036721094        0.84501472286508
H           -1.18474197324707       -3.21363616475009       -0.94683504323850
H           -2.57752621665227       -2.50770165875391       -0.09512178446720
H            1.28107432695807       -2.96732125265401        0.04922854939835
25
 energy: -0.933868683851 xtb: 6.6.1 (8d0f1dd)
C            3.09758030376144        1.29775465435095        0.13666664229733
N            2.35862477481265        0.05958518183272       -0.02456629285427
C            2.62718923017714       -1.29097470323499        0.06105260915798
N            1.44121613811425       -1.98011127676224        0.04519754573519
C            0.41096565647306       -1.11072608850403       -0.04117238923530
C            0.96666930920739        0.16476319085804       -0.08103623275577
C            0.18397391751486        1.32356797507138       -0.14250797413699
O            0.52501650707176        2.50554346420959       -0.20835039825801
N           -1.22965853848053        0.99191029241654       -0.09350775864225
C           -2.08001741423213        2.16368012496290       -0.02328730692866
C           -1.80617777399887       -0.23752779770717       -0.07509309034565
O           -3.00361229632080       -0.42395859857960       -0.05903760390718
N           -0.92310736003081       -1.34891657874400       -0.06629100633276
C           -1.50743851522141       -2.67377718513798       -0.06851025855169
H            3.75494458746081        1.29293222780973        1.00887598742570
H            3.68172473520692        1.54379802019512       -0.74217540731340
H            2.36568640266682        2.09247442765873        0.25029062235509
H            3.55778723975082       -1.80869878474525        0.08266766051242
H           -1.39406793547067        3.00344480008648       -0.05446077980621
H           -2.75832219170184        2.20996762159890       -0.87139114602436
H           -2.63829257990028        2.18172326737307        0.91164291307022
H           -1.27138279881666       -3.21915964248625        0.84699324586134
H           -1.18847499759821       -3.24733895799312       -0.94054010736149
H           -2.58633396622324       -2.52145133880907       -0.11781116036713
H            1.32772223371345       -2.97947569354841        0.09338558255309
25
 energy: 4.032906325865 xtb: 6.6.1 (8d0f1dd)
C            3.02916217196947        1.32860790131133        0.16679560010077
N            2.36291488566636        0.04679751803672       -0.05194334858311
C            2.63579267326249       -1.28537021551112        0.08452219203529
N            1.46446744715304       -1.99822806397479        0.06913758298219
C            0.41478163750788       -1.13665908316282       -0.06243938908973
C            0.97568530483419        0.13455691135731       -0.13881636459357
C            0.20448791576653        1.30543930258333       -0.22593674579309
O            0.57770462984797        2.48180086075639       -0.33116278065934
N           -1.20159172030359        0.98698634842841       -0.13202605741440
C           -2.02889080490474        2.17829633530876       -0.00648187260542
C           -1.79470817560265       -0.23877717573156       -0.09138239338508
O           -2.99343744283634       -0.41042762477170       -0.04882801270357
N           -0.91657165511796       -1.37121885725268       -0.08671286261552
C           -1.52282971970791       -2.69028797605403       -0.07475152053625
H            3.78106601774867        1.25583713946507        0.97317168502059
H            3.48187559404725        1.71967737155198       -0.77242202258252
H            2.24429484847597        2.06130096988268        0.43941855623106
H            3.56022683637690       -1.81346758731795        0.10710565001367
H           -1.33679768936906        3.00715828235833       -0.07591016211623
H           -2.75296175320868        2.24887425647474       -0.81580983532805
H           -2.52187284473909        2.21034388702621        0.96894215764694
H           -1.31420274893455       -3.22631246493385        0.85415289504200
H           -1.19750340784958       -3.28602796272792       -0.93020252582507
H           -2.59820657682341       -2.52393375540307       -0.14480727444383
H            1.35932924467663       -2.99593771552768        0.15342074534949
25
 energy: 7.222511582874 xtb: 6.6.1 (8d0f1dd)
C            3.00486760985098        1.32033598411621        0.19947181707311
N            2.35126259113148        0.05602474108443       -0.07909046103017
C            2.64807138972485       -1.26448970517804        0.12432085113880
N            1.47964454751732       -2.00820747789550        0.08863628611239
C            0.42018746651863       -1.15158513775285       -0.08789753518359
C            0.96551399527523        0.11931689561573       -0.20704772693713
C            0.18468742996228        1.29040900128337       -0.31787862242587
O            0.61023514066161        2.46589415989608       -0.46199238960420
N           -1.18559774106421        0.99233941193834       -0.17144724760851
C           -2.00748738330545        2.18726728445646        0.01259478874466
C           -1.78643392323439       -0.22689508675158       -0.10626358719135
O           -2.98960522330109       -0.37853624902485       -0.03182484244285
N           -0.91909470801954       -1.38179467052887       -0.11179932813428
C           -1.53678191650433       -2.69428672223268       -0.08208951581495
H            3.83965632882165        1.17260561510419        0.93160024078806
H            3.31758451321777        1.82691402156440       -0.79802749308794
H            2.20607980575708        2.00447504805891        0.64116972353021
H            3.58580033386908       -1.76749475860264        0.13421304437471
H           -1.32100417527711        3.02511979475262       -0.10518918251462
H           -2.78631907028568        2.25678843480286       -0.74812517821424
H           -2.43143715539636        2.20935266709843        1.02517440040412
H           -1.34133942432079       -3.21702684502452        0.85955882777478
H           -1.19268954700082       -3.31185269423434       -0.91747594607455
H           -2.60997872631689       -2.53095970034870       -0.17288921022458
H            1.40639250965431       -3.00468541002530        0.20933218269526
25
 energy: 5.413285456571 xtb: 6.6.1 (8d0f1dd)
C            2.99784286584519        1.30811162917058        0.21712615306719
N            2.33156791859511        0.07335314515695       -0.10329186524426
C            2.65791094739118       -1.25642663298948        0.16422610006563
N            1.47543686494189       -2.01119408486625        0.09271457482868
C            0.42751777541266       -1.16007071948997       -0.11157482481379
C            0.94629043895473        0.11354836523945       -0.26576214645943
C            0.15403414804520        1.27017836989731       -0.38935869911798
O            0.60217533567177        2.44584304777630       -0.54538907192501
N           -1.18581067948712        0.99214239896895       -0.19240085145674
C           -1.99556798766915        2.19015329566108        0.03489200479542
C           -1.78050954974783       -0.22109684769601       -0.11189663103995
O           -2.98662346495151       -0.36374009314866       -0.01077898936614
N           -0.92655248702581       -1.38294988360087       -0.13341619258928
C           -1.54608295794559       -2.68873536074644       -0.08913692885146
H            3.83206818787876        1.16319315566323        0.90739631133950
H            3.28257789602852        1.84851017844903       -0.74868663249746
H            2.22367850572876        1.96477506839817        0.70626823388383
H            3.61719283988098       -1.72352426688080        0.14546000753401
H           -1.29029161508234        3.02908714663349       -0.11544505939325
H           -2.81853823442595        2.25561714451822       -0.68529204059811
H           -2.37536620509061        2.20332599345096        1.06604515947947
H           -1.35352675411170       -3.20322814280507        0.85967305479979
H           -1.19006733200302       -3.32033487526867       -0.91119151079410
H           -2.61943795633343       -2.53018778350447       -0.19114446405870
H            1.43229616743491       -3.00732164581486        0.23799820455935
25
 energy: 5.993955581214 xtb: 6.6.1 (8d0f1dd)
C            2.93716431225891        1.33890408769399        0.24681311681126
N            2.32438874418511        0.07227454689853       -0.13776744712363
C            2.66045779910364       -1.26227380402139        0.20353924868552
N            1.47220242995049       -2.01535082885186        0.10659798519901
C            0.43598499988217       -1.18036360693104       -0.14365302643437
C            0.94603792469269        0.09155367721942       -0.34048334768570
C            0.16192386987755        1.24022096907803       -0.50053385279674
O            0.58985248752913        2.40779442138586       -0.68233516436380
N           -1.18089771450862        0.97984381265334       -0.22103981666362
C           -1.94836433676332        2.19661235592577        0.06446652646048
C           -1.77034033543071       -0.23361582117454       -0.11725399715297
O           -2.97273974237270       -0.37781804858408        0.01769248484297
N           -0.92523041800759       -1.39136877831104       -0.16254700586479
C           -1.55738160612194       -2.68992613770184       -0.09863144299233
H            3.82047949066188        1.18242773536498        0.87017163822011
H            3.18916820659793        1.94705547838554       -0.66079613920837
H            2.18038063206019        1.94840122877716        0.80451367987976
H            3.62734927633132       -1.71893383360085        0.14327396845279
H           -1.21249277804110        3.01122115518846       -0.11743926917471
H           -2.82218163636022        2.28472362262142       -0.60151240337728
H           -2.26569590946698        2.22027759667979        1.12167784379495
H           -1.38869036369797       -3.19189194888370        0.86350432476291
H           -1.20080965820181       -3.34230121077404       -0.90385783662914
H           -2.62973933189172       -2.51898086122096       -0.21784554948378
H            1.44138832566916       -3.00945720564476        0.29047937798869
25
 energy: 4.389616027261 xtb: 6.6.1 (8d0f1dd)
C            2.90508997123595        1.33880991536951        0.28293101638257
N            2.31543233660284        0.07914771265079       -0.15416044360152
C            2.64617607532204       -1.25265612602121        0.24604576101016
N            1.45481856217859       -1.99694244077376        0.12540030015821
C            0.44139086818898       -1.18475489245731       -0.17392179617373
C            0.94842501703509        0.08124202314247       -0.39509656589024
C            0.16599134413268        1.22314635401217       -0.60259159316124
O            0.55676029425900        2.37032311548134       -0.84395980207864
N           -1.18524507838860        0.98236087317172       -0.23333417015493
C           -1.92157837566108        2.19151431462961        0.09137936250044
C           -1.76007737733213       -0.24124675494179       -0.10861514047017
O           -2.95272178459398       -0.39279774179751        0.05657183925781
N           -0.92481631415900       -1.37923373107815       -0.19327362355588
C           -1.55856912296176       -2.67554302078053       -0.10947277897323
H            3.83429452032030        1.17323720640934        0.83487070969553
H            3.13154379751776        1.96254038660065       -0.55800190183272
H            2.19792644371541        1.90895698271967        0.88693736852541
H            3.62720352170813       -1.68215028530859        0.09606415579123
H           -1.21108070845622        2.99998176254692       -0.10139030645517
H           -2.80969898904562        2.28613796602446       -0.52102481389628
H           -2.19593703615298        2.18865554531293        1.13976667490478
H           -1.40475849468387       -3.15610573509068        0.86386638326943
H           -1.19946096946262       -3.34212642320899       -0.89661607891883
H           -2.63016723512930       -2.50859769063434       -0.24181467617669
H            1.44127340174583       -2.98487071380650        0.33647401599091
25
 energy: 5.750481125269 xtb: 6.6.1 (8d0f1dd)
C            2.86488771933220        1.33690289040710        0.32803860377814
N            2.31748738955139        0.07525248195923       -0.17803477008771
C            2.63696778965160       -1.23754966818385        0.28898345762630
N            1.45808237084447       -1.99187513826488        0.15745469733629
C            0.44331295581170       -1.19488076255052       -0.21058464345402
C            0.95820182253335        0.06355967947544       -0.46285621555945
C            0.17606308607260        1.20882853682199       -0.70944300626854
O            0.55986247163048        2.33700676690309       -1.03266791418817
N           -1.17141329713723        0.98266325934919       -0.27533064229046
C           -1.88448242772920        2.19122424688224        0.11640311474035
C           -1.74968274602469       -0.24438749902875       -0.11925823343829
O           -2.93809493498902       -0.39014600048418        0.09623165789513
N           -0.91999333348782       -1.38036884214962       -0.22931152594122
C           -1.56308798223349       -2.67411625542831       -0.12101518032428
H            3.84683983002342        1.13808093524467        0.79835178094569
H            2.99001787304601        2.07274984181205       -0.51534016677027
H            2.16811710887871        1.84229156382742        1.05808054853214
H            3.61776152593868       -1.65771255757816        0.07538354054925
H           -1.19121211272919        2.99619417424410       -0.11700328608549
H           -2.82758133451666        2.30510501368838       -0.43033187002210
H           -2.07908962214015        2.17761223063922        1.19938002837182
H           -1.42969928592073       -3.12934924652556        0.86789537301107
H           -1.19489148435577       -3.35939824114723       -0.88711703763782
H           -2.63183557796564       -2.50528753078635       -0.27283039789765
H            1.45567686385028       -2.97337127695448        0.40195598332648
25