25
 energy: 0.000000000000 xtb: 6.6.1 (8d0f1dd)
C            3.23720163006194        1.16630919979326        0.08434469647475
N            2.29877817382611        0.07527477071623        0.03981603040599
C            2.58028210190900       -1.21425402444508        0.03006176031096
N            1.43813958087363       -1.93419271955128        0.00098261760884
C            0.39035688448383       -1.05887472636071       -0.00790371836672
C            0.93510056364412        0.21347819449412        0.01709077491437
C            0.09450143893243        1.40504303904423       -0.00410947031874
O            0.49712751527797        2.54126714362870       -0.00342325688240
N           -1.25076640035757        1.06271879480407       -0.03085478223738
C           -2.21907211982101        2.15522099834493       -0.05001256985998
C           -1.81739487048744       -0.20012725993278       -0.04692818574614
O           -2.99983886758376       -0.37846417018721       -0.07008878229737
N           -0.92618586207120       -1.30210215599479       -0.03682761578324
C           -1.46982264913417       -2.64643102187190       -0.06029820460571
H            3.71247264356769        1.21471455160235        1.06488849150277
H            4.00791497605742        1.03430808813993       -0.67357694370751
H            2.69910007168542        2.09770118228144       -0.09130154882931
H            3.56654120610678       -1.63682992603973        0.04233140067262
H           -1.67107961066214        3.09322851271934       -0.02552706933167
H           -2.82428953597071        2.09428624779827       -0.95318082946668
H           -2.87644029173232        2.07745725625962        0.81450067533302
H           -1.17061996399332       -3.19584890659852        0.83242232437030
H           -1.14560257411436       -3.17511610292205       -0.95688275822323
H           -2.55549792440841       -2.55659984320617       -0.07459039797972
H            1.38130855184625       -2.94313852034425       -0.01389874181052
25
 energy: -1.977323789164 xtb: 6.6.1 (8d0f1dd)
C            3.25031277800839        1.17879842956339        0.07930729294952
N            2.30688620784206        0.09979779187802        0.03616051189927
C            2.60361541243730       -1.22389687968826        0.02899883693048
N            1.43210538502939       -1.93588618436344        0.00760480399977
C            0.38177968156621       -1.05906113798839       -0.00226842547450
C            0.92481866526782        0.21635419544864        0.01738347376984
C            0.09341536220753        1.38178158359270       -0.00140545310580
O            0.50871491510996        2.54359601629187        0.00066006103717
N           -1.28323819810828        1.03798559509247       -0.03887235983748
C           -2.20143928495594        2.16852325673998       -0.02842708616647
C           -1.91218496791391       -0.21490801596187       -0.11433110707627
O           -3.12235795897441       -0.36356305303869       -0.14672627506538
N           -0.96545492424485       -1.30458580682599       -0.04195636470448
C           -1.45705464629425       -2.66282682621065       -0.04519504252818
H            3.72932962204472        1.22983856692557        1.06109935954046
H            4.02317932928712        1.03648798723807       -0.67868685565759
H            2.71303928305540        2.10676468902567       -0.10392604899906
H            3.58855576667433       -1.63974613732298        0.03403753861895
H           -1.63462087013426        3.09938798029225        0.01333978414258
H           -2.80081995793495        2.13316661926904       -0.93510363401793
H           -2.85418894094298        2.08807155865855        0.83847173160858
H           -1.16686092524344       -3.19303114417711        0.86539792720273
H           -1.09102356441898       -3.20775303594335       -0.91918283622911
H           -2.53982964674349       -2.58536484883937       -0.09076557985479
H            1.38553614531574       -2.94090259748417       -0.00858035683502
25
 energy: 11.054092278732 xtb: 6.6.1 (8d0f1dd)
C            3.26529513735233        1.18789006752100        0.06944398392270
N            2.30753961181578        0.12441741325759        0.02940803231674
C            2.61724095525452       -1.22755215710040        0.02778003070035
N            1.42014323460694       -1.93001824078400        0.01569980307375
C            0.36304921127896       -1.05876636276539        0.00635132309720
C            0.90854694545864        0.21679354674035        0.01913724507866
C            0.08603651969118        1.34675842063620        0.00019835782632
O            0.50786032846200        2.52268730146111        0.00227857611435
N           -1.32982791167729        1.00565575860513       -0.04783992141613
C           -2.17461678521097        2.19411107755640        0.00663038702609
C           -2.04435601715812       -0.23596847172844       -0.20485737081138
O           -3.26637153995574       -0.33990144151404       -0.28877319493224
N           -1.01774154373215       -1.30413582544083       -0.04912957775690
C           -1.43286537356292       -2.68772041882851       -0.02238098481723
H            3.75030285270827        1.24900887543461        1.05114197412917
H            4.04443569548779        1.03327137057906       -0.68432634644891
H            2.74014904860820        2.11939467634515       -0.12565212713253
H            3.60470871566232       -1.63012340210729        0.02127258599272
H           -1.57474154728129        3.10854842943354        0.07843016884200
H           -2.77106893285158        2.21291043764504       -0.90219889433061
H           -2.81910186660583        2.11426693916631        0.87915240462928
H           -1.16386255134136       -3.18229673535118        0.92089619696549
H           -0.99727535572197       -3.26632524120614       -0.85258338057655
H           -2.51409135296180       -2.64909244833312       -0.12284098361349
H            1.40282718961034       -2.93478496705021       -0.00020439173154
25
 energy: 27.364327301705 xtb: 6.6.1 (8d0f1dd)
C            3.27362551135725        1.18846229094820        0.06123018532040
N            2.30031652919097        0.13549834455929        0.02416716148125
C            2.61265135785512       -1.22528870993813        0.03011859198799
N            1.40951012643095       -1.92511831136880        0.01856021233055
C            0.34320699942946       -1.06208599329066        0.00239560050141
C            0.89454340146504        0.21291792416387        0.01481747259054
C            0.06949058146727        1.32926523091811       -0.01161167246890
O            0.49238758442912        2.50605355557875       -0.00307282075963
N           -1.37296795514545        0.98753684034890       -0.06260443230516
C           -2.15491834808405        2.22160148251386        0.04245519010015
C           -2.14782274597240       -0.24992339229222       -0.28153140905441
O           -3.36607256894195       -0.32039540741635       -0.41339561109985
N           -1.05761705005993       -1.30596164450283       -0.06617512198668
C           -1.40689981491936       -2.71282217395300       -0.00156690418353
H            3.75929119064818        1.26016234462933        1.04352636464728
H            4.06052277365454        1.01888431260952       -0.68380589498550
H            2.76919199253883        2.12909201101030       -0.14890357760735
H            3.60639886591400       -1.61504096714853        0.01492248529564
H           -1.51424294688039        3.11089322145384        0.14517313127248
H           -2.74968829793933        2.30893841981009       -0.86547464776997
H           -2.78830094486586        2.14602518341012        0.92293299807138
H           -1.16435296673969       -3.16133471324839        0.97807643057019
H           -0.89688031500359       -3.32138722302278       -0.77927343729421
H           -2.48521456881686       -2.73488509068187       -0.16338425930783
H            1.42605627692436       -2.93205893291870        0.00945786080108
25
 energy: 35.224655772077 xtb: 6.6.1 (8d0f1dd)
C            3.27359510424536        1.18363971938738        0.05975444301750
N            2.29083720338655        0.13564470057435        0.02194202575841
C            2.60049133705129       -1.21999979158181        0.03509424949082
N            1.40466283845884       -1.92372757851518        0.01404878273781
C            0.33117624692128       -1.06657006190277       -0.01272719785738
C            0.88626695032610        0.20802174388406        0.00448092096409
C            0.05655525417191        1.32818891463779       -0.03251814605098
O            0.48304129347034        2.49712959122122       -0.01977969838157
N           -1.39788204929046        0.98652494871666       -0.07612554592961
C           -2.14736538599498        2.23746816153465        0.06456792015011
C           -2.19918046224874       -0.25309877416860       -0.31516712590103
O           -3.40668877175329       -0.30752993514237       -0.46534877053692
N           -1.07417730789426       -1.31075682047275       -0.08456300725030
C           -1.38779011902947       -2.72716405810755        0.00862619319120
H            3.75204683131680        1.26104071862463        1.04511505774986
H            4.06743179701355        1.00005344121753       -0.67512368748904
H            2.78652621450274        2.13102379435289       -0.16434355105648
H            3.59957793065363       -1.60132504490291        0.01760711071625
H           -1.48213801398712        3.10671828617637        0.18360764136951
H           -2.73979585704556        2.37429336720063       -0.83728627549390
H           -2.77175278600156        2.16565456152805        0.95118364387690
H           -1.16789430809152       -3.14369097643135        1.00807884017241
H           -0.83423484346958       -3.34300230662547       -0.73091267138994
H           -2.45664149601262       -2.79771597893576       -0.18985996288902
H            1.44554706723702       -2.93179202009780        0.01668270717860
25
 energy: 35.777659880409 xtb: 6.6.1 (8d0f1dd)
C            3.26944386550745        1.17903098837377        0.06036121953792
N            2.28384706206514        0.13178640713653        0.02145207178057
C            2.59040368858705       -1.21483747223951        0.03884812481024
N            1.40398991493926       -1.92425012939120        0.00895917667282
C            0.32707786978635       -1.06950449218088       -0.02314015084594
C            0.88289868125271        0.20470383423587       -0.00218353910821
C            0.05279487926075        1.33204665897804       -0.04449818165050
O            0.48425993440582        2.49293801460355       -0.03475283157059
N           -1.40327827965949        0.99289480926174       -0.08065659905347
C           -2.14680754654829        2.24036634092289        0.07184256132562
C           -2.20967603775679       -0.24956409204706       -0.31417479224766
O           -3.40908261106388       -0.29964930209771       -0.47455764897153
N           -1.07307948729201       -1.31604920554710       -0.09343912220981
C           -1.37995566301191       -2.73057438317825        0.01034036675528
H            3.74040809984027        1.25827958603219        1.04856806151461
H            4.06668604267422        0.98764572404033       -0.66784389190865
H            2.79017060916160        2.12807337056708       -0.17131009588910
H            3.59217003604161       -1.59316927839280        0.01813326415783
H           -1.47623326823062        3.10088900659694        0.19562895064646
H           -2.73657496180904        2.39828960870975       -0.82355312990071
H           -2.76897008807211        2.16894432666476        0.95982556364963
H           -1.17675945493377       -3.13341990609745        1.01554515761794
H           -0.80865721249198       -3.34082224539031       -0.70902930573141
H           -2.43863036611219       -2.82322242307003       -0.20348210927104
H            1.45576896139613       -2.93179714431924        0.02015077603702
25
 energy: 34.626212782155 xtb: 6.6.1 (8d0f1dd)
C            3.26586310813621        1.17710562362279        0.05971376470097
N            2.28052682231813        0.12924505694145        0.02117115441296
C            2.58594076777715       -1.21203529938968        0.04140960452029
N            1.40404219596780       -1.92515738114643        0.00648241853187
C            0.32617014438818       -1.07035307740951       -0.02656241859227
C            0.88146116552012        0.20354455110520       -0.00456967985746
C            0.05296913181978        1.33401490179998       -0.04692055299206
O            0.48687192112656        2.49237757105563       -0.03962860412337
N           -1.40068093895112        0.99738966753742       -0.08168802315598
C           -2.14712093819145        2.23939223607947        0.07347752107171
C           -2.20601133996683       -0.24500462893857       -0.30861912062973
O           -3.40276184706024       -0.29508033826457       -0.47254845449421
N           -1.06728414802949       -1.31990113092955       -0.09769801728511
C           -1.37864199277879       -2.73086062471000        0.01027915251832
H            3.73323925157167        1.25679442870813        1.04918158460732
H            4.06372847044451        0.98279897897867       -0.66591415792139
H            2.78751215132567        2.12510191441807       -0.17443395203519
H            3.58809999193938       -1.59088395849543        0.01393766723286
H           -1.47660627060553        3.09816631206075        0.20150344743742
H           -2.73602086612999        2.40536453782814       -0.81953058181577
H           -2.77175981951485        2.16513242463102        0.95984306207623
H           -1.19012870109932       -3.12544614986804        1.02135846166251
H           -0.79304352734288       -3.34096736906119       -0.69525203347010
H           -2.43226243231054       -2.82999807455953       -0.21903773770023
H            1.45811236758216       -2.93171156982235        0.02107939144772
25
 energy: 33.869462803350 xtb: 6.6.1 (8d0f1dd)
C            3.26430162902810        1.17707962970913        0.05884436720449
N            2.27961450229416        0.12856620436300        0.02106447265799
C            2.58545134881823       -1.21094251452268        0.04454223547597
N            1.40428269806719       -1.92571056278053        0.00578010268638
C            0.32612850428179       -1.07034207936554       -0.02747141852587
C            0.88084469271807        0.20339045383030       -0.00557921529132
C            0.05285109309563        1.33375733241758       -0.04655684846102
O            0.48702969825227        2.49270011185442       -0.03931978168185
N           -1.39814718539077        0.99879589302952       -0.08234331002859
C           -2.14692218813525        2.23895623365293        0.07417811469549
C           -2.20238217852820       -0.24149251429992       -0.30691758894304
O           -3.39909428495447       -0.29296743932364       -0.47099946985006
N           -1.06245307002895       -1.32240643591143       -0.10106644908808
C           -1.37875598352467       -2.73138002319407        0.01057478031134
H            3.73067723800992        1.25732642713800        1.04862628268462
H            4.06230830142240        0.98174192404918       -0.66589152468666
H            2.78515155022431        2.12412821748921       -0.17625622552891
H            3.58704112498786       -1.59116976598027        0.00914800202162
H           -1.47695412266765        3.09802161054709        0.20562522950008
H           -2.73508144869618        2.40729479487287       -0.81888506528495
H           -2.77458313543520        2.16180247866579        0.95854291861947
H           -1.20063197354906       -3.12297713308173        1.02397501058290
H           -0.78749606390841       -3.34312502243013       -0.68587458331250
H           -2.42890040121679       -2.83023999520677       -0.22862736995650
H            1.45793432277195       -2.93177922335041        0.02192123034634
25
 energy: 33.518984361365 xtb: 6.6.1 (8d0f1dd)
C            3.26391602933379        1.17760151879265        0.05792145121686
N            2.27975149079975        0.12857436476563        0.02107379179042
C            2.58682508865602       -1.21074839533870        0.04917258509906
N            1.40461216643191       -1.92613506915583        0.00559811099112
C            0.32630842608594       -1.07018598309574       -0.02747006192568
C            0.88080002774543        0.20338334793992       -0.00622129326781
C            0.05200390273525        1.33238953652233       -0.04546188525554
O            0.48592470025699        2.49279309386703       -0.03710482815177
N           -1.39667248680494        0.99895854341447       -0.08236798089756
C           -2.14673337314051        2.23912809272752        0.07500532009279
C           -2.20077784799177       -0.23741190252005       -0.30706153979809
O           -3.39828246158876       -0.29129785034814       -0.46920067010602
N           -1.05836610223419       -1.32428588328485       -0.10463447943257
C           -1.37938873422264       -2.73199573812377        0.01064879092974
H            3.73057115593221        1.25848400235484        1.04752062219168
H            4.06183726699884        0.98201287661328       -0.66675118212691
H            2.78369689887856        2.12403953362740       -0.17745141889283
H            3.58736909761747       -1.59251315647635        0.00252164454848
H           -1.47755910419886        3.09879605346610        0.20865791415850
H           -2.73370641109069        2.40697408228330       -0.81897646533815
H           -2.77674906536244        2.15947738500736        0.95764625690504
H           -1.21116151097595       -3.12030557787389        1.02679476567042
H           -0.78193111030682       -3.34715507777775       -0.67670703570019
H           -2.42711750366641       -2.82950484103711       -0.23895671017412
H            1.45704412804807       -2.93204435417778        0.02283819362048
25
 energy: 33.613415257971 xtb: 6.6.1 (8d0f1dd)
C            3.26431925513043        1.17814247506278        0.05769387568375
N            2.28035643628824        0.12888472539631        0.02136208192473
C            2.58875910545998       -1.21105783671009        0.05380943822630
N            1.40527820174839       -1.92635654337076        0.00593597733685
C            0.32684452987047       -1.07042561707363       -0.02724063191148
C            0.88135672998991        0.20315662331026       -0.00645444189982
C            0.05086375842478        1.33090505184800       -0.04469844090593
O            0.48440399237814        2.49220267434244       -0.03520611989257
N           -1.39699432918181        0.99810750381852       -0.08188502517886
C           -2.14679655659327        2.23956001626620        0.07513061984975
C           -2.20175129035241       -0.23453517997863       -0.30794201834034
O           -3.39998202257478       -0.29088885700037       -0.46807094377993
N           -1.05637384474812       -1.32518506754575       -0.10658115254381
C           -1.37974386297232       -2.73243360758831        0.01037286542112
H            3.73191208646163        1.25927757133470        1.04687122529214
H            4.06202295258397        0.98297893577735       -0.66753643309308
H            2.78357124635735        2.12455338816343       -0.17732791430162
H            3.58849031690295       -1.59329702963396       -0.00290300735153
H           -1.47759494105401        3.09928542657592        0.20893156131422
H           -2.73316998671746        2.40585047447665       -0.81982520747405
H           -2.77709241104283        2.15949244092228        0.95738657210329
H           -1.21544786620857       -3.11976394508705        1.02685940780361
H           -0.78155880816342       -3.34896601002676       -0.67333468366060
H           -2.42625466482548       -2.82806359011668       -0.24223335525735
H            1.45679664077451       -2.93239542099096        0.02391964678254
25
 energy: 33.964630909726 xtb: 6.6.1 (8d0f1dd)
C            3.26480200618658        1.17836851889522        0.05789620753202
N            2.28078689625812        0.12911107849124        0.02184587082495
C            2.59050757935069       -1.21145220734736        0.05934696475709
N            1.40611822479786       -1.92658563912857        0.00636750098444
C            0.32751588395983       -1.07107354696162       -0.02720013001202
C            0.88211515454444        0.20265033358979       -0.00664118371535
C            0.04979849589106        1.32956684303410       -0.04435007216825
O            0.48332143610793        2.49110046428663       -0.03397302062765
N           -1.39832989068108        0.99710173676158       -0.08107067072543
C           -2.14701658548172        2.24026623234389        0.07508019934376
C           -2.20448008656262       -0.23151151400569       -0.30897078540663
O           -3.40313521441575       -0.29049678696890       -0.46694889916180
N           -1.05527625105085       -1.32568705904402       -0.10764991376285
C           -1.37971145950167       -2.73280397241726        0.00987877866464
H            3.73353014220992        1.25925776660711        1.04657146996402
H            4.06212681428550        0.98382878714381       -0.66822051603254
H            2.78395796185505        2.12504919776391       -0.17639656250597
H            3.58961499282023       -1.59328530238545       -0.00909889683956
H           -1.47749023999007        3.09972419538902        0.20758903838538
H           -2.73327763598234        2.40453206490748       -0.82043883183504
H           -2.77639363484615        2.16102906132258        0.95778710018892
H           -1.21696518260402       -3.11905372332802        1.02699239190286
H           -0.78070675437033       -3.35044722433288       -0.67234174036395
H           -2.42633162188167       -2.82736001071888       -0.24404962938425
H            1.45713363703733       -2.93280069172582        0.02502922614055
25
 energy: 34.359105270785 xtb: 6.6.1 (8d0f1dd)
C            3.26497265800984        1.17830895524258        0.05854117513805
N            2.28078303582551        0.12914579605993        0.02254360293217
C            2.59159812688500       -1.21155700460562        0.06556095734068
N            1.40715511949008       -1.92684958986004        0.00690557669086
C            0.32832078408786       -1.07206905318320       -0.02768425909812
C            0.88275264949964        0.20197829315160       -0.00691943152612
C            0.04918238732320        1.32867003827492       -0.04451061137506
O            0.48280016096170        2.48988410901197       -0.03375346234533
N           -1.39997271530426        0.99619596044481       -0.08049889893272
C           -2.14722001492992        2.24093119134933        0.07462092040375
C           -2.20756597598724       -0.22875213951660       -0.30974362283242
O           -3.40622747203676       -0.29020803777570       -0.46642303005904
N           -1.05442680093553       -1.32619390906741       -0.10766833013137
C           -1.37916857640634       -2.73319310870681        0.00945392890915
H            3.73455192287188        1.25862049275661        1.04682791235532
H            4.06192767591601        0.98426945196970       -0.66837847247350
H            2.78434336196895        2.12533591135837       -0.17504525111810
H            3.59032994646166       -1.59220319262382       -0.01523671057996
H           -1.47703543479548        3.09999220963415        0.20533603880185
H           -2.73400373924945        2.40375008361307       -0.82096692780423
H           -2.77520198744156        2.16322754165752        0.95824396855251
H           -1.21490573298758       -3.12001800638749        1.02586317620897
H           -0.78247018897927       -3.35055261505826       -0.67449280147358
H           -2.42641617865071       -2.82651872069004       -0.24180210759227
H            1.45811165633906       -2.93316605487764        0.02626055615585
25
 energy: 34.677066457249 xtb: 6.6.1 (8d0f1dd)
C            3.26475992940123        1.17794971603581        0.05922344720867
N            2.28033768194357        0.12891994612515        0.02320726777650
C            2.59170969093405       -1.21130558165524        0.07140142206475
N            1.40795427808158       -1.92710048205701        0.00734040349358
C            0.32887401300712       -1.07301111299486       -0.02856951822682
C            0.88293391174856        0.20141523155180       -0.00734266898748
C            0.04929372222976        1.32843175811610       -0.04508902574054
O            0.48301150065011        2.48911369249139       -0.03443109642699
N           -1.40127325897292        0.99584578698889       -0.08047487563313
C           -2.14727851501798        2.24141759106238        0.07427716202321
C           -2.21009036085110       -0.22647467838296       -0.31026155489485
O           -3.40835816761292       -0.28955280593681       -0.46656607619628
N           -1.05364923227305       -1.32676863609474       -0.10696646431042
C           -1.37835955702594       -2.73357165834631        0.00929730479248
H            3.73458842323750        1.25769077826350        1.04736231675537
H            4.06147513262351        0.98395471533222       -0.66806380624494
H            2.78448382874296        2.12518502308662       -0.17405124444815
H            3.59023003252183       -1.59054705989857       -0.02065406850775
H           -1.47660755262477        3.10022637922078        0.20358317854886
H           -2.73482887056408        2.40387686935463       -0.82084365015840
H           -2.77418932176939        2.16496006801236        0.95872911873350
H           -1.21152705203266       -3.12128773369722        1.02532429919226
H           -0.78360572139829       -3.35077102610041       -0.67753756443198
H           -2.42687151783519       -2.82619640436850       -0.23902529562478
H            1.45920165079275       -2.93337177393710        0.02716488539064
25
 energy: 34.760529633567 xtb: 6.6.1 (8d0f1dd)
C            3.26445858206974        1.17768523337867        0.05958964243498
N            2.27997445807295        0.12864135142492        0.02358235038822
C            2.59130809722653       -1.21090784354621        0.07491664522580
N            1.40830042517927       -1.92720118409332        0.00769601850449
C            0.32906553720391       -1.07342480934925       -0.02931924725938
C            0.88273928934400        0.20126122643811       -0.00771389139926
C            0.04988271479215        1.32867037077135       -0.04563648930173
O            0.48332248262482        2.48914670737730       -0.03528037733665
N           -1.40166132034555        0.99594320876305       -0.08102021503724
C           -2.14719739226894        2.24145033836727        0.07407665202963
C           -2.21081681651977       -0.22556125941502       -0.31041804554078
O           -3.40866968330352       -0.28904161229368       -0.46726342549977
N           -1.05292646981415       -1.32731762702253       -0.10607083000852
C           -1.37780101889380       -2.73381732155689        0.00942652202407
H            3.73397898261065        1.25734698220063        1.04781779375856
H            4.06120087508322        0.98337557210426       -0.66750212382016
H            2.78434846020128        2.12485771174237       -0.17393275660265
H            3.58966105205870       -1.58940074966646       -0.02329478374099
H           -1.47635599923132        3.10026093639773        0.20321215369351
H           -2.73520562950553        2.40461020589406       -0.82057151366661
H           -2.77399025567959        2.16525884811688        0.95873806124761
H           -1.20845099333780       -3.12308222756775        1.02461948743899
H           -0.78557524290681       -3.35069780154417       -0.68025455815872
H           -2.42713169666755       -2.82566775682495       -0.23597763282496
H            1.45975622994339       -2.93335989792452        0.02761445959887
25
 energy: 34.729810296814 xtb: 6.6.1 (8d0f1dd)
C            3.26430449992832        1.17759122035279        0.05956322581592
N            2.27993609056994        0.12839314938756        0.02365260600211
C            2.59087700248393       -1.21059874389931        0.07687093350749
N            1.40822604189740       -1.92714895294701        0.00806032392004
C            0.32892253096957       -1.07331891085352       -0.02972824031883
C            0.88240633559581        0.20145265444193       -0.00801099634411
C            0.05063676669156        1.32905539297141       -0.04604881191520
O            0.48343294160734        2.48971904848035       -0.03594544388827
N           -1.40152477928093        0.99628077234185       -0.08184172081082
C           -2.14707703593535        2.24123229215112        0.07420865199249
C           -2.21056592667501       -0.22549138047143       -0.31049458558871
O           -3.40813114425819       -0.28853235010809       -0.46808035627845
N           -1.05227988257437       -1.32780033877196       -0.10544769602459
C           -1.37758587188867       -2.73397685914036        0.00965204541005
H            3.73324936174159        1.25770037877439        1.04799780686905
H            4.06128488081363        0.98278188008801       -0.66697143051433
H            2.78414869457308        2.12450347333276       -0.17461665043306
H            3.58899441502607       -1.58914136713344       -0.02438076736500
H           -1.47634887672137        3.10013742134864        0.20419929735206
H           -2.73497421274901        2.40568885312356       -0.82015943821087
H           -2.77449584312330        2.16442879811123        0.95851434488035
H           -1.20693490303664       -3.12426034328313        1.02457572952103
H           -0.78651802599472       -3.35121447387264       -0.68155286474790
H           -2.42744370470460       -2.82524004940695       -0.23470161778459
H            1.45967531298022       -2.93321296284592        0.02771955110148
