25
 energy: 0.000000000000 xtb: 6.6.1 (8d0f1dd)
C            3.23720132972391        1.16630909158653        0.08434468864950
N            2.29877796055224        0.07527476373246        0.03981602671198
C            2.58028186251803       -1.21425391179017        0.03006175752192
N            1.43813944744728       -1.93419254010258        0.00098261751768
C            0.39035684826767       -1.05887462812143       -0.00790371763344
C            0.93510047688824        0.21347817468824        0.01709077332874
C            0.09450143016486        1.40504290868848       -0.00410946993748
O            0.49712746915594        2.54126690785742       -0.00342325656480
N           -1.25076628431515        1.06271869620815       -0.03085477937476
C           -2.21907191394203        2.15522079838987       -0.05001256521996
C           -1.81739470187490       -0.20012724136556       -0.04692818139228
O           -2.99983858926755       -0.37846413507442       -0.07008877579474
N           -0.92618577614240       -1.30210203518959       -0.03682761236648
C           -1.46982251276835       -2.64643077634382       -0.06029819901142
H            3.71247229913541        1.21471443890471        1.06488839270555
H            4.00791460421487        1.03430799217987       -0.67357688121503
H            2.69909982127087        2.09770098766290       -0.09130154035862
H            3.56654087521359       -1.63682977417947        0.04233139674524
H           -1.67107945562430        3.09322822573871       -0.02552706696334
H           -2.82428927394145        2.09428605349656       -0.95318074103337
H           -2.87644002486466        2.07745706351925        0.81450059976605
H           -1.17061985538665       -3.19584861009707        0.83242224714061
H           -1.14560246782873       -3.17511580834413       -0.95688266944647
H           -2.55549768731684       -2.55659960601237       -0.07459039105944
H            1.38130842369251       -2.94313824728853       -0.01389874052104
25
 energy: -5.528356751507 xtb: 6.6.1 (8d0f1dd)
C            3.24343680804080        1.17526291403907        0.08297039458531
N            2.30038045598608        0.10578927023569        0.03357801823594
C            2.59863003085828       -1.23708875818929        0.03258624717852
N            1.41314740793293       -1.93468709093158        0.01150560682345
C            0.37960732776343       -1.06250902726024       -0.00059131627573
C            0.91071322387198        0.22004597006192        0.01755113227519
C            0.10246692739932        1.37155325476712       -0.00396318185990
O            0.49466862839484        2.54311963955185        0.00078627136719
N           -1.29163460564883        1.03594450482990       -0.04111095240478
C           -2.21318542255084        2.15928744841973       -0.03779779284422
C           -1.87527194766951       -0.20251921578364       -0.09842070434490
O           -3.07494542253956       -0.37704991547107       -0.13309233966236
N           -0.96992223300570       -1.29981604711615       -0.04488930514165
C           -1.46522076467140       -2.65523816391932       -0.05075757057823
H            3.72429428248857        1.22369445780236        1.06481023222061
H            4.01619865081304        1.03655047929832       -0.67769049869773
H            2.70538091579711        2.10426308110856       -0.09629218315069
H            3.58130807361955       -1.64471244369185        0.03632277272740
H           -1.64404870200734        3.08699075866900       -0.00350584402816
H           -2.81427716261252        2.12731088250371       -0.94343565211857
H           -2.86839298611934        2.08589524497168        0.82884061796907
H           -1.16667437785598       -3.18952700205850        0.85625167218573
H           -1.10940881142411       -3.19510499822305       -0.93210217394294
H           -2.54860585094754       -2.59028099640336       -0.09015814817410
H            1.38646146185193       -2.93957075721482       -0.00500841797476
25
 energy: -2.702699073911 xtb: 6.6.1 (8d0f1dd)
C            3.24602073188309        1.17784477155932        0.07965283614145
N            2.29608175326307        0.11031158612378        0.03118557573801
C            2.59702431692568       -1.23508853467790        0.03108006136285
N            1.40510856566001       -1.93099437278587        0.00896378019499
C            0.35915512094886       -1.06512434626711        0.00067295287534
C            0.90045468333650        0.21261529155027        0.01788977877920
C            0.08543138693229        1.35178592147854       -0.00541979622930
O            0.48328618106707        2.52086150700315       -0.00158503581089
N           -1.31963017180537        1.01792716134161       -0.04907181914998
C           -2.20734869135993        2.16732398001354       -0.02567027021966
C           -1.93824565479411       -0.21026503203117       -0.14807848027354
O           -3.13782929682574       -0.37043707528237       -0.20110826738143
N           -1.00356885161924       -1.29939075847935       -0.05314524389070
C           -1.45906420013335       -2.66783942863248       -0.04171903543196
H            3.72921917304994        1.22973215438005        1.06135284467895
H            4.02307055241945        1.03587107071842       -0.67873760280675
H            2.71215336244008        2.10829168863286       -0.10278762618307
H            3.58523418526166       -1.63913966807083        0.02660107885715
H           -1.62317607350522        3.08610872746629        0.01766574587229
H           -2.80484578274732        2.15995390876995       -0.93210602117483
H           -2.85950010442922        2.09441842835814        0.84245542392263
H           -1.16471360388800       -3.18208474155700        0.88031551089885
H           -1.07479178984579       -3.21445578570208       -0.90767058114876
H           -2.54028099580439       -2.62716443490240       -0.10541075077853
H            1.40056094704434       -2.93674381941596        0.00018939001950
25
 energy: 1.981758200896 xtb: 6.6.1 (8d0f1dd)
C            3.24847165601874        1.18060097450700        0.07559143124729
N            2.29030737540879        0.11659703930837        0.02750233457336
C            2.59389551848947       -1.22905940792479        0.03385873594291
N            1.40431673841104       -1.93126645864971        0.00192193043802
C            0.34189854045709       -1.07141852746207       -0.00738604804108
C            0.88925222127572        0.20436670225517        0.01023801597241
C            0.06677702221318        1.33383815728546       -0.01456754955379
O            0.46799633939505        2.50238905990051       -0.01790438520412
N           -1.34936362951301        1.00130184293860       -0.05943550402973
C           -2.20254071270956        2.17603363640339       -0.01400013055311
C           -1.99967632630487       -0.21653449929668       -0.20108195874513
O           -3.19817000445758       -0.36253763446802       -0.27491617181883
N           -1.03527597861844       -1.30169429045094       -0.07264403551860
C           -1.45306017839276       -2.68118931937577       -0.03456869864026
H            3.73352389366138        1.23529710212879        1.05734607273940
H            4.02998067250721        1.03328736930451       -0.67980936263094
H            2.71962754124482        2.11284665826203       -0.10991762957627
H            3.58829988980568       -1.62575820329392        0.01655532144261
H           -1.60346744629930        3.08578617078609        0.03837510741981
H           -2.79767982474545        2.19489887152009       -0.91997106019353
H           -2.85061694075102        2.10412262903534        0.85624861690247
H           -1.16397862175072       -3.17402415196855        0.90327485681504
H           -1.04235487319767       -3.23687072017107       -0.88330938690678
H           -2.53166602713924       -2.66500311158387       -0.12053885693334
H            1.41804602882884       -2.93686070579173        0.00529570545800
25
 energy: 7.927869538227 xtb: 6.6.1 (8d0f1dd)
C            3.25150352454907        1.18325091485612        0.07054815684777
N            2.28339705874456        0.12465405644013        0.02267459433106
C            2.58821376678153       -1.21962930990452        0.04081344448255
N            1.40640306501462       -1.93201959039806        0.00501998054058
C            0.33199453564794       -1.07787980906970       -0.02146094310281
C            0.87973683735681        0.19838912316088       -0.00158541159232
C            0.05054790435214        1.32214881713713       -0.03269293788370
O            0.46322703409829        2.48840429962868       -0.03776291041486
N           -1.37845163087078        0.98806556776720       -0.07411745894284
C           -2.19868410737607        2.18529585920682       -0.00316587807405
C           -2.05690425645200       -0.22036872981417       -0.25117722281609
O           -3.25264181567395       -0.35617486489968       -0.34755204331615
N           -1.04938532923797       -1.31257551066538       -0.09313549602859
C           -1.44425651997271       -2.69658870933665       -0.02835809585773
H            3.73814677558154        1.24054072728326        1.05227109877879
H            4.03718095961947        1.02789433138901       -0.68054878318777
H            2.72872641647785        2.11774514675336       -0.11841272611313
H            3.58773390223463       -1.60796103037722        0.01267254450927
H           -1.58496873055257        3.08585812998428        0.05831456978516
H           -2.79279300660321        2.23033501878370       -0.90743389920637
H           -2.84129305477104        2.11326784791219        0.87010714890963
H           -1.16493179082513       -3.16815266921360        0.92532422519900
H           -1.01086979574126       -3.26161653226856       -0.86008970989763
H           -2.52063255972299       -2.70077917027649       -0.13619567660788
H            1.43608619134866       -2.93715024440360        0.01206940922572
25
 energy: 15.762156834214 xtb: 6.6.1 (8d0f1dd)
C            3.25439881190995        1.18338322998682        0.06635202024611
N            2.27630713697808        0.12815276767268        0.02117975360950
C            2.58673047127706       -1.21110116634838        0.05064976278200
N            1.41307534398309       -1.93484738784671        0.00583221659434
C            0.32966865239141       -1.08669528663923       -0.03517337581354
C            0.87376721521878        0.19089516641956       -0.01182246103290
C            0.04036905746655        1.31301063895807       -0.05167914281343
O            0.46901992746707        2.47422111883513       -0.04271443205139
N           -1.40549387713424        0.98434389803676       -0.09191004698391
C           -2.19533441240162        2.19833352358402        0.00781188392400
C           -2.11700453556743       -0.20494356166255       -0.29493614262953
O           -3.30808376263105       -0.34173606871226       -0.41868434146323
N           -1.04843944664572       -1.32387879727161       -0.10417861861192
C           -1.43195617255372       -2.70918891335201       -0.02028569375831
H            3.74293127968999        1.24711396811965        1.04750326509503
H            4.04469497326760        1.02037793345154       -0.67926062737250
H            2.73748188523253        2.12015700859420       -0.12664322433164
H            3.58770126689667       -1.59188427991041        0.01256486963772
H           -1.56482954763140        3.08666484505983        0.07976161314726
H           -2.78966418623582        2.26926431760411       -0.89401846677007
H           -2.83183890020838        2.12324193827126        0.88468021418489
H           -1.16331253153450       -3.15862525834501        0.94853141758143
H           -0.97551317631036       -3.28302925313559       -0.83443622817471
H           -2.50648371655771       -2.73499269425041       -0.14993357798155
H            1.45496810129803       -2.93913626873120        0.01716837865626
25
 energy: 26.403975849298 xtb: 6.6.1 (8d0f1dd)
C            3.25777473489319        1.18255865003658        0.06380271138078
N            2.27074752541874        0.12888521732751        0.02355158337822
C            2.59099964598568       -1.20293557447367        0.06332240898329
N            1.42434217505301       -1.93857236484605        0.00395425794763
C            0.33201306504765       -1.09728648707495       -0.04437329409080
C            0.87112828591910        0.18276811481773       -0.01768414947492
C            0.03100311239379        1.30925786130462       -0.06149495480864
O            0.47937356152797        2.46381690791483       -0.04781364966983
N           -1.41501492636357        0.98965781351980       -0.10373437796088
C           -2.18852836432014        2.21257526768759        0.02098096554954
C           -2.17329189855679       -0.17973563637760       -0.35731876880846
O           -3.36430989783973       -0.31248123000413       -0.47872476432842
N           -1.03836929704170       -1.34120197418186       -0.11208300153690
C           -1.41891211643105       -2.72441558343729       -0.01049880479704
H            3.74902018720380        1.25088101850871        1.04367961821197
H            4.05059923159274        1.00905640757280       -0.67671168931280
H            2.74898870165492        2.12340154907675       -0.13273885252645
H            3.59079990260045       -1.57776136641425       -0.00142568826607
H           -1.54755023651899        3.09154050419749        0.10304498918629
H           -2.78131108295186        2.30468729368395       -0.87987030015940
H           -2.82316933778541        2.13166828925352        0.89847632787538
H           -1.16621230007654       -3.15414721613532        0.97306086862412
H           -0.94597728083527       -3.30857892790398       -0.80844230210896
H           -2.49105775225132       -2.76572454516441       -0.16053505141221
H            1.47751763359641       -2.94162859986994        0.02038133327521
25
 energy: 42.759966108555 xtb: 6.6.1 (8d0f1dd)
C            3.25379497077095        1.17803230425841        0.06253075882897
N            2.26309792005037        0.12417365702060        0.02524062259102
C            2.59627636947640       -1.19345725156553        0.06976212485513
N            1.43914482006868       -1.94462097144587        0.01021483699474
C            0.33490693970574       -1.10906285046291       -0.04334141486763
C            0.87088090844011        0.17600328231198       -0.01761494892422
C            0.02273466061771        1.31233383777013       -0.05975943727933
O            0.49090137274413        2.45882910620149       -0.04094754326781
N           -1.42142632003611        1.00344648486350       -0.10955169941561
C           -2.17899330294996        2.23329826377810        0.03505596994547
C           -2.25301090860425       -0.13479936678649       -0.41558310520036
O           -3.44976970380669       -0.25735857824059       -0.44906961575081
N           -1.00693973952640       -1.36955464426075       -0.10352512150541
C           -1.39633102449351       -2.74409757333615       -0.00084973182318
H            3.73599760369863        1.24925269740774        1.04627859219354
H            4.04994446034036        0.99512301784606       -0.67227826841257
H            2.75302387226437        2.12276654436631       -0.14135175136564
H            3.59504096655662       -1.56739371745406       -0.01645347780125
H           -1.52620120506978        3.10090363553780        0.11926844281580
H           -2.77451203797069        2.33956553163109       -0.86254259198783
H           -2.80832699160918        2.14729582173055        0.91567831445563
H           -1.16746125740164       -3.15642303048053        0.99560864926162
H           -0.90488081499068       -3.33362410001474       -0.78353033107720
H           -2.46563566686058       -2.79577918574213       -0.17604985946666
H            1.49641977575275       -2.94677170362002        0.02842958960607
25
 energy: 80.475971305578 xtb: 6.6.1 (8d0f1dd)
C            3.25093775035576        1.17210359060695        0.06116246336910
N            2.25920500030743        0.10488818625427        0.02614232173568
C            2.60363631801132       -1.17195870160058        0.04992497623419
N            1.49380346845009       -1.95278560002773        0.01243784916393
C            0.34445229178927       -1.13212961023187       -0.02401522385926
C            0.88087381600958        0.16869575472078       -0.01055073988320
C            0.00674679166949        1.33429574165170       -0.05346300040485
O            0.53563196868689        2.45081415037969       -0.02854624420975
N           -1.37140292544277        1.07268317322412       -0.08151550647364
C           -2.15890372658451        2.26314650438918        0.05437507216432
C           -2.48489243833742       -0.15058314693973       -0.60902598114414
O           -3.63392303375899       -0.16375275026722       -0.37505372725570
N           -0.92059442599616       -1.43075839609878       -0.04649272422386
C           -1.36499838013442       -2.77662316954700        0.01179392734180
H            3.72584773953622        1.24638734323141        1.04597838186371
H            4.05154574826272        0.98665357248170       -0.66516105524623
H            2.75713638279614        2.12070266178069       -0.14688508678749
H            3.60889766118471       -1.54376273955680       -0.02291294884808
H           -1.51759569774267        3.13392779778140        0.14679293593080
H           -2.75696312757301        2.37308534573376       -0.84705116647825
H           -2.80005155038317        2.15844582763793        0.92620097068414
H           -1.18563195337102       -3.17757650876195        1.01600287548368
H           -0.86816082178212       -3.36805136190267       -0.76024448275689
H           -2.43473965381485       -2.81461092435337       -0.18838206522599
H            1.53419560998649       -2.95454877946427        0.03056146207511
25
 energy: 100.747213452005 xtb: 6.6.1 (8d0f1dd)
C            3.24951873718348        1.17058760991340        0.05865599154157
N            2.26145347293654        0.10395170938254        0.02401364421182
C            2.61544040546645       -1.16753955509821        0.03923940299917
N            1.52215071094154       -1.95675106021015        0.00360538473531
C            0.36120640855460       -1.14076182711597       -0.01024265169938
C            0.88866307397338        0.17324155231506       -0.00390375908555
C            0.03249048252314        1.36784534987425       -0.04047136219763
O            0.58857827917572        2.47273824281569       -0.02098048880900
N           -1.31457142328653        1.11931772761464       -0.04240102804060
C           -2.13048910692788        2.27881742009527        0.06953479017865
C           -2.71625751442955       -0.21373369092082       -0.71921050794482
O           -3.80012820699013       -0.11556065989117       -0.36399448732063
N           -0.88202379597036       -1.45579832339921       -0.00679952312768
C           -1.34543056864837       -2.79130629361391        0.01683685666433
H            3.71840406852895        1.24175462183087        1.04535938785152
H            4.04824673573109        0.97903252346592       -0.66581847213441
H            2.76201412439418        2.12238347190405       -0.15237111407933
H            3.62275787139818       -1.52768042535545       -0.03241448555610
H           -1.50179572949472        3.15602093539533        0.16702711674681
H           -2.73385307923533        2.39261922332917       -0.83201662140338
H           -2.78453915177195        2.16418299947831        0.93453313597127
H           -1.20859180659829       -3.19205642058098        1.02677428403161
H           -0.83075945350245       -3.38785172915068       -0.73662807219897
H           -2.41015397278056       -2.82648000356990       -0.21435308586532
H            1.56057165138479       -2.95794805823382        0.03294189174769
25
 energy: 105.680193575791 xtb: 6.6.1 (8d0f1dd)
C            3.25158562968617        1.16772357876868        0.05627025936082
N            2.26899264586749        0.10103010780176        0.02121156655741
C            2.62911353044732       -1.16778629705547        0.02757061057745
N            1.54697891037357       -1.96135138784313        0.00691450909954
C            0.37880346697442       -1.14515713583512        0.00961967422540
C            0.90036072473055        0.17947451120296        0.00835775165311
C            0.06432313085449        1.39217390776581       -0.01551723257377
O            0.62902372743778        2.49314365441765       -0.02487944788516
N           -1.26904158011813        1.15027746929516       -0.02611109034900
C           -2.10353796622119        2.28971930958058        0.08384687650214
C           -2.93188890874687       -0.28034161915493       -0.81880803472122
O           -3.94217696699648       -0.06289643176117       -0.35087416501540
N           -0.84579095083564       -1.47227450356908        0.01687739351333
C           -1.32806198487936       -2.79837902549917        0.02328725030900
H            3.71309088521020        1.23792195661879        1.04523273376422
H            4.04852024288347        0.97228681808901       -0.66516488921788
H            2.76884427994035        2.12193347708452       -0.15853716920691
H            3.63849903747133       -1.51771435847850       -0.03490636863709
H           -1.48325750640440        3.17022958827137        0.19206048908129
H           -2.71538351924586        2.41024841939768       -0.81490526455178
H           -2.76791658899848        2.16973261743268        0.94391028438003
H           -1.22979735989491       -3.20181730931681        1.03635059037880
H           -0.79335876168772       -3.39522641490037       -0.71157880016009
H           -2.38463858820391       -2.82465507549997       -0.24465013977182
H            1.58424366928156       -2.96205314870306        0.03339135072303
25
 energy: 106.096699287124 xtb: 6.6.1 (8d0f1dd)
C            3.25886055482829        1.16668994777427        0.05099242906793
N            2.28101605181603        0.10013011125345        0.01704072975893
C            2.64360713208801       -1.16793894366006        0.01838758618648
N            1.56416217953944       -1.96235066047414        0.01011563715442
C            0.39529661316692       -1.14636629686525        0.02402770518625
C            0.91305653487890        0.18345275395709        0.01468508550270
C            0.08797445893182        1.40281722482361       -0.00727057417275
O            0.65224731112261        2.50582332838358       -0.02886832514901
N           -1.24179362355874        1.16616162278834       -0.01661566438465
C           -2.08626676167271        2.29864167062738        0.09584119367727
C           -3.07581151534148       -0.30602638918267       -0.87906069914234
O           -4.04051820411072       -0.03173555316551       -0.35415267493844
N           -0.82265860930552       -1.48505351200296        0.03890753702567
C           -1.31042865885451       -2.80858893175559        0.03059339274944
H            3.71758988686962        1.23336911976728        1.03974153061892
H            4.05078012222135        0.96701125910840       -0.67119634138883
H            2.77761186198340        2.12234506916008       -0.16398687048499
H            3.65273761308565       -1.52102179902319       -0.02477030181971
H           -1.46773829938263        3.17571039026098        0.21754509858161
H           -2.69545666974749        2.43355406366964       -0.80236261408534
H           -2.75460441179395        2.17761439126160        0.95521168335923
H           -1.24879617638331       -3.21674159874725        1.04393040845354
H           -0.75597755648386       -3.40374206434162       -0.68631782741580
H           -2.35696949814083       -2.83324541089780       -0.26862944004064
H            1.60474461240691       -2.96299699033607        0.03409811845431
25
 energy: 106.074139089509 xtb: 6.6.1 (8d0f1dd)
C            3.26932640121833        1.17123404953380        0.04970165356745
N            2.29609225844386        0.10188183152804        0.01606815980006
C            2.66058342373750       -1.16679099048449        0.01140274793367
N            1.58380154100072       -1.96216377030165        0.01208512643014
C            0.41506177580494       -1.14570881624487        0.02895674810869
C            0.92799780150992        0.18836287178469        0.01898180822742
C            0.11256898128542        1.41300336859019       -0.00241250489610
O            0.67575713447595        2.51784685236328       -0.03345220400493
N           -1.21398243195373        1.18159440942572        0.00100936027834
C           -2.06901680865634        2.30691646009461        0.10528159723258
C           -3.21806648266055       -0.33114477185041       -0.92636713408716
O           -4.13455002868610       -0.02529350778912       -0.33856566394305
N           -0.79509342274322       -1.49974879044277        0.05834307527253
C           -1.28904759466825       -2.82020622026520        0.03406194520906
H            3.72767460462856        1.24022004335282        1.03890106491763
H            4.05881011130539        0.97626990770399       -0.67665544377245
H            2.78482547482982        2.12394619482573       -0.16917106659272
H            3.66828720174897       -1.52634065455759       -0.01850735034466
H           -1.47050334526167        3.19659329807383        0.23249812938063
H           -2.67355377029522        2.44033609500023       -0.79403884059006
H           -2.74914834154538        2.18273929984102        0.95660126657345
H           -1.25098213974654       -3.23715506543764        1.04185647969033
H           -0.72485882036462       -3.42496368035830       -0.66374533642943
H           -2.32624816316415       -2.83612727059705       -0.28921229067341
H            1.62969356960125       -2.96310308932737        0.03230266292080
25
 energy: 105.917938286954 xtb: 6.6.1 (8d0f1dd)
C            3.28029199324717        1.17573710512990        0.05017627085304
N            2.31232537293485        0.10425912809720        0.01600344104353
C            2.67902607437901       -1.16594748512248        0.00535160419991
N            1.60386220070295       -1.96161082396397        0.01244912828717
C            0.43749855551097       -1.14207396534360        0.03302654250121
C            0.94578677165676        0.19283095938634        0.02445105093881
C            0.13764652173005        1.42033504874271        0.00229145215137
O            0.69934024402805        2.52682354044895       -0.03644423318407
N           -1.18474404580282        1.18883220086771        0.02083760758255
C           -2.05228234469774        2.30595785518621        0.11019525213512
C           -3.35774507051751       -0.37174074341922       -0.95720890424536
O           -4.24012415786342       -0.03121719565951       -0.33995116368529
N           -0.76432461975436       -1.51123529840348        0.08031357475356
C           -1.26552185819246       -2.82720942547293        0.04182017067339
H            3.73901223072432        1.24342343343028        1.04014556631524
H            4.06798827010662        0.98455132733425       -0.67953226302726
H            2.78476921574434        2.12152748634417       -0.17173534276158
H            3.68766266125999       -1.52474931631922       -0.01545692179302
H           -1.47631742370438        3.21194395111542        0.24231328954727
H           -2.66134878085487        2.40751992529348       -0.79240879911479
H           -2.73553392798370        2.17279404511813        0.95692837247708
H           -1.23223307179147       -3.24640482020121        1.04661388005035
H           -0.69612038997647       -3.44112492959761       -0.63980123375289
H           -2.29931653031799       -2.81932177045441       -0.28896820992601
H            1.63950450354089       -2.96392122184206        0.02632251215755
25
 energy: 105.649031348185 xtb: 6.6.1 (8d0f1dd)
C            3.29047573171161        1.17826045689284        0.05194404415318
N            2.32673968304391        0.10381898631198        0.01768779472958
C            2.69504870455031       -1.16823715322936        0.00035876164292
N            1.61885472922178       -1.96211366773351        0.00862356658015
C            0.45346696817255       -1.14175505476853        0.03502101068012
C            0.96085618285172        0.19352973638318        0.03245924401681
C            0.15969511227248        1.42457668081434        0.00888860837379
O            0.72402603666665        2.53018559696911       -0.03916052563366
N           -1.15989821355330        1.19313783025853        0.04524995875226
C           -2.04138342282548        2.30408931896361        0.11093243490137
C           -3.49983710594301       -0.41051653568792       -0.99622271011551
O           -4.32420789179157       -0.02241651513352       -0.32844829038053
N           -0.74352217358337       -1.52453437694372        0.10841179616511
C           -1.25677590158004       -2.83657114571599        0.05044830889255
H            3.74834978162972        1.25036733058938        1.04269468931464
H            4.07848921601704        0.98940088486642       -0.67897494929421
H            2.78397572134005        2.11760870057677       -0.17259338380326
H            3.70520403412231       -1.52368838995352       -0.01002507253488
H           -1.48727057756957        3.22759775390756        0.24257714670402
H           -2.65312444759125        2.37555142016683       -0.79778032888555
H           -2.72848511503488        2.16995815511544        0.95412252470214
H           -1.22773422640379       -3.26787461991303        1.05187589978187
H           -0.68273960320051       -3.45807811229319       -0.62081533660523
H           -2.29282501738219       -2.79341341650456       -0.28108597732095
H            1.62850862732399       -2.96635656657035        0.01060136492949
25