25
 energy: -51.901685886777 gnorm: 12.427548045655 xtb: 6.6.1 (8d0f1dd)
C            3.21786164340000        1.13591514650000        0.01837059260000
N            2.27034809790000        0.05199982890000        0.00038279530000
C            2.54167221030000       -1.23971668410000       -0.00834188300000
N            1.39367826450000       -1.95088267900000       -0.00850347120000
C            0.35269634020000       -1.06748964300000        0.00059917290000
C            0.90759959010000        0.20069750900000        0.00663590170000
C            0.07590235260000        1.39864294500000       -0.00284827040000
O            0.48715076820000        2.53168346660000       -0.01725767220000
N           -1.27221500230000        1.06666939660000        0.00165480230000
C           -2.23229981500000        2.16656245330000       -0.00245172030000
C           -1.84872931540000       -0.19179276200000        0.00496135950000
O           -3.03273030250000       -0.36103538130000        0.00858583760000
N           -0.96599111670000       -1.30060631840000        0.00174701630000
C           -1.52030655580000       -2.64076660390000       -0.00239033190000
H            3.71480285180000        1.18589984860000        0.98803183970000
H            3.97079415090000        0.99383197990000       -0.75543416370000
H            2.68321036910000        2.07051068580000       -0.15067179540000
H            3.52469367910000       -1.66989040330000       -0.01523639120000
H           -1.67672429040000        3.10039111610000        0.00486339690000
H           -2.85755792270000        2.10547813320000       -0.89185337000000
H           -2.87119733260000        2.09858159720000        0.87661144540000
H           -1.20589108080000       -3.18768007210000        0.88663215920000
H           -1.21982032550000       -3.17678505510000       -0.90288069810000
H           -2.60531402170000       -2.54255916880000        0.00649952960000
H            1.32879827740000       -2.95942079410000       -0.01653446370000
25
 energy: -68.196450854675 gnorm: 20.181048106821 xtb: 6.6.1 (8d0f1dd)
C            3.21785115898081        1.13593242507573        0.01838136812457
N            2.27037269797274        0.05217387006359        0.00038017314816
C            2.54178335466523       -1.23981180834384       -0.00835170024593
N            1.39361219743011       -1.95093068159139       -0.00851728530218
C            0.35285248395416       -1.06748301225131        0.00059330031305
C            0.90751928664045        0.20076804722746        0.00663695995615
C            0.07591515779305        1.39855954662192       -0.00279925101297
O            0.48714166648511        2.53176367904518       -0.01723836721025
N           -1.27293141194386        1.06691914097410        0.00167243031880
C           -2.23234847626731        2.16652716614738       -0.00245642527265
C           -1.84406977709687       -0.19396570363364        0.00477670565527
O           -2.84014616838431       -0.66556477380116       -0.09060463916104
N           -0.96508707740549       -1.30027576839078        0.00193100556516
C           -1.52169985107945       -2.63832464403147        0.00050185725346
H            3.71479839813540        1.18591542653793        0.98804221775351
H            3.97078740033727        0.99386178042683       -0.75542900966707
H            2.68320118397487        2.07052476651178       -0.15065682462787
H            3.52469538557695       -1.66986615849364       -0.01524928167926
H           -1.67674190007467        3.10038405341867        0.00488831267853
H           -2.85758172546686        2.10546053238886       -0.89183872673157
H           -2.87122189760888        2.09854735824752        0.87662795232278
H           -1.20575238999686       -3.18791005277484        0.88646836912498
H           -1.41598649822530       -2.87311648061219       -0.80668351233249
H           -2.60534832873696       -2.54244476294440        0.00665249682217
H            1.32881664444068       -2.95940540421830       -0.01655650789331
25
 energy: -92.305870458651 gnorm: 28.119931320000 xtb: 6.6.1 (8d0f1dd)
C            3.21784738278139        1.13593720485094        0.01838801903723
N            2.27039925771786        0.05226379754230        0.00038233328268
C            2.54185627331488       -1.23987388506642       -0.00833525021194
N            1.39365081622347       -1.95095813963544       -0.00849688036881
C            0.35297015871206       -1.06768100672543        0.00064485473104
C            0.90743508955192        0.20086319390465        0.00663245975511
C            0.07603226790900        1.39844784473485       -0.00276324715698
O            0.48709023853719        2.53179471277059       -0.01725864792632
N           -1.27377661080221        1.06695591660670        0.00170697138490
C           -2.23244923228701        2.16649750472027       -0.00250250888720
C           -1.83717164189831       -0.19468061543297        0.00473668771187
O           -2.64993150933542       -0.97248677792519       -0.19088937401645
N           -0.96269502609627       -1.29989132247502        0.00246198709668
C           -1.52365331444158       -2.63457246430488        0.00881478650279
H            3.71479430913769        1.18592859879012        0.98804996224228
H            3.97078887465215        0.99386279609182       -0.75542119055934
H            2.68320296731846        2.07052382487062       -0.15066185650915
H            3.52469503287498       -1.66985543381922       -0.01522385206303
H           -1.67675285082849        3.10038951819954        0.00485757209621
H           -2.85758656583391        2.10546033522901       -0.89188259452191
H           -2.87123473743252        2.09856196956361        0.87660928667212
H           -1.20559867780919       -3.18812520368371        0.88625075650776
H           -1.61272322802503       -2.56939420928041       -0.71553779295446
H           -2.60557417615402       -2.54233383432524        0.00714176063270
H            1.32881641631289       -2.95939578360105       -0.01653262457778
25
 energy: -124.454994205359 gnorm: 36.176708657009 xtb: 6.6.1 (8d0f1dd)
C            3.21783298016392        1.13597045535266        0.01841706227306
N            2.27043865577054        0.05239009963724        0.00041126080077
C            2.54197032610687       -1.23993294283467       -0.00825845687941
N            1.39376683092281       -1.95099329769739       -0.00842255049299
C            0.35327253610197       -1.06795916444324        0.00079111039041
C            0.90731560069417        0.20102125813922        0.00662810002117
C            0.07631310526207        1.39827686425950       -0.00275061347456
O            0.48697354968431        2.53183034428828       -0.01733897464475
N           -1.27486325976593        1.06675118291993        0.00169742694171
C           -2.23257715287617        2.16647588003589       -0.00264589555759
C           -1.83228324036401       -0.19539526118704        0.00466787154614
O           -2.45934065044118       -1.27700909823662       -0.29240581644170
N           -0.95890406829084       -1.29921055288217        0.00358120182453
C           -1.52277160888342       -2.63439543926252        0.02254628834311
H            3.71476262832066        1.18599673336855        0.98808691051113
H            3.97079288339642        0.99388000503277       -0.75537556400850
H            2.68318952344065        2.07053947107877       -0.15067578662754
H            3.52470858077144       -1.66981124220805       -0.01510544951474
H           -1.67679068021509        3.10038109591379        0.00472154149188
H           -2.85759487428377        2.10542045488559       -0.89202940346479
H           -2.87127756092881        2.09858079761586        0.87649091832893
H           -1.20534803015062       -3.18837473659743        0.88603005040923
H           -1.81200663802881       -2.26420043042524       -0.62943835148889
H           -2.60598890192966       -2.54262297669436        0.00797262402541
H            1.32884097962249       -2.95937095845935       -0.01642388641201
25
 energy: -163.620043116343 gnorm: 37.940159148235 xtb: 6.6.1 (8d0f1dd)
C            3.21779716048020        1.13605872725915        0.01844069540168
N            2.27045201435264        0.05266366194190        0.00034339433148
C            2.54220996023198       -1.24001097482355       -0.00846748409999
N            1.39383349246299       -1.95107220773993       -0.00868672769736
C            0.35393268277178       -1.06802074187429        0.00076478750796
C            0.90720489737155        0.20118819983651        0.00660529007026
C            0.07649747299198        1.39802728798214       -0.00255885396933
O            0.48684774293517        2.53199300602070       -0.01708206326711
N           -1.27573255654822        1.06667763422500        0.00183969910071
C           -2.23270767866319        2.16640071926219       -0.00236605930247
C           -1.82911296144693       -0.19618355364236        0.00476508669068
O           -2.26781197145530       -1.57768195812981       -0.39689191258553
N           -0.95555106504818       -1.29859706964414        0.00495985425104
C           -1.52049911381772       -2.63686817093277        0.02855833098508
H            3.71476041719558        1.18600257759132        0.98809901697555
H            3.97073543532466        0.99406998295952       -0.75539658399398
H            2.68312320276896        2.07062236095133       -0.15054190917018
H            3.52474242210803       -1.66969900996467       -0.01537727678158
H           -1.67688738595408        3.10033259148541        0.00510514164138
H           -2.85769435648096        2.10544482577358       -0.89172434374184
H           -2.87131184053393        2.09842454991432        0.87682458648212
H           -1.20494396895893       -3.18882073384266        0.88571705624164
H           -2.01190048525074       -1.95975258540441       -0.53376677928127
H           -2.60648097532128       -2.54364893076262        0.00876793995596
H            1.32892897258395       -2.95931164684185       -0.01675926784489
25
 energy: -171.719952770213 gnorm: 12.137315763309 xtb: 6.6.1 (8d0f1dd)
C            3.21772817526832        1.13623619684242        0.01846519890837
N            2.27044018019602        0.05302287849722        0.00015752046092
C            2.54252870258245       -1.24001294126436       -0.00902881902863
N            1.39391817211061       -1.95118394281449       -0.00934968147008
C            0.35460853492259       -1.06793775477730        0.00058137706577
C            0.90717106242821        0.20143765676721        0.00656802552215
C            0.07650362630213        1.39781453451979       -0.00217239360993
O            0.48670468055514        2.53221441615530       -0.01640319311757
N           -1.27618182854149        1.06680728816892        0.00212836417125
C           -2.23287297285838        2.16622877087595       -0.00155567221169
C           -1.82686183098769       -0.19670464664265        0.00514556022953
O           -2.07524550521105       -1.87640101542709       -0.50537816047690
N           -0.95126906801837       -1.29790726373850        0.00655418679464
C           -1.51813917947897       -2.63896571417770        0.03050033289863
H            3.71478459898043        1.18595031630147        0.98808830992287
H            3.97059707451452        0.99449931452467       -0.75549045494618
H            2.68297960345314        2.07080609372073       -0.15021512130154
H            3.52481809939610       -1.66948452837748       -0.01613685928884
H           -1.67707642976964        3.10022311590101        0.00613899809224
H           -2.85791522482306        2.10552756714639       -0.89085256780656
H           -2.87134904099222        2.09802032852172        0.87771424060945
H           -1.20463015010458       -3.18927834469070        0.88544045788049
H           -2.21252258488421       -1.65819596745191       -0.43116328455884
H           -2.60739159120426       -2.54527112286250        0.00908394905801
H            1.32910441026426       -2.95920669411813       -0.01764869589755
25
 energy: -163.322308805783 gnorm: 163.987713763241 xtb: 6.6.1 (8d0f1dd)
C            3.21785827007433        1.13598196491940        0.01810865110240
N            2.27046008602408        0.05439172340828       -0.00079615461967
C            2.54394622941995       -1.24115258328671       -0.01109695121717
N            1.39368139008498       -1.95270065128141       -0.01154121920438
C            0.35769348329907       -1.06668479118454        0.00040906671011
C            0.90714836357848        0.20304017582530        0.00592110430841
C            0.07741569645278        1.39625659650971       -0.00112870945935
O            0.48725485495425        2.53372852431061       -0.01443749361543
N           -1.27524783712148        1.06569383095528        0.00338454642586
C           -2.23263340115497        2.16611864255083        0.00125596123952
C           -1.83377109206012       -0.18617472499232        0.00906097254038
O           -2.14800571958428       -1.79089107077564       -0.52457016319689
N           -0.93092478282654       -1.29186859309070        0.01722042048402
C           -1.48107244087538       -2.67260687807289        0.04324771412148
H            3.71532292070525        1.18488463627733        0.98756635016692
H            3.97035401673217        0.99480565383358       -0.75632304986413
H            2.68305715453604        2.07068464120289       -0.14959494345955
H            3.52458414104307       -1.66968456357979       -0.01887541488572
H           -1.67679072689625        3.10033615673490        0.00946738279036
H           -2.85811212210171        2.10657873007669       -0.88784749225712
H           -2.87074611748868        2.09762832538370        0.88079668631228
H           -1.20661399335092       -3.18987660898874        0.88689643156502
H           -2.18635808378914       -1.71992067547681       -0.44574940697334
H           -2.61701448837950       -2.55123043066968        0.01023794742028
H            1.32894571282450       -2.95909948898928       -0.02044061853429
25
 energy: -171.993642547812 gnorm: 11.422752430685 xtb: 6.6.1 (8d0f1dd)
C            3.21811797075063        1.13536475276691        0.01703756397721
N            2.27047765434535        0.05436651071675       -0.00344821335580
C            2.54406996094851       -1.24180488293812       -0.01752443092871
N            1.39331851323184       -1.95327531005521       -0.01825657343310
C            0.35823451998754       -1.06637260303323       -0.00230717605067
C            0.90722260240368        0.20330533685452        0.00545057414059
C            0.07789710573453        1.39588919698908        0.00281807184445
O            0.48781419172486        2.53409048666304       -0.00802148122211
N           -1.27466608722040        1.06550509894425        0.00834299910770
C           -2.23218603165316        2.16649792563846        0.01049172482019
C           -1.83658780228638       -0.18256887429022        0.01239473662807
O           -2.16493605080608       -1.79037667207267       -0.61786634685062
N           -0.92650425942420       -1.29018395213080        0.01825689599482
C           -1.47160822692340       -2.68122004986178        0.04174291124892
H            3.71693574737548        1.18161274881556        0.98593867902028
H            3.96950351829069        0.99608829713390       -0.75882629661730
H            2.68324112640280        2.07059857648105       -0.14745556317349
H            3.52424573446040       -1.67026291907865       -0.02778156005415
H           -1.67618345843803        3.10065403970723        0.02038974153265
H           -2.85893952297954        2.10951600193099       -0.87791592092260
H           -2.86910699115879        2.09589472434414        0.89074505035329
H           -1.20658331418399       -3.19193078001360        0.88142914235245
H           -2.18190239988142       -1.71184316103756       -0.36265646321780
H           -2.61984669474896       -2.55208071070509        0.00788144783328
H            1.32840370814805       -2.95922524016892       -0.02968789512753
25
 energy: -163.619738472841 gnorm: 38.697142696710 xtb: 6.6.1 (8d0f1dd)
C            3.21787355797895        1.13607106803514        0.01926067505804
N            2.27056806809468        0.05358672330261        0.00317296244517
C            2.54311719339872       -1.24063658385386       -0.00066829933875
N            1.39422233654611       -1.95226271515453       -0.00025226843067
C            0.35707307444207       -1.06651723484775        0.00590095714544
C            0.90752596214736        0.20312623386884        0.00628364980246
C            0.07734295355165        1.39726198994075       -0.00768991655750
O            0.48719429375350        2.53304179620403       -0.02549948178492
N           -1.27999740026718        1.06633393486316       -0.00441186222637
C           -2.23294296766972        2.16616256484527       -0.01417766808015
C           -1.80031314651596       -0.20046689932793        0.00449485680870
O           -2.05880804039296       -1.97038494623488       -0.42619338661544
N           -0.92983765891000       -1.28966437624240        0.02169260719325
C           -1.50281144224072       -2.63705662032027        0.06119640126155
H            3.71319361592668        1.18931044487662        0.98958304740164
H            3.97200643325509        0.99136032754712       -0.75287012239031
H            2.68341450056373        2.06999801155396       -0.15380944131358
H            3.52473171933830       -1.66983409857367       -0.00437473629339
H           -1.67679306749791        3.10037197546087       -0.00884535936160
H           -2.85614841525996        2.10249250105193       -0.90418725367311
H           -2.87264216249577        2.10152816819920        0.86436793387969
H           -1.20759089396312       -3.18868003241294        0.89693442711544
H           -2.28418610360867       -1.57049186629522       -0.54891019856904
H           -2.61464539956297       -2.54708122325045        0.01505046250576
H            1.32888450348811       -2.95933060163560       -0.00487636808231
25
 energy: -172.202504548599 gnorm: 1.264420029310 xtb: 6.6.1 (8d0f1dd)
C            3.21786074423125        1.13618010897555        0.01800479896164
N            2.27058753589787        0.05427328955673       -0.00112689629084
C            2.54371343822040       -1.24076756478687       -0.01168965308960
N            1.39428403009217       -1.95262187522062       -0.01202643146148
C            0.35854135578387       -1.06580514009400        0.00112808240140
C            0.90760256749317        0.20380367703245        0.00565087036025
C            0.07762296875775        1.39673390530904       -0.00060371322764
O            0.48710523471268        2.53368321457450       -0.01389091426055
N           -1.27952829266803        1.06560732816673        0.00415957918652
C           -2.23303776938390        2.16591479575990        0.00190191797019
C           -1.80428412091219       -0.19598103083416        0.00980494463603
O           -2.13478000260985       -1.85336758988804       -0.55569949715022
N           -0.92100581255612       -1.28715611242109        0.02321631367972
C           -1.48558199651763       -2.65048558035196        0.05743429086847
H            3.71537699462284        1.18484402033865        0.98743657355312
H            3.97021774173009        0.99517903129316       -0.75653122379226
H            2.68293235268691        2.07085255155727       -0.14941050613274
H            3.52476372253689       -1.66953813524539       -0.01964156240118
H           -1.67695899165102        3.10023801202327        0.01038942454785
H           -2.85830897866677        2.10659694283833       -0.88699289318509
H           -2.87075164580049        2.09723327290607        0.88159499094742
H           -1.20625073981518       -3.19311729631091        0.88701199965915
H           -2.22982343845009       -1.67536335863857       -0.43767201099252
H           -2.61890012115235       -2.54957856200227        0.00995760175066
H            1.32903473751772       -2.95911936293777       -0.02123446863830
25
 energy: -172.333835201348 gnorm: 3.735319779546 xtb: 6.6.1 (8d0f1dd)
C            3.21867023259549        1.13448520103710        0.01699002081779
N            2.27090763924066        0.05465245695492       -0.00201609001189
C            2.54462646662942       -1.24295833462771       -0.01233316481032
N            1.39351127822122       -1.95479456324668       -0.01213624023642
C            0.36334343033649       -1.06328939567795        0.00330219020710
C            0.90827195385456        0.20598765923197        0.00453804058247
C            0.07989081059085        1.39539534804084       -0.00095476338195
O            0.48890437313109        2.53511642334150       -0.01432956121005
N           -1.27927950236455        1.06399390782399        0.00430745948705
C           -2.23187682620682        2.16674250313522        0.00214746746407
C           -1.79882558300040       -0.18513558762780        0.01507782620785
O           -2.20312364379252       -1.86840807910905       -0.57798261313827
N           -0.88883758201770       -1.27600491965673        0.04337545779594
C           -1.44527942110187       -2.66732238905679        0.07664292506295
H            3.71637635091984        1.18296602872606        0.98632283439158
H            3.97064051681595        0.99291378702248       -0.75774594432121
H            2.68408806550677        2.06933740557599       -0.15039969918195
H            3.52384234053163       -1.67141165296840       -0.02033093776813
H           -1.67510946571496        3.10119992627940        0.01039491643434
H           -2.85728134324321        2.10828234266642       -0.88657917156383
H           -2.86922599838590        2.09914362971682        0.88209618720220
H           -1.21049461685758       -3.19461308376042        0.89284174085834
H           -2.23759646308457       -1.65529368447546       -0.46247584573622
H           -2.63314477713898       -2.55307193631252        0.01152253943476
H            1.32743327863509       -2.95967445143319       -0.02110395668619
25
 energy: -172.460476619067 gnorm: 1.872234710118 xtb: 6.6.1 (8d0f1dd)
C            3.21881814279983        1.13505659118700        0.01689296934854
N            2.27162228444840        0.05837771941293       -0.00284343222236
C            2.54829078048197       -1.24427879923309       -0.01303483033366
N            1.39453803158967       -1.95750771605810       -0.01250866322163
C            0.37811205834054       -1.05705045527770        0.00796217276836
C            0.90977087724205        0.21202155246967        0.00276358722264
C            0.08351407725052        1.39249363411416       -0.00135369965666
O            0.48905554035126        2.53857172934479       -0.01391876093734
N           -1.27735180064427        1.05763736754866        0.00411469400825
C           -2.23209831425992        2.16527229084404        0.00258235636089
C           -1.80677845834847       -0.15418970203941        0.02715738705019
O           -2.26226855430395       -1.85555001112552       -0.62377479611826
N           -0.82213624842665       -1.25570326682754        0.08681727141263
C           -1.35220856950289       -2.70745429023840        0.09245556907634
H            3.71632779767345        1.18333606455497        0.98629152455629
H            3.97048043463991        0.99357117284851       -0.75796677100977
H            2.68375138742498        2.06959112215068       -0.15029567826531
H            3.52411803797056       -1.67086760940412       -0.02082600779684
H           -1.67543505183552        3.10081234727759        0.01091107049413
H           -2.85756132371157        2.10834905661168       -0.88623603579686
H           -2.86929199033092        2.09889053287817        0.88267358596572
H           -1.21601551605467       -3.20079005425460        0.90761993691047
H           -2.32357277422304       -1.66665290905453       -0.50432298637474
H           -2.66106492703422       -2.56636963694135        0.01154052566494
H            1.32781559256296       -2.95932818918850       -0.02152937120599
25
 energy: -172.526999721951 gnorm: 0.671227116287 xtb: 6.6.1 (8d0f1dd)
C            3.21963538715592        1.13450204734486        0.01608231567978
N            2.27303405075469        0.05948433835530       -0.00402060899564
C            2.55005416920240       -1.24515044905569       -0.01387258356582
N            1.39601626515115       -1.95909866671538       -0.01253149971275
C            0.39961305154722       -1.05041794812239        0.01156554127107
C            0.91280364674603        0.21750229393313        0.00121661614290
C            0.08787638225655        1.39170931284215       -0.00185594533095
O            0.48965936261668        2.54026712575306       -0.01404160712764
N           -1.27726573879573        1.05508250585704        0.00419028809147
C           -2.23133859481284        2.16493643962975        0.00289791986361
C           -1.79542691874318       -0.13732065800772        0.03843207979882
O           -2.33510198333515       -1.87254378572074       -0.65607683148941
N           -0.78704177140201       -1.24305001275377        0.12157877750687
C           -1.29679050403538       -2.70575345345351        0.09362564710614
H            3.71698080868897        1.18241721954353        0.98547456492470
H            3.97068073724165        0.99253917889004       -0.75897599335711
H            2.68431510882072        2.06882191040825       -0.15097679249566
H            3.52419186734907       -1.67184477934931       -0.02160187439799
H           -1.67448687045097        3.10110031249315        0.01115078576093
H           -2.85706111741895        2.10941203405266       -0.88578955255142
H           -2.86832154303203        2.09994379622705        0.88330926926103
H           -1.22121299762382       -3.21032907721880        0.92818831294371
H           -2.36593879828002       -1.67043885348655       -0.53577236214038
H           -2.68118702328125       -2.57362750384155        0.01069125267228
H            1.32674453778027       -2.95990478600456       -0.02171610195853
25
 energy: -172.568871591706 gnorm: 2.207572019292 xtb: 6.6.1 (8d0f1dd)
C            3.22074691654564        1.13463088330380        0.01528387190513
N            2.27608572718643        0.06067866118200       -0.00551095724590
C            2.55244255234118       -1.24486298161498       -0.01492229663606
N            1.40087258382995       -1.96034891807669       -0.01243268150948
C            0.43548946086638       -1.04102657923813        0.01518859569180
C            0.91899665920663        0.22626100164817       -0.00070054962740
C            0.09393467810272        1.39203090639276       -0.00253507155254
O            0.48951694394394        2.54199806647855       -0.01407268087493
N           -1.27644103960030        1.05500246011804        0.00424123195295
C           -2.23060042124240        2.16403569829430        0.00313842316972
C           -1.77864885595193       -0.12103683262830        0.05459514936500
O           -2.41191500533879       -1.89248589699828       -0.69336737347544
N           -0.76595082269255       -1.23359636607948        0.16381322370670
C           -1.23469676569554       -2.69150308007550        0.08400340842282
H            3.71755439017475        1.18195322291130        0.98474892750710
H            3.97086380365845        0.99207020243523       -0.75999112157128
H            2.68465633210295        2.06838536775388       -0.15159772756576
H            3.52513642221422       -1.67248263864560       -0.02245405452075
H           -1.67390090253314        3.10098649055385        0.01143568653163
H           -2.85675292841150        2.11021742259039       -0.88536178302098
H           -2.86751797927667        2.10064681284154        0.88398208735976
H           -1.22896087574017       -3.22397462176902        0.95773371789326
H           -2.42182019846969       -1.68497524287848       -0.57106892330011
H           -2.70426509863631       -2.58365564717382        0.00908062937644
H            1.32560593751576       -2.96070984972551       -0.02205811408164
25
 energy: -172.606454493161 gnorm: 0.901301939958 xtb: 6.6.1 (8d0f1dd)
C            3.22221324845620        1.13598920935326        0.01469116008259
N            2.28149884260423        0.06278785441916       -0.00730527961560
C            2.55650041570729       -1.24312914307701       -0.01609251612672
N            1.41066434716875       -1.96149180022183       -0.01208070835758
C            0.48284372175784       -1.02881079712667        0.01975428010672
C            0.92936484974390        0.23933036748944       -0.00314031067907
C            0.10185977372628        1.39360433331067       -0.00352505072353
O            0.48835182338652        2.54434941390190       -0.01402023290016
N           -1.27401128062116        1.05786812249762        0.00405221455227
C           -2.23012559932492        2.16221325402214        0.00305143610719
C           -1.75831341909848       -0.10406195214647        0.07756359603656
O           -2.48966047416506       -1.91230131501810       -0.73893761940963
N           -0.75065159589100       -1.22496109592312        0.21799291175354
C           -1.15617293151404       -2.66980100697057        0.06511549544788
H            3.71783598183503        1.18250203547834        0.98438989980913
H            3.97100241352862        0.99274930449137       -0.76077072593500
H            2.68448436064909        2.06865508443458       -0.15200317809395
H            3.52739365549788       -1.67228026327147       -0.02312358891545
H           -1.67413879376820        3.10016701968168        0.01156728020589
H           -2.85685417041124        2.11035836659285       -0.88523608112270