25
 energy: 18.144970430566 xtb: 6.6.1 (8d0f1dd)
C            3.19277181821394        1.50433877679703        0.08847198822508
N            2.40781713078335        0.05963392858752       -0.01296129414896
C            2.63545065959526       -1.35613163607661        0.04248600669422
N            1.42709305979374       -2.06337167855229        0.01410112288585
C            0.42066303880141       -1.16815323025165       -0.01421210013739
C            0.99387278549595        0.10768290390566       -0.00875320268499
C            0.18121463054911        1.26503901788614       -0.02136803474563
O            0.56040625931720        2.43783832759101       -0.02774797866160
N           -1.21170582879243        0.97499814328624       -0.03431535659075
C           -2.11427081217227        2.11652644837765       -0.04620001906196
C           -1.79417910194461       -0.25042379647863       -0.04892991724392
O           -2.99986405186519       -0.39462151915296       -0.06551869081465
N           -0.94153420882856       -1.37322368436126       -0.04011851608517
C           -1.57900950266135       -2.67187636710298       -0.06221640047112
H            3.67934918470383        1.63253731495447        1.05724191506883
H            3.97607624199866        1.55639833344628       -0.67407002833002
H            2.46459500881059        2.33493262676886       -0.04409871857481
H            3.56247409513506       -1.88150859615149        0.04183015212235
H           -1.50963011208082        3.01958949728484       -0.02118804636722
H           -2.71764959166806        2.10645541029851       -0.95174637806585
H           -2.76555086159329        2.08632639355421        0.82484893624676
H           -1.33054989193046       -3.25128276253441        0.82912342607192
H           -1.30523492508737       -3.23262084339792       -0.95834174165901
H           -2.65761039353536       -2.49270748316686       -0.07523913996330
H            1.31758046676467       -3.07509159372798        0.00763682741903
