25
 energy: -2.741126556687 xtb: 6.6.1 (8d0f1dd)
C            3.20625624115074        1.31304670561700        0.08756012299059
N            2.36518970015249        0.10281068470731        0.02358964853683
C            2.62665738342090       -1.28041048207054        0.03307075559775
N            1.42371331766342       -1.98179987277826        0.00351895110360
C            0.40927538944304       -1.09917431307194       -0.01083407872187
C            0.95675033077532        0.17945384406353        0.00576393985507
C            0.14422879173736        1.33688157949949       -0.00949170057164
O            0.53068741830706        2.50892198125187       -0.01189721126488
N           -1.24600430551648        1.01810179861389       -0.03165360125014
C           -2.17688569105824        2.13409074930188       -0.04794162527146
C           -1.81374347513641       -0.21944539986563       -0.04802380120573
O           -3.01717784575292       -0.38912079517114       -0.07037487844476
N           -0.94239839682825       -1.32666685218277       -0.03798984055114
C           -1.51810597378102       -2.65280247761949       -0.06149346962937
H            3.70726178427205        1.39879813106391        1.06000595099914
H            3.99816659426956        1.26529007291129       -0.67241949105978
H            2.58923297263332        2.20682739412649       -0.06398308375243
H            3.57873522080260       -1.74940419694395        0.04494908870091
H           -1.59923547890302        3.05496638252088       -0.02372630344196
H           -2.78124719016595        2.09931963723141       -0.95309070961485
H           -2.83092469031314        2.08197274782934        0.82086113731641
H           -1.23970158504508       -3.21853707252603        0.83040005083710
H           -1.21243155026597       -3.19808247080382       -0.95736478770417
H           -2.60213847811855       -2.52796686941173       -0.07652431658659
H            1.32351427437130       -2.98664933098022       -0.00841908915989
