      -----------------------------------------------------------      
     |                   =====================                   |     
     |                           x T B                           |     
     |                   =====================                   |     
     |                         S. Grimme                         |     
     |          Mulliken Center for Theoretical Chemistry        |     
     |                    University of Bonn                     |     
      -----------------------------------------------------------      

   * xtb version 6.6.1 (8d0f1dd) compiled by 'conda@1efc2f54142f' on 2023-08-01

   xtb is free software: you can redistribute it and/or modify it under
   the terms of the GNU Lesser General Public License as published by
   the Free Software Foundation, either version 3 of the License, or
   (at your option) any later version.
   
   xtb is distributed in the hope that it will be useful,
   but WITHOUT ANY WARRANTY; without even the implied warranty of
   MERCHANTABILITY or FITNESS FOR A PARTICULAR PURPOSE.  See the
   GNU Lesser General Public License for more details.
   
   Cite this work as:
   * C. Bannwarth, E. Caldeweyher, S. Ehlert, A. Hansen, P. Pracht,
     J. Seibert, S. Spicher, S. Grimme, WIREs Comput. Mol. Sci., 2020, 11,
     e01493. DOI: 10.1002/wcms.1493
   
   for GFN2-xTB:
   * C. Bannwarth, S. Ehlert and S. Grimme., J. Chem. Theory Comput., 2019,
     15, 1652-1671. DOI: 10.1021/acs.jctc.8b01176
   for GFN1-xTB:
   * S. Grimme, C. Bannwarth, P. Shushkov, J. Chem. Theory Comput., 2017,
     13, 1989-2009. DOI: 10.1021/acs.jctc.7b00118
   for GFN0-xTB:
   * P. Pracht, E. Caldeweyher, S. Ehlert, S. Grimme, ChemRxiv, 2019, preprint.
     DOI: 10.26434/chemrxiv.8326202.v1
   for GFN-FF:
   * S. Spicher and S. Grimme, Angew. Chem. Int. Ed., 2020, 59, 15665-15673.
     DOI: 10.1002/anie.202004239
   
   for ALPB and GBSA implicit solvation:
   * S. Ehlert, M. Stahn, S. Spicher, S. Grimme, J. Chem. Theory Comput.,
     2021, 17, 4250-4261. DOI: 10.1021/acs.jctc.1c00471
   
   for DFT-D4:
   * E. Caldeweyher, C. Bannwarth and S. Grimme, J. Chem. Phys., 2017,
     147, 034112. DOI: 10.1063/1.4993215
   * E. Caldeweyher, S. Ehlert, A. Hansen, H. Neugebauer, S. Spicher,
     C. Bannwarth and S. Grimme, J. Chem. Phys., 2019, 150, 154122.
     DOI: 10.1063/1.5090222
   * E. Caldeweyher, J.-M. Mewes, S. Ehlert and S. Grimme, Phys. Chem. Chem. Phys.
     2020, 22, 8499-8512. DOI: 10.1039/D0CP00502A
   
   for sTDA-xTB:
   * S. Grimme and C. Bannwarth, J. Chem. Phys., 2016, 145, 054103.
     DOI: 10.1063/1.4959605
   
   in the mass-spec context:
   * V. Asgeirsson, C. Bauer and S. Grimme, Chem. Sci., 2017, 8, 4879.
     DOI: 10.1039/c7sc00601b
   * J. Koopman and S. Grimme, ACS Omega 2019, 4, 12, 15120-15133.
     DOI: 10.1021/acsomega.9b02011
   
   for metadynamics refer to:
   * S. Grimme, J. Chem. Theory Comput., 2019, 155, 2847-2862
     DOI: 10.1021/acs.jctc.9b00143
   
   for SPH calculations refer to:
   * S. Spicher and S. Grimme, J. Chem. Theory Comput., 2021, 17, 1701-1714
     DOI: 10.1021/acs.jctc.0c01306
   
   with help from (in alphabetical order)
   P. Atkinson, C. Bannwarth, F. Bohle, G. Brandenburg, E. Caldeweyher
   M. Checinski, S. Dohm, S. Ehlert, S. Ehrlich, I. Gerasimov, C. Hölzer
   A. Katbashev, J. Koopman, C. Lavigne, S. Lehtola, F. März, M. Müller,
   F. Musil, H. Neugebauer, J. Pisarek, C. Plett, P. Pracht, F. Pultar,
   J. Seibert, P. Shushkov, S. Spicher, M. Stahn, M. Steiner, T. Strunk,
   J. Stückrath, T. Rose, and J. Unsleber
   
 * started run on 2024/06/05 at 19:59:15.250     

           -------------------------------------------------
          |                Calculation Setup                |
           -------------------------------------------------

          program call               : xtb struc.xyz --opt loose --input .xc1 --gfn2
          hostname                   : n-62-31-11
          coordinate file            : struc.xyz
          omp threads                :                     1

   ID    Z sym.   atoms
    1    6 C      1, 3, 5-7, 10, 11, 14
    2    7 N      2, 4, 9, 13
    3    8 O      8, 12
    4    1 H      15-25
constraining bond 9 10 to    3.9200000 Å, actual value:    1.4599811 Å

           -------------------------------------------------
          |                 G F N 2 - x T B                 |
           -------------------------------------------------

        Reference                      10.1021/acs.jctc.8b01176
      * Hamiltonian:
        H0-scaling (s, p, d)           1.850000    2.230000    2.230000
        zeta-weighting                 0.500000
      * Dispersion:
        s8                             2.700000
        a1                             0.520000
        a2                             5.000000
        s9                             5.000000
      * Repulsion:
        kExp                           1.500000    1.000000
        rExp                           1.000000
      * Coulomb:
        alpha                          2.000000
        third order                    shell-resolved
        anisotropic                    true
        a3                             3.000000
        a5                             4.000000
        cn-shift                       1.200000
        cn-exp                         4.000000
        max-rad                        5.000000


          ...................................................
          :                      SETUP                      :
          :.................................................:
          :  # basis functions                  67          :
          :  # atomic orbitals                  67          :
          :  # shells                           39          :
          :  # electrons                        74          :
          :  max. iterations                   250          :
          :  Hamiltonian                  GFN2-xTB          :
          :  restarted?                      false          :
          :  GBSA solvation                  false          :
          :  PC potential                    false          :
          :  electronic temp.         5000.0000000     K    :
          :  accuracy                    1.0000000          :
          :  -> integral cutoff          0.2500000E+02      :
          :  -> integral neglect         0.1000000E-07      :
          :  -> SCF convergence          0.1000000E-05 Eh   :
          :  -> wf. convergence          0.1000000E-03 e    :
          :  Broyden damping             0.4000000          :
          ...................................................

 iter      E             dE          RMSdq      gap      omega  full diag
   1    -42.5894031 -0.425894E+02  0.445E+00    3.52       0.0  T
   2    -42.7683054 -0.178902E+00  0.251E+00    3.36       1.0  T
   3    -42.7759211 -0.761567E-02  0.147E+00    3.35       1.0  T
   4    -42.7728404  0.308066E-02  0.553E-01    3.33       1.0  T
   5    -42.7789548 -0.611444E-02  0.112E-01    3.35       1.0  T
   6    -42.7790473 -0.924914E-04  0.614E-02    3.33       1.0  T
   7    -42.7790721 -0.247928E-04  0.258E-02    3.34       1.0  T
   8    -42.7790772 -0.508996E-05  0.938E-03    3.34       2.1  T
   9    -42.7790779 -0.669422E-06  0.448E-03    3.34       4.5  T
  10    -42.7790780 -0.821510E-07  0.115E-03    3.34      17.4  T
  11    -42.7790780 -0.322663E-08  0.553E-04    3.34      36.2  T
  12    -42.7790780 -0.287051E-08  0.180E-04    3.34     111.1  T

   *** convergence criteria satisfied after 12 iterations ***

         #    Occupation            Energy/Eh            Energy/eV
      -------------------------------------------------------------
         1        2.0000           -0.9185990             -24.9964
       ...           ...                  ...                  ...
        31        1.9996           -0.6230278             -16.9534
        32        1.9995           -0.6194601             -16.8564
        33        1.9979           -0.5974976             -16.2587
        34        1.9932           -0.5789629             -15.7544
        35        1.9817           -0.5631863             -15.3251
        36        1.9779           -0.5602245             -15.2445
        37        1.9748           -0.5581234             -15.1873 (HOMO)
        38        0.0652           -0.4353579             -11.8467 (LUMO)
        39        0.0099           -0.4050467             -11.0219
        40        0.0013           -0.3732218             -10.1559
        41        0.0000           -0.2886859              -7.8555
        42                         -0.2065804              -5.6213
       ...                                ...                  ...
        67                          0.5625656              15.3082
      -------------------------------------------------------------
                  HL-Gap            0.1227656 Eh            3.3406 eV
             Fermi-level           -0.4890455 Eh          -13.3076 eV

 SCC (total)                   0 d,  0 h,  0 min,  0.037 sec
 SCC setup                      ...        0 min,  0.000 sec (  0.955%)
 Dispersion                     ...        0 min,  0.000 sec (  1.007%)
 classical contributions        ...        0 min,  0.000 sec (  0.285%)
 integral evaluation            ...        0 min,  0.005 sec ( 14.801%)
 iterations                     ...        0 min,  0.017 sec ( 45.381%)
 molecular gradient             ...        0 min,  0.014 sec ( 37.123%)
 printout                       ...        0 min,  0.000 sec (  0.415%)

         :::::::::::::::::::::::::::::::::::::::::::::::::::::
         ::                     SUMMARY                     ::
         :::::::::::::::::::::::::::::::::::::::::::::::::::::
         :: total energy             -20.636874764735 Eh    ::
         :: gradient norm             13.146758648142 Eh/a0 ::
         :: HOMO-LUMO gap              3.340621582928 eV    ::
         ::.................................................::
         :: SCC energy               -42.779077977399 Eh    ::
         :: -> isotropic ES            0.141123876439 Eh    ::
         :: -> anisotropic ES         -0.005230418907 Eh    ::
         :: -> anisotropic XC          0.011966818540 Eh    ::
         :: -> dispersion             -0.022657731803 Eh    ::
         :: repulsion energy           0.531105277918 Eh    ::
         :: add. restraining          21.610983775737 Eh    ::
         :: total charge               1.000000000002 e     ::
         :::::::::::::::::::::::::::::::::::::::::::::::::::::

      ----------------------------------------------------------- 
     |                   =====================                   |
     |                        A N C O P T                        |
     |                   =====================                   |
     |               Approximate Normal Coordinate               |
     |                Rational Function Optimizer                |
      ----------------------------------------------------------- 

          ...................................................
          :                      SETUP                      :
          :.................................................:
          :   optimization level             loose          :
          :   max. optcycles                   200          :
          :   ANC micro-cycles                  20          :
          :   degrees of freedom                69          :
          :.................................................:
          :   RF solver                   davidson          :
          :   write xtbopt.log                true          :
          :   linear?                        false          :
          :   energy convergence         0.5000000E-04 Eh   :
          :   grad. convergence          0.4000000E-02 Eh/α :
          :   maxmium RF displ.          1.0000000          :
          :   Hlow (freq-cutoff)         0.1000000E-01      :
          :   Hmax (freq-cutoff)         5.0000000          :
          :   S6 in model hess.         20.0000000          :
          ...................................................

generating ANC from model Hessian ...
Using Lindh-Hessian (1995)
 Shifting diagonal of input Hessian by    6.1391925843251203     
 Lowest  eigenvalues of input Hessian
    0.010000    0.549050    0.000000    0.000000    0.000000    0.000000
    0.000000    0.000000    6.142075    6.144477    6.148808    6.149340
    6.150196    6.153168    6.155192    6.157479    6.160968    6.168507
 Highest eigenvalues
    8.283661    8.360459    8.418836    8.529696    8.614536   11.636855


........................................................................
.............................. CYCLE    1 ..............................
........................................................................

 iter      E             dE          RMSdq      gap      omega  full diag
   1    -42.7790780 -0.427791E+02  0.626E-05    3.34       0.0  T
   2    -42.7790780 -0.124416E-10  0.329E-05    3.34     607.4  T
   3    -42.7790780  0.127898E-12  0.193E-05    3.34    1034.2  T
     SCC iter.                  ...        0 min,  0.005 sec
     gradient                   ...        0 min,  0.013 sec
 * total energy  :   -20.6368748 Eh     change       -0.6650680E-10 Eh
   gradient norm :    13.1467583 Eh/α   predicted     0.0000000E+00 (-100.00%)
   displ. norm   :     0.8277593 α      lambda       -0.1088235E+02
   maximum displ.:     0.8231431 α      in ANC's #3, #11, #26, ...

........................................................................
.............................. CYCLE    2 ..............................
........................................................................

 iter      E             dE          RMSdq      gap      omega  full diag
   1    -42.7047783 -0.427048E+02  0.155E+00    3.35       0.0  T
   2    -42.7026075  0.217073E-02  0.860E-01    2.87       1.0  T
   3    -42.7120725 -0.946497E-02  0.781E-01    3.26       1.0  T
   4    -42.7199183 -0.784580E-02  0.987E-02    3.17       1.0  T
   5    -42.7200505 -0.132193E-03  0.392E-02    3.18       1.0  T
   6    -42.7200675 -0.170517E-04  0.213E-02    3.19       1.0  T
   7    -42.7200695 -0.197962E-05  0.772E-03    3.19       2.6  T
   8    -42.7200703 -0.733804E-06  0.160E-03    3.18      12.5  T
   9    -42.7200703 -0.201162E-07  0.853E-04    3.18      23.4  T
  10    -42.7200703 -0.209611E-08  0.340E-04    3.18      58.9  T
     SCC iter.                  ...        0 min,  0.014 sec
     gradient                   ...        0 min,  0.013 sec
 * total energy  :   -30.0318808 Eh     change       -0.9395006E+01 Eh
   gradient norm :     9.6456032 Eh/α   predicted    -0.9169390E+01 (  -2.40%)
   displ. norm   :     0.8048417 α      lambda       -0.7761613E+01
   maximum displ.:     0.7981524 α      in ANC's #3, #11, #26, ...

........................................................................
.............................. CYCLE    3 ..............................
........................................................................

 iter      E             dE          RMSdq      gap      omega  full diag
   1    -42.5410147 -0.425410E+02  0.111E+00    0.78       0.0  T
   2    -42.3749290  0.166086E+00  0.263E+00    2.36       1.0  T
   3    -42.5560796 -0.181151E+00  0.117E+00    1.39       1.0  T
   4    -42.5837183 -0.276388E-01  0.308E-01    0.92       1.0  T
   5    -42.5853004 -0.158206E-02  0.189E-01    0.95       1.0  T
   6    -42.5866525 -0.135214E-02  0.282E-02    1.02       1.0  T
   7    -42.5866612 -0.867318E-05  0.122E-02    1.01       1.6  T
   8    -42.5866603  0.904719E-06  0.698E-03    1.01       2.9  T
   9    -42.5866616 -0.132076E-05  0.164E-03    1.01      12.2  T
  10    -42.5866616  0.200377E-07  0.154E-03    1.01      13.0  T
  11    -42.5866617 -0.584497E-07  0.230E-04    1.01      87.0  T
  12    -42.5866617 -0.832777E-09  0.733E-05    1.01     273.0  T
     SCC iter.                  ...        0 min,  0.016 sec
     gradient                   ...        0 min,  0.014 sec
 * total energy  :   -36.5149312 Eh     change       -0.6483050E+01 Eh
   gradient norm :     6.4512677 Eh/α   predicted    -0.6395373E+01 (  -1.35%)
   displ. norm   :     0.7392052 α      lambda       -0.4767042E+01
   maximum displ.:     0.7319561 α      in ANC's #3, #11, #18, ...

........................................................................
.............................. CYCLE    4 ..............................
........................................................................

 iter      E             dE          RMSdq      gap      omega  full diag
   1    -42.2183864 -0.422184E+02  0.220E+00    0.94       0.0  T
   2    -41.4161065  0.802280E+00  0.406E+00    1.13       1.0  T
   3    -42.3793426 -0.963236E+00  0.588E-01    0.32       1.0  T
   4    -42.3624117  0.169309E-01  0.820E-01    0.60       1.0  T
   5    -42.3746478 -0.122361E-01  0.502E-01    0.50       1.0  T
   6    -42.3819037 -0.725588E-02  0.248E-01    0.28       1.0  T
   7    -42.3828432 -0.939557E-03  0.138E-01    0.30       1.0  T
   8    -42.3832089 -0.365623E-03  0.439E-02    0.32       1.0  T
   9    -42.3832512 -0.422960E-04  0.947E-03    0.33       2.1  T
  10    -42.3832513 -0.135041E-06  0.853E-03    0.33       2.3  T
  11    -42.3832530 -0.165323E-05  0.134E-03    0.33      14.9  T
  12    -42.3832530 -0.418957E-07  0.556E-04    0.33      35.9  T
  13    -42.3832530 -0.422048E-09  0.385E-04    0.33      52.0  T
     SCC iter.                  ...        0 min,  0.017 sec
     gradient                   ...        0 min,  0.013 sec
 * total energy  :   -40.1565710 Eh     change       -0.3641640E+01 Eh
   gradient norm :     3.3832128 Eh/α   predicted    -0.3686517E+01 (   1.23%)
   displ. norm   :     0.5619079 α      lambda       -0.1897369E+01
   maximum displ.:     0.5528333 α      in ANC's #3, #11, #18, ...

........................................................................
.............................. CYCLE    5 ..............................
........................................................................

 iter      E             dE          RMSdq      gap      omega  full diag
   1    -42.0490089 -0.420490E+02  0.191E+00    1.16       0.0  T
   2    -40.3645091  0.168450E+01  0.469E+00    0.38       1.0  T
   3    -42.1173360 -0.175283E+01  0.101E+00    0.72       1.0  T
   4    -42.1610393 -0.437033E-01  0.555E-01    0.18       1.0  T
   5    -42.1496455  0.113938E-01  0.646E-01    0.16       1.0  T
   6    -42.1565042 -0.685870E-02  0.479E-01    0.13       1.0  T
   7    -42.1677193 -0.112151E-01  0.115E-01    0.20       1.0  T
   8    -42.1678634 -0.144109E-03  0.711E-02    0.22       1.0  T
   9    -42.1678832 -0.197914E-04  0.165E-02    0.22       1.2  T
  10    -42.1678910 -0.783516E-05  0.769E-03    0.22       2.6  T
  11    -42.1678923 -0.128420E-05  0.326E-03    0.23       6.1  T
  12    -42.1678925 -0.209254E-06  0.161E-03    0.23      12.5  T
  13    -42.1678925 -0.337062E-07  0.782E-04    0.23      25.6  T
  14    -42.1678925 -0.480878E-08  0.234E-04    0.23      85.5  T
     SCC iter.                  ...        0 min,  0.018 sec
     gradient                   ...        0 min,  0.013 sec
 * total energy  :   -41.3975973 Eh     change       -0.1241026E+01 Eh
   gradient norm :     1.0611406 Eh/α   predicted    -0.1249712E+01 (   0.70%)
   displ. norm   :     0.2591659 α      lambda       -0.2689126E+00
   maximum displ.:     0.2306533 α      in ANC's #3, #2, #55, ...

........................................................................
.............................. CYCLE    6 ..............................
........................................................................

 iter      E             dE          RMSdq      gap      omega  full diag
   1    -42.0755176 -0.420755E+02  0.778E-01    0.76       0.0  T
   2    -41.7799491  0.295568E+00  0.202E+00    0.57       1.0  T
   3    -42.0589781 -0.279029E+00  0.771E-01    0.87       1.0  T
   4    -42.0827739 -0.237958E-01  0.365E-01    0.66       1.0  T
   5    -42.0891258 -0.635188E-02  0.687E-02    0.49       1.0  T
   6    -42.0890677  0.580611E-04  0.670E-02    0.46       1.0  T
   7    -42.0890979 -0.301253E-04  0.553E-02    0.46       1.0  T
   8    -42.0892516 -0.153705E-03  0.791E-03    0.49       2.5  T
   9    -42.0892509  0.638141E-06  0.704E-03    0.49       2.8  T
  10    -42.0892517 -0.718259E-06  0.432E-03    0.49       4.6  T
  11    -42.0892525 -0.827496E-06  0.164E-03    0.49      12.2  T
  12    -42.0892526 -0.963223E-07  0.462E-04    0.49      43.3  T
  13    -42.0892526 -0.955866E-08  0.835E-05    0.49     239.4  T
     SCC iter.                  ...        0 min,  0.017 sec
     gradient                   ...        0 min,  0.013 sec
 * total energy  :   -41.5528046 Eh     change       -0.1552072E+00 Eh
   gradient norm :     0.3215839 Eh/α   predicted    -0.1434890E+00 (  -7.55%)
   displ. norm   :     0.1365072 α      lambda       -0.3073192E-01
   maximum displ.:     0.0707365 α      in ANC's #2, #1, #3, ...

........................................................................
.............................. CYCLE    7 ..............................
........................................................................

 iter      E             dE          RMSdq      gap      omega  full diag
   1    -42.0975651 -0.420976E+02  0.252E-01    0.52       0.0  T
   2    -42.0955630  0.200210E-02  0.274E-01    0.65       1.0  T
   3    -42.0929803  0.258262E-02  0.282E-01    0.40       1.0  T
   4    -42.0958299 -0.284961E-02  0.218E-01    0.65       1.0  T
   5    -42.0982401 -0.241011E-02  0.476E-02    0.57       1.0  T
   6    -42.0983401 -0.100021E-03  0.159E-02    0.55       1.3  T
   7    -42.0983453 -0.522033E-05  0.920E-03    0.55       2.2  T
   8    -42.0983449  0.396251E-06  0.588E-03    0.55       3.4  T
   9    -42.0983466 -0.172800E-05  0.175E-03    0.55      11.4  T
  10    -42.0983467 -0.366210E-07  0.589E-04    0.55      34.0  T
  11    -42.0983467 -0.407086E-08  0.247E-04    0.55      81.1  T
     SCC iter.                  ...        0 min,  0.015 sec
     gradient                   ...        0 min,  0.013 sec
 * total energy  :   -41.5787579 Eh     change       -0.2595337E-01 Eh
   gradient norm :     0.3051381 Eh/α   predicted    -0.1587782E-01 ( -38.82%)
   displ. norm   :     0.4077494 α      lambda       -0.7171624E-01
   maximum displ.:     0.2776363 α      in ANC's #1, #2, #55, ...

........................................................................
.............................. CYCLE    8 ..............................
........................................................................

 iter      E             dE          RMSdq      gap      omega  full diag
   1    -42.1305240 -0.421305E+02  0.763E-01    0.36       0.0  T
   2    -41.9862746  0.144249E+00  0.163E+00    1.64       1.0  T
   3    -42.1448236 -0.158549E+00  0.402E-01    0.54       1.0  T
   4    -42.1433412  0.148232E-02  0.308E-01    0.70       1.0  T
   5    -42.1460756 -0.273431E-02  0.126E-01    0.59       1.0  T
   6    -42.1465675 -0.491974E-03  0.464E-02    0.62       1.0  T
   7    -42.1465937 -0.261567E-04  0.274E-02    0.62       1.0  T
   8    -42.1466044 -0.106841E-04  0.127E-02    0.62       1.6  T
   9    -42.1466055 -0.109306E-05  0.801E-03    0.62       2.5  T
  10    -42.1466071 -0.163951E-05  0.367E-03    0.62       5.4  T
  11    -42.1466074 -0.252810E-06  0.122E-03    0.62      16.4  T
  12    -42.1466074 -0.565748E-08  0.719E-04    0.62      27.8  T
  13    -42.1466074 -0.294896E-07  0.151E-04    0.62     132.1  T
     SCC iter.                  ...        0 min,  0.017 sec
     gradient                   ...        0 min,  0.013 sec
 * total energy  :   -41.6295274 Eh     change       -0.5076950E-01 Eh
   gradient norm :     0.3805373 Eh/α   predicted    -0.4182149E-01 ( -17.62%)
   displ. norm   :     0.3431993 α      lambda       -0.4990367E-01
   maximum displ.:     0.2490119 α      in ANC's #1, #55, #53, ...

........................................................................
.............................. CYCLE    9 ..............................
........................................................................

 iter      E             dE          RMSdq      gap      omega  full diag
   1    -42.1386857 -0.421387E+02  0.944E-01    0.13       0.0  T
   2    -41.7822655  0.356420E+00  0.258E+00    2.52       1.0  T
   3    -42.1785939 -0.396328E+00  0.522E-01    0.79       1.0  T
   4    -42.1892461 -0.106522E-01  0.193E-01    0.53       1.0  T
   5    -42.1890355  0.210685E-03  0.108E-01    0.62       1.0  T
   6    -42.1895517 -0.516259E-03  0.297E-02    0.59       1.0  T
   7    -42.1895684 -0.166910E-04  0.199E-02    0.57       1.0  T
   8    -42.1895703 -0.185364E-05  0.150E-02    0.58       1.3  T
   9    -42.1895845 -0.142082E-04  0.570E-03    0.58       3.5  T
  10    -42.1895851 -0.592953E-06  0.334E-03    0.58       6.0  T
  11    -42.1895852 -0.158331E-06  0.176E-03    0.58      11.4  T
  12    -42.1895851  0.953640E-07  0.133E-03    0.58      15.0  T
  13    -42.1895852 -0.112549E-06  0.169E-04    0.58     118.3  T
  14    -42.1895852 -0.986375E-09  0.881E-05    0.58     227.0  T
     SCC iter.                  ...        0 min,  0.018 sec
     gradient                   ...        0 min,  0.013 sec
 * total energy  :   -41.6694676 Eh     change       -0.3994021E-01 Eh
   gradient norm :     0.3972261 Eh/α   predicted    -0.2789085E-01 ( -30.17%)
   displ. norm   :     0.4422996 α      lambda       -0.8917130E-01
   maximum displ.:     0.1925872 α      in ANC's #55, #53, #23, ...

........................................................................
.............................. CYCLE   10 ..............................
........................................................................

 iter      E             dE          RMSdq      gap      omega  full diag
   1    -42.1170281 -0.421170E+02  0.158E+00    0.20       0.0  T
   2    -41.5207119  0.596316E+00  0.377E+00    2.17       1.0  T
   3    -42.2025812 -0.681869E+00  0.987E-01    0.87       1.0  T
   4    -42.2478721 -0.452908E-01  0.504E-01    0.13       1.0  T
   5    -42.2567915 -0.891946E-02  0.322E-01    0.47       1.0  T
   6    -42.2625500 -0.575851E-02  0.921E-02    0.35       1.0  T
   7    -42.2628349 -0.284845E-03  0.347E-02    0.30       1.0  T
   8    -42.2628811 -0.461871E-04  0.206E-02    0.31       1.0  T
   9    -42.2629050 -0.239821E-04  0.535E-03    0.32       3.7  T
  10    -42.2629049  0.148266E-06  0.391E-03    0.31       5.1  T
  11    -42.2629049  0.635085E-08  0.316E-03    0.31       6.3  T
  12    -42.2629049 -0.317163E-07  0.270E-03    0.31       7.4  T
  13    -42.2629054 -0.522386E-06  0.293E-04    0.32      68.2  T
  14    -42.2629054 -0.124536E-08  0.156E-04    0.32     128.2  T
     SCC iter.                  ...        0 min,  0.018 sec
     gradient                   ...        0 min,  0.013 sec
 * total energy  :   -41.7224699 Eh     change       -0.5300222E-01 Eh
   gradient norm :     0.2851481 Eh/α   predicted    -0.5330807E-01 (   0.58%)
   displ. norm   :     0.7177663 α      lambda       -0.5525112E-01
   maximum displ.:     0.6512043 α      in ANC's #1, #55, #53, ...

........................................................................
.............................. CYCLE   11 ..............................
........................................................................

 iter      E             dE          RMSdq      gap      omega  full diag
   1    -42.1335303 -0.421335E+02  0.164E+00    0.44       0.0  T
   2    -41.4358232  0.697707E+00  0.410E+00    1.94       1.0  T
   3    -42.2352801 -0.799457E+00  0.853E-01    0.37       1.0  T
   4    -42.2430514 -0.777135E-02  0.628E-01    0.26       1.0  T
   5    -42.2434804 -0.428982E-03  0.513E-01    0.28       1.0  T
   6    -42.2607638 -0.172834E-01  0.883E-02    0.06       1.0  T
   7    -42.2610373 -0.273484E-03  0.430E-02    0.05       1.0  T
   8    -42.2610458 -0.852580E-05  0.238E-02    0.05       1.0  T
   9    -42.2610431  0.275080E-05  0.137E-02    0.05       1.5  T
  10    -42.2610512 -0.813166E-05  0.560E-03    0.05       3.6  T
  11    -42.2610517 -0.491433E-06  0.256E-03    0.05       7.8  T
  12    -42.2610515  0.166564E-06  0.216E-03    0.05       9.3  T
  13    -42.2610518 -0.296581E-06  0.578E-04    0.05      34.6  T
  14    -42.2610519 -0.186099E-07  0.231E-04    0.05      86.6  T
     SCC iter.                  ...        0 min,  0.018 sec
     gradient                   ...        0 min,  0.013 sec
 * total energy  :   -41.7572820 Eh     change       -0.3481214E-01 Eh
   gradient norm :     0.3368922 Eh/α   predicted    -0.4185997E-01 (  20.25%)
   displ. norm   :     0.3660598 α      lambda       -0.5401118E-01
   maximum displ.:     0.1640725 α      in ANC's #2, #55, #53, ...

........................................................................
.............................. CYCLE   12 ..............................
........................................................................

 iter      E             dE          RMSdq      gap      omega  full diag
   1    -42.2764645 -0.422765E+02  0.629E-01    0.28       0.0  T
   2    -42.1150681  0.161396E+00  0.170E+00    0.80       1.0  T
   3    -42.2806834 -0.165615E+00  0.420E-01    0.23       1.0  T
   4    -42.2868424 -0.615894E-02  0.182E-01    0.07       1.0  T
   5    -42.2871015 -0.259130E-03  0.740E-02    0.10       1.0  T
   6    -42.2872918 -0.190290E-03  0.264E-02    0.08       1.0  T
   7    -42.2872984 -0.660248E-05  0.178E-02    0.08       1.1  T
   8    -42.2872939  0.454649E-05  0.158E-02    0.08       1.3  T
   9    -42.2873045 -0.106889E-04  0.568E-03    0.08       3.5  T
  10    -42.2873049 -0.375840E-06  0.285E-03    0.08       7.0  T
  11    -42.2873050 -0.837908E-07  0.157E-03    0.08      12.7  T
  12    -42.2873051 -0.925785E-07  0.376E-04    0.08      53.2  T
  13    -42.2873051 -0.154024E-08  0.176E-04    0.08     113.6  T
     SCC iter.                  ...        0 min,  0.017 sec
     gradient                   ...        0 min,  0.013 sec
 * total energy  :   -41.7889649 Eh     change       -0.3168294E-01 Eh
   gradient norm :     0.2436131 Eh/α   predicted    -0.3062462E-01 (  -3.34%)
   displ. norm   :     0.2962577 α      lambda       -0.3402527E-01
   maximum displ.:     0.2248792 α      in ANC's #1, #55, #53, ...

........................................................................
.............................. CYCLE   13 ..............................
........................................................................

 iter      E             dE          RMSdq      gap      omega  full diag
   1    -42.2844605 -0.422845E+02  0.511E-01    0.31       0.0  T
   2    -42.1700630  0.114397E+00  0.145E+00    0.56       1.0  T
   3    -42.2870432 -0.116980E+00  0.341E-01    0.28       1.0  T
   4    -42.2913639 -0.432070E-02  0.157E-01    0.14       1.0  T
   5    -42.2916373 -0.273374E-03  0.421E-02    0.16       1.0  T
   6    -42.2916657 -0.283988E-04  0.128E-02    0.15       1.6  T
   7    -42.2916708 -0.509804E-05  0.606E-03    0.15       3.3  T
   8    -42.2916709 -0.109960E-06  0.350E-03    0.15       5.7  T
   9    -42.2916714 -0.475870E-06  0.841E-04    0.15      23.8  T
  10    -42.2916714 -0.154358E-07  0.405E-04    0.15      49.4  T
     SCC iter.                  ...        0 min,  0.013 sec
     gradient                   ...        0 min,  0.013 sec
 * total energy  :   -41.8144669 Eh     change       -0.2550197E-01 Eh
   gradient norm :     0.2014814 Eh/α   predicted    -0.1850607E-01 ( -27.43%)
   displ. norm   :     0.2358934 α      lambda       -0.3437464E-01
   maximum displ.:     0.0893359 α      in ANC's #12, #1, #55, ...

........................................................................
.............................. CYCLE   14 ..............................
........................................................................

 iter      E             dE          RMSdq      gap      omega  full diag
   1    -42.3117216 -0.423117E+02  0.490E-01    0.09       0.0  T
   2    -42.2902366  0.214850E-01  0.688E-01    0.46       1.0  T
   3    -42.2879031  0.233354E-02  0.695E-01    0.19       1.0  T
   4    -42.3143107 -0.264076E-01  0.179E-01    0.20       1.0  T
   5    -42.3149501 -0.639403E-03  0.730E-02    0.13       1.0  T
   6    -42.3150837 -0.133548E-03  0.315E-02    0.14       1.0  T
   7    -42.3150942 -0.104976E-04  0.219E-02    0.14       1.0  T
   8    -42.3151076 -0.133846E-04  0.841E-03    0.15       2.4  T
   9    -42.3151084 -0.876417E-06  0.308E-03    0.15       6.5  T
  10    -42.3151086 -0.120106E-06  0.199E-03    0.15      10.1  T
  11    -42.3151087 -0.906077E-07  0.769E-04    0.15      26.0  T
  12    -42.3151087 -0.211957E-07  0.267E-04    0.15      74.9  T
     SCC iter.                  ...        0 min,  0.016 sec
     gradient                   ...        0 min,  0.013 sec
 * total energy  :   -41.8383549 Eh     change       -0.2388800E-01 Eh
   gradient norm :     0.2026808 Eh/α   predicted    -0.1814381E-01 ( -24.05%)
   displ. norm   :     0.2271586 α      lambda       -0.2237613E-01
   maximum displ.:     0.0995923 α      in ANC's #55, #53, #1, ...

........................................................................
.............................. CYCLE   15 ..............................
........................................................................

 iter      E             dE          RMSdq      gap      omega  full diag
   1    -42.3338377 -0.423338E+02  0.326E-01    0.16       0.0  T
   2    -42.3326293  0.120848E-02  0.248E-01    0.26       1.0  T
   3    -42.3170748  0.155545E-01  0.562E-01    0.12       1.0  T
   4    -42.3340041 -0.169293E-01  0.127E-01    0.21       1.0  T
   5    -42.3344020 -0.397833E-03  0.536E-02    0.15       1.0  T
   6    -42.3345088 -0.106837E-03  0.199E-02    0.16       1.0  T
   7    -42.3345075  0.131404E-05  0.152E-02    0.16       1.3  T
   8    -42.3345160 -0.848255E-05  0.424E-03    0.17       4.7  T
   9    -42.3345161 -0.116650E-06  0.172E-03    0.17      11.6  T
  10    -42.3345161 -0.225658E-07  0.911E-04    0.17      22.0  T
  11    -42.3345161 -0.156316E-07  0.265E-04    0.17      75.4  T
     SCC iter.                  ...        0 min,  0.015 sec
     gradient                   ...        0 min,  0.013 sec
 * total energy  :   -41.8560444 Eh     change       -0.1768952E-01 Eh
   gradient norm :     0.2167115 Eh/α   predicted    -0.1176546E-01 ( -33.49%)
   displ. norm   :     0.3520871 α      lambda       -0.3604426E-01
   maximum displ.:     0.1853382 α      in ANC's #55, #53, #31, ...

........................................................................
.............................. CYCLE   16 ..............................
........................................................................

 iter      E             dE          RMSdq      gap      omega  full diag
   1    -42.3674278 -0.423674E+02  0.529E-01    0.16       0.0  T
   2    -42.3373163  0.301116E-01  0.824E-01    0.59       1.0  T
   3    -42.3597311 -0.224149E-01  0.479E-01    0.07       1.0  T
   4    -42.3681650 -0.843387E-02  0.218E-01    0.30       1.0  T
   5    -42.3697780 -0.161305E-02  0.462E-02    0.22       1.0  T
   6    -42.3698002 -0.221282E-04  0.275E-02    0.22       1.0  T
   7    -42.3698078 -0.764702E-05  0.167E-02    0.22       1.2  T
   8    -42.3698169 -0.909040E-05  0.359E-03    0.23       5.6  T
   9    -42.3698169 -0.507128E-07  0.153E-03    0.23      13.1  T
  10    -42.3698170 -0.984897E-08  0.541E-04    0.23      37.0  T
  11    -42.3698170 -0.581028E-08  0.220E-04    0.23      91.0  T
     SCC iter.                  ...        0 min,  0.015 sec
     gradient                   ...        0 min,  0.013 sec
 * total energy  :   -41.8838561 Eh     change       -0.2781166E-01 Eh
   gradient norm :     0.2343891 Eh/α   predicted    -0.2025633E-01 ( -27.17%)
   displ. norm   :     0.4374098 α      lambda       -0.4232275E-01
   maximum displ.:     0.2498830 α      in ANC's #55, #53, #31, ...

........................................................................
.............................. CYCLE   17 ..............................
........................................................................

 iter      E             dE          RMSdq      gap      omega  full diag
   1    -42.3964023 -0.423964E+02  0.493E-01    0.39       0.0  T
   2    -42.3925416  0.386062E-02  0.399E-01    0.20       1.0  T
   3    -42.3595958  0.329458E-01  0.846E-01    0.77       1.0  T
   4    -42.3970493 -0.374535E-01  0.125E-01    0.33       1.0  T
   5    -42.3973742 -0.324891E-03  0.414E-02    0.35       1.0  T
   6    -42.3974113 -0.370667E-04  0.175E-02    0.34       1.1  T
   7    -42.3974127 -0.137383E-05  0.110E-02    0.34       1.8  T
   8    -42.3974155 -0.285391E-05  0.403E-03    0.34       5.0  T
   9    -42.3974159 -0.330666E-06  0.141E-03    0.34      14.1  T
  10    -42.3974158  0.271448E-07  0.109E-03    0.34      18.4  T
  11    -42.3974159 -0.520822E-07  0.218E-04    0.34      91.9  T
  12    -42.3974159 -0.297270E-09  0.983E-05    0.34     203.4  T
     SCC iter.                  ...        0 min,  0.016 sec
     gradient                   ...        0 min,  0.013 sec
 * total energy  :   -41.9166434 Eh     change       -0.3278731E-01 Eh
   gradient norm :     0.2179922 Eh/α   predicted    -0.2521018E-01 ( -23.11%)
   displ. norm   :     0.4227659 α      lambda       -0.4097916E-01
   maximum displ.:     0.2441390 α      in ANC's #55, #53, #21, ...

........................................................................
.............................. CYCLE   18 ..............................
........................................................................

 iter      E             dE          RMSdq      gap      omega  full diag
   1    -42.4254328 -0.424254E+02  0.515E-01    0.47       0.0  T
   2    -42.4258446 -0.411879E-03  0.353E-01    0.54       1.0  T
   3    -42.4139434  0.119013E-01  0.501E-01    0.23       1.0  T
   4    -42.4145432 -0.599799E-03  0.503E-01    0.74       1.0  T
   5    -42.4269678 -0.124247E-01  0.527E-02    0.47       1.0  T
   6    -42.4270293 -0.614241E-04  0.163E-02    0.48       1.2  T
   7    -42.4270302 -0.925953E-06  0.974E-03    0.47       2.1  T
   8    -42.4270313 -0.109048E-05  0.274E-03    0.48       7.3  T
   9    -42.4270313 -0.184964E-07  0.145E-03    0.48      13.8  T
  10    -42.4270314 -0.720571E-07  0.572E-04    0.48      35.0  T
  11    -42.4270314 -0.722065E-08  0.197E-04    0.48     101.5  T
     SCC iter.                  ...        0 min,  0.015 sec
     gradient                   ...        0 min,  0.013 sec
 * total energy  :   -41.9455007 Eh     change       -0.2885732E-01 Eh
   gradient norm :     0.2138215 Eh/α   predicted    -0.2415177E-01 ( -16.31%)
   displ. norm   :     0.2965557 α      lambda       -0.2423247E-01
   maximum displ.:     0.1632250 α      in ANC's #55, #53, #21, ...

........................................................................
.............................. CYCLE   19 ..............................
........................................................................

 iter      E             dE          RMSdq      gap      omega  full diag
   1    -42.4357867 -0.424358E+02  0.377E-01    0.65       0.0  T
   2    -42.4163996  0.193871E-01  0.661E-01    0.24       1.0  T
   3    -42.4295252 -0.131256E-01  0.423E-01    0.79       1.0  T
   4    -42.4375874 -0.806226E-02  0.103E-01    0.57       1.0  T
   5    -42.4376404 -0.529840E-04  0.319E-02    0.57       1.0  T
   6    -42.4376701 -0.296268E-04  0.978E-03    0.56       2.0  T
   7    -42.4376723 -0.226798E-05  0.334E-03    0.57       6.0  T
   8    -42.4376725 -0.182555E-06  0.118E-03    0.57      16.9  T
   9    -42.4376725 -0.274594E-07  0.522E-04    0.57      38.3  T
  10    -42.4376725 -0.114532E-08  0.284E-04    0.57      70.5  T
     SCC iter.                  ...        0 min,  0.013 sec
     gradient                   ...        0 min,  0.013 sec
 * total energy  :   -41.9611610 Eh     change       -0.1566034E-01 Eh
   gradient norm :     0.2117789 Eh/α   predicted    -0.1318217E-01 ( -15.82%)
   displ. norm   :     0.2152076 α      lambda       -0.1982336E-01
   maximum displ.:     0.1041908 α      in ANC's #1, #55, #53, ...

........................................................................
.............................. CYCLE   20 ..............................
........................................................................

 iter      E             dE          RMSdq      gap      omega  full diag
   1    -42.4680065 -0.424680E+02  0.362E-01    0.54       0.0  T
   2    -42.4509037  0.171028E-01  0.682E-01    0.98       1.0  T
   3    -42.4695175 -0.186138E-01  0.189E-01    0.61       1.0  T
   4    -42.4669619  0.255561E-02  0.276E-01    0.74       1.0  T
   5    -42.4696929 -0.273099E-02  0.272E-02    0.62       1.0  T
   6    -42.4697083 -0.154533E-04  0.119E-02    0.62       1.7  T
   7    -42.4697130 -0.469964E-05  0.459E-03    0.62       4.4  T
   8    -42.4697132 -0.121230E-06  0.193E-03    0.62      10.3  T
   9    -42.4697133 -0.872064E-07  0.595E-04    0.62      33.6  T
  10    -42.4697133 -0.651696E-08  0.220E-04    0.62      91.0  T
     SCC iter.                  ...        0 min,  0.013 sec
     gradient                   ...        0 min,  0.013 sec
 * total energy  :   -41.9755872 Eh     change       -0.1442616E-01 Eh
   gradient norm :     0.2175331 Eh/α   predicted    -0.1037189E-01 ( -28.10%)
   displ. norm   :     0.2701580 α      lambda       -0.3380604E-01
   maximum displ.:     0.1189634 α      in ANC's #53, #55, #21, ...
 * RMSD in coord.:     0.9694878 α      energy gain  -0.2133871E+02 Eh

generating ANC from model Hessian ...
Using Lindh-Hessian (1995)
 Shifting diagonal of input Hessian by    1.1900339088329588E-002
 Lowest  eigenvalues of input Hessian
    0.010000    0.010310    0.000000    0.000000    0.000000    0.000000
    0.000000    0.000000    0.012650    0.012892    0.013102    0.014639
    0.017560    0.020455    0.021017    0.021760    0.026347    0.028194
 Highest eigenvalues
    2.083924    2.176734    2.244705    2.406964    2.618137    4.499306


........................................................................
.............................. CYCLE   21 ..............................
........................................................................

 iter      E             dE          RMSdq      gap      omega  full diag
   1    -42.5067992 -0.425068E+02  0.419E-01    0.70       0.0  T
   2    -42.5074593 -0.660075E-03  0.247E-01    0.71       1.0  T
   3    -42.5068844  0.574863E-03  0.171E-01    0.64       1.0  T
   4    -42.5023101  0.457433E-02  0.346E-01    0.89       1.0  T
   5    -42.5075306 -0.522053E-02  0.646E-02    0.67       1.0  T
   6    -42.5076919 -0.161267E-03  0.901E-03    0.70       2.2  T
   7    -42.5076932 -0.134638E-05  0.418E-03    0.70       4.8  T
   8    -42.5076933 -0.101937E-06  0.210E-03    0.70       9.5  T
   9    -42.5076934 -0.716543E-07  0.631E-04    0.70      31.7  T
  10    -42.5076934 -0.118418E-08  0.345E-04    0.70      58.0  T
     SCC iter.                  ...        0 min,  0.013 sec
     gradient                   ...        0 min,  0.012 sec
 * total energy  :   -42.0007577 Eh     change       -0.2517048E-01 Eh
   gradient norm :     0.1892612 Eh/α   predicted     0.0000000E+00 (-100.00%)
   displ. norm   :     0.5669290 α      lambda       -0.6797574E-01
   maximum displ.:     0.2876376 α      in ANC's #15, #16, #25, ...

........................................................................
.............................. CYCLE   22 ..............................
........................................................................

 iter      E             dE          RMSdq      gap      omega  full diag
   1    -42.5505604 -0.425506E+02  0.898E-01    0.95       0.0  T
   2    -42.4505293  0.100031E+00  0.152E+00    0.05       1.0  T
   3    -42.5139888 -0.634594E-01  0.116E+00    1.37       1.0  T
   4    -42.5496292 -0.356405E-01  0.481E-01    0.98       1.0  T
   5    -42.5560880 -0.645877E-02  0.171E-01    0.84       1.0  T
   6    -42.5569567 -0.868660E-03  0.626E-02    0.79       1.0  T
   7    -42.5570748 -0.118151E-03  0.134E-02    0.75       1.5  T
   8    -42.5570789 -0.410598E-05  0.404E-03    0.76       5.0  T
   9    -42.5570785  0.402184E-06  0.453E-03    0.76       4.4  T
  10    -42.5570791 -0.614612E-06  0.669E-04    0.76      29.9  T
  11    -42.5570791 -0.109588E-07  0.201E-04    0.76      99.3  T
     SCC iter.                  ...        0 min,  0.015 sec
     gradient                   ...        0 min,  0.013 sec
 * total energy  :   -42.0507448 Eh     change       -0.4998716E-01 Eh
   gradient norm :     0.0942912 Eh/α   predicted    -0.4496568E-01 ( -10.05%)
   displ. norm   :     0.5576627 α      lambda       -0.3239169E-01
   maximum displ.:     0.3474556 α      in ANC's #15, #16, #22, ...

........................................................................
.............................. CYCLE   23 ..............................
........................................................................

 iter      E             dE          RMSdq      gap      omega  full diag
   1    -42.5898564 -0.425899E+02  0.618E-01    0.96       0.0  T
   2    -42.5301287  0.597277E-01  0.124E+00    0.20       1.0  T
   3    -42.5807942 -0.506656E-01  0.660E-01    1.13       1.0  T
   4    -42.5917895 -0.109953E-01  0.261E-01    0.91       1.0  T
   5    -42.5935762 -0.178670E-02  0.661E-02    0.84       1.0  T
   6    -42.5936995 -0.123310E-03  0.217E-02    0.82       1.0  T
   7    -42.5937104 -0.108635E-04  0.741E-03    0.81       2.7  T
   8    -42.5937108 -0.493998E-06  0.367E-03    0.80       5.5  T
   9    -42.5937113 -0.499140E-06  0.718E-04    0.81      27.8  T
  10    -42.5937114 -0.748136E-08  0.278E-04    0.81      72.1  T
     SCC iter.                  ...        0 min,  0.013 sec
     gradient                   ...        0 min,  0.013 sec
 * total energy  :   -42.0738631 Eh     change       -0.2311823E-01 Eh
   gradient norm :     0.0510829 Eh/α   predicted    -0.2123260E-01 (  -8.16%)
   displ. norm   :     0.6036841 α      lambda       -0.1663417E-01
   maximum displ.:     0.3357181 α      in ANC's #15, #16, #3, ...

........................................................................
.............................. CYCLE   24 ..............................
........................................................................

 iter      E             dE          RMSdq      gap      omega  full diag
   1    -42.6068885 -0.426069E+02  0.585E-01    0.97       0.0  T
   2    -42.5795555  0.273330E-01  0.871E-01    0.44       1.0  T
   3    -42.5939111 -0.143557E-01  0.701E-01    1.22       1.0  T
   4    -42.6075804 -0.136692E-01  0.187E-01    0.93       1.0  T
   5    -42.6085544 -0.973998E-03  0.552E-02    0.89       1.0  T
   6    -42.6086527 -0.983619E-04  0.120E-02    0.86       1.7  T
   7    -42.6086530 -0.325521E-06  0.726E-03    0.86       2.8  T
   8    -42.6086549 -0.187193E-05  0.169E-03    0.86      11.8  T
   9    -42.6086550 -0.860732E-07  0.555E-04    0.86      36.1  T
  10    -42.6086550 -0.879204E-09  0.412E-04    0.86      48.6  T
     SCC iter.                  ...        0 min,  0.013 sec
     gradient                   ...        0 min,  0.013 sec
 * total energy  :   -42.0862051 Eh     change       -0.1234204E-01 Eh
   gradient norm :     0.0539466 Eh/α   predicted    -0.1134814E-01 (  -8.05%)
   displ. norm   :     0.7485521 α      lambda       -0.1716963E-01
   maximum displ.:     0.4068817 α      in ANC's #15, #16, #8, ...

........................................................................
.............................. CYCLE   25 ..............................
........................................................................

 iter      E             dE          RMSdq      gap      omega  full diag
   1    -42.6201727 -0.426202E+02  0.512E-01    0.98       0.0  T
   2    -42.6152326  0.494014E-02  0.469E-01    0.74       1.0  T
   3    -42.6039525  0.112801E-01  0.695E-01    1.30       1.0  T
   4    -42.6204312 -0.164787E-01  0.100E-01    0.94       1.0  T
   5    -42.6206637 -0.232503E-03  0.276E-02    0.93       1.0  T
   6    -42.6206851 -0.213839E-04  0.920E-03    0.92       2.2  T
   7    -42.6206850  0.101967E-06  0.541E-03    0.92       3.7  T
   8    -42.6206858 -0.783955E-06  0.167E-03    0.92      12.0  T
   9    -42.6206858 -0.451998E-07  0.955E-04    0.92      20.9  T
  10    -42.6206858 -0.151512E-07  0.496E-04    0.92      40.3  T
     SCC iter.                  ...        0 min,  0.013 sec
     gradient                   ...        0 min,  0.013 sec
 * total energy  :   -42.0922962 Eh     change       -0.6091070E-02 Eh
   gradient norm :     0.1024334 Eh/α   predicted    -0.1339517E-01 ( 119.91%)
   displ. norm   :     0.5136878 α      lambda       -0.1679843E-01
   maximum displ.:     0.2412440 α      in ANC's #3, #16, #15, ...

........................................................................
.............................. CYCLE   26 ..............................
........................................................................

 iter      E             dE          RMSdq      gap      omega  full diag
   1    -42.6232544 -0.426233E+02  0.522E-01    0.98       0.0  T
   2    -42.6227587  0.495673E-03  0.317E-01    0.90       1.0  T
   3    -42.6017885  0.209702E-01  0.763E-01    1.39       1.0  T
   4    -42.6233017 -0.215132E-01  0.562E-02    0.95       1.0  T
   5    -42.6233620 -0.602935E-04  0.208E-02    0.96       1.0  T
   6    -42.6233746 -0.126122E-04  0.670E-03    0.95       3.0  T
   7    -42.6233748 -0.165616E-06  0.294E-03    0.95       6.8  T
   8    -42.6233750 -0.255291E-06  0.894E-04    0.96      22.4  T
   9    -42.6233750 -0.896073E-09  0.628E-04    0.96      31.9  T
     SCC iter.                  ...        0 min,  0.012 sec
     gradient                   ...        0 min,  0.013 sec
 * total energy  :   -42.0992457 Eh     change       -0.6949574E-02 Eh
   gradient norm :     0.0821143 Eh/α   predicted    -0.1061562E-01 (  52.75%)
   displ. norm   :     0.5703276 α      lambda       -0.1533925E-01
   maximum displ.:     0.4308476 α      in ANC's #5, #3, #2, ...

........................................................................
.............................. CYCLE   27 ..............................
........................................................................

 iter      E             dE          RMSdq      gap      omega  full diag
   1    -42.6194589 -0.426195E+02  0.835E-01    1.01       0.0  T
   2    -42.6171713  0.228759E-02  0.496E-01    0.85       1.0  T
   3    -42.5672703  0.499010E-01  0.124E+00    1.72       1.0  T
   4    -42.6192813 -0.520109E-01  0.127E-01    1.02       1.0  T
   5    -42.6195984 -0.317147E-03  0.625E-02    1.01       1.0  T
   6    -42.6197211 -0.122674E-03  0.114E-02    0.98       1.8  T
   7    -42.6197218 -0.770497E-06  0.601E-03    0.98       3.3  T
   8    -42.6197233 -0.141121E-05  0.116E-03    0.98      17.3  T
   9    -42.6197233 -0.459691E-08  0.705E-04    0.98      28.4  T
  10    -42.6197233 -0.549606E-08  0.204E-04    0.98      98.2  T
     SCC iter.                  ...        0 min,  0.013 sec
     gradient                   ...        0 min,  0.013 sec
 * total energy  :   -42.0980993 Eh     change        0.1146456E-02 Eh
   gradient norm :     0.1251083 Eh/α   predicted    -0.1016436E-01 (-986.59%)
   displ. norm   :     0.3147015 α      lambda       -0.1447523E-01
   maximum displ.:     0.1745865 α      in ANC's #3, #5, #8, ...

........................................................................
.............................. CYCLE   28 ..............................
........................................................................

 iter      E             dE          RMSdq      gap      omega  full diag
   1    -42.6291450 -0.426291E+02  0.471E-01    0.97       0.0  T
   2    -42.6285214  0.623518E-03  0.295E-01    1.06       1.0  T
   3    -42.5995883  0.289331E-01  0.911E-01    0.55       1.0  T
   4    -42.6291593 -0.295709E-01  0.373E-02    1.00       1.0  T
   5    -42.6292044 -0.451403E-04  0.107E-02    0.99       1.9  T
   6    -42.6292077 -0.332426E-05  0.319E-03    0.98       6.3  T
   7    -42.6292077  0.411263E-07  0.223E-03    0.98       9.0  T
   8    -42.6292078 -0.140703E-06  0.692E-04    0.98      28.9  T
   9    -42.6292078 -0.130226E-07  0.191E-04    0.98     104.9  T
     SCC iter.                  ...        0 min,  0.012 sec
     gradient                   ...        0 min,  0.013 sec
 * total energy  :   -42.1071685 Eh     change       -0.9069167E-02 Eh
   gradient norm :     0.0340080 Eh/α   predicted    -0.7954411E-02 ( -12.29%)
   displ. norm   :     0.4455925 α      lambda       -0.4886809E-02
   maximum displ.:     0.2283657 α      in ANC's #16, #8, #15, ...

........................................................................
.............................. CYCLE   29 ..............................
........................................................................

 iter      E             dE          RMSdq      gap      omega  full diag
   1    -42.6326218 -0.426326E+02  0.271E-01    1.00       0.0  T
   2    -42.6325441  0.777007E-04  0.163E-01    1.04       1.0  T
   3    -42.6265446  0.599950E-02  0.414E-01    0.80       1.0  T
   4    -42.6326018 -0.605715E-02  0.537E-02    1.02       1.0  T
   5    -42.6326912 -0.893921E-04  0.115E-02    1.00       1.7  T
   6    -42.6326928 -0.162144E-05  0.661E-03    1.00       3.0  T
   7    -42.6326934 -0.582732E-06  0.233E-03    1.00       8.6  T
   8    -42.6326935 -0.137568E-06  0.674E-04    1.00      29.7  T
   9    -42.6326935  0.604423E-09  0.372E-04    1.00      53.7  T
     SCC iter.                  ...        0 min,  0.012 sec
     gradient                   ...        0 min,  0.013 sec
 * total energy  :   -42.1105546 Eh     change       -0.3386188E-02 Eh
   gradient norm :     0.0312858 Eh/α   predicted    -0.2928552E-02 ( -13.51%)
   displ. norm   :     0.3912615 α      lambda       -0.3743157E-02
   maximum displ.:     0.1952142 α      in ANC's #8, #16, #10, ...

........................................................................
.............................. CYCLE   30 ..............................
........................................................................

 iter      E             dE          RMSdq      gap      omega  full diag
   1    -42.6413016 -0.426413E+02  0.222E-01    1.00       0.0  T
   2    -42.6409510  0.350690E-03  0.165E-01    1.07       1.0  T
   3    -42.6357829  0.516803E-02  0.392E-01    0.82       1.0  T
   4    -42.6413281 -0.554513E-02  0.329E-02    1.02       1.0  T
   5    -42.6413530 -0.249869E-04  0.925E-03    1.01       2.2  T
   6    -42.6413538 -0.710193E-06  0.437E-03    1.01       4.6  T
   7    -42.6413541 -0.303715E-06  0.160E-03    1.01      12.5  T
   8    -42.6413541 -0.558405E-07  0.689E-04    1.01      29.0  T
   9    -42.6413541  0.434880E-08  0.490E-04    1.01      40.8  T
     SCC iter.                  ...        0 min,  0.012 sec
     gradient                   ...        0 min,  0.013 sec
 * total energy  :   -42.1133896 Eh     change       -0.2834994E-02 Eh
   gradient norm :     0.0286287 Eh/α   predicted    -0.2158091E-02 ( -23.88%)
   displ. norm   :     0.4695939 α      lambda       -0.3893061E-02
   maximum displ.:     0.2172415 α      in ANC's #16, #8, #10, ...

........................................................................
.............................. CYCLE   31 ..............................
........................................................................

 iter      E             dE          RMSdq      gap      omega  full diag
   1    -42.6410900 -0.426411E+02  0.315E-01    1.01       0.0  T
   2    -42.6410865  0.355678E-05  0.195E-01    1.06       1.0  T
   3    -42.6364870  0.459954E-02  0.361E-01    0.84       1.0  T
   4    -42.6403988 -0.391181E-02  0.158E-01    1.09       1.0  T
   5    -42.6412557 -0.856943E-03  0.187E-02    1.03       1.1  T
   6    -42.6412648 -0.909229E-05  0.682E-03    1.03       2.9  T
   7    -42.6412649 -0.140465E-06  0.343E-03    1.02       5.8  T
   8    -42.6412652 -0.216652E-06  0.123E-03    1.02      16.2  T
   9    -42.6412652 -0.257793E-07  0.572E-04    1.02      35.0  T
  10    -42.6412652 -0.239638E-09  0.319E-04    1.02      62.6  T
     SCC iter.                  ...        0 min,  0.013 sec
     gradient                   ...        0 min,  0.013 sec
 * total energy  :   -42.1155582 Eh     change       -0.2168555E-02 Eh
   gradient norm :     0.0358355 Eh/α   predicted    -0.2375782E-02 (   9.56%)
   displ. norm   :     0.2570349 α      lambda       -0.2517916E-02
   maximum displ.:     0.1350564 α      in ANC's #8, #7, #11, ...

........................................................................
.............................. CYCLE   32 ..............................
........................................................................

 iter      E             dE          RMSdq      gap      omega  full diag
   1    -42.6518194 -0.426518E+02  0.190E-01    1.01       0.0  T
   2    -42.6518498 -0.304241E-04  0.135E-01    1.04       1.0  T
   3    -42.6502720  0.157777E-02  0.221E-01    0.91       1.0  T
   4    -42.6515833 -0.131130E-02  0.116E-01    1.07       1.0  T
   5    -42.6520087 -0.425388E-03  0.151E-02    1.01       1.3  T
   6    -42.6520141 -0.532977E-05  0.555E-03    1.02       3.6  T
   7    -42.6520144 -0.341412E-06  0.266E-03    1.02       7.5  T
   8    -42.6520145 -0.800151E-07  0.850E-04    1.02      23.5  T
   9    -42.6520145 -0.674737E-08  0.435E-04    1.02      46.0  T
     SCC iter.                  ...        0 min,  0.012 sec
     gradient                   ...        0 min,  0.013 sec
 * total energy  :   -42.1165726 Eh     change       -0.1014390E-02 Eh
   gradient norm :     0.0253311 Eh/α   predicted    -0.1342136E-02 (  32.31%)
   displ. norm   :     0.1049414 α      lambda       -0.6563631E-03
   maximum displ.:     0.0689642 α      in ANC's #6, #16, #8, ...

........................................................................
.............................. CYCLE   33 ..............................
........................................................................

 iter      E             dE          RMSdq      gap      omega  full diag
   1    -42.6496661 -0.426497E+02  0.798E-02    1.02       0.0  T
   2    -42.6496540  0.120708E-04  0.576E-02    1.00       1.0  T
   3    -42.6493707  0.283266E-03  0.976E-02    1.06       1.0  T
   4    -42.6496355 -0.264796E-03  0.414E-02    0.99       1.0  T
   5    -42.6496928 -0.573178E-04  0.590E-03    1.02       3.4  T
   6    -42.6496937 -0.897857E-06  0.205E-03    1.02       9.8  T
   7    -42.6496938 -0.511932E-07  0.101E-03    1.02      19.8  T
   8    -42.6496938 -0.104529E-07  0.295E-04    1.02      67.8  T
   9    -42.6496938 -0.120566E-08  0.153E-04    1.02     130.8  T
     SCC iter.                  ...        0 min,  0.012 sec
     gradient                   ...        0 min,  0.013 sec
 * total energy  :   -42.1169999 Eh     change       -0.4272810E-03 Eh
   gradient norm :     0.0098039 Eh/α   predicted    -0.3318018E-03 ( -22.35%)
   displ. norm   :     0.1355454 α      lambda       -0.3345558E-03
   maximum displ.:     0.0976806 α      in ANC's #6, #1, #8, ...

........................................................................
.............................. CYCLE   34 ..............................
........................................................................

 iter      E             dE          RMSdq      gap      omega  full diag
   1    -42.6494423 -0.426494E+02  0.738E-02    1.02       0.0  T
   2    -42.6494380  0.428600E-05  0.480E-02    1.01       1.0  T
   3    -42.6491796  0.258364E-03  0.863E-02    1.06       1.0  T
   4    -42.6493914 -0.211767E-03  0.424E-02    0.99       1.0  T
   5    -42.6494515 -0.601607E-04  0.362E-03    1.01       5.5  T
   6    -42.6494517 -0.199045E-06  0.187E-03    1.01      10.7  T
   7    -42.6494518 -0.322109E-07  0.841E-04    1.01      23.8  T
   8    -42.6494518 -0.142792E-07  0.245E-04    1.01      81.8  T
     SCC iter.                  ...        0 min,  0.011 sec
     gradient                   ...        0 min,  0.012 sec
 * total energy  :   -42.1172015 Eh     change       -0.2016234E-03 Eh
   gradient norm :     0.0073301 Eh/α   predicted    -0.1703622E-03 ( -15.50%)
   displ. norm   :     0.1715427 α      lambda       -0.2672921E-03
   maximum displ.:     0.1251791 α      in ANC's #6, #1, #10, ...

........................................................................
.............................. CYCLE   35 ..............................
........................................................................

 iter      E             dE          RMSdq      gap      omega  full diag
   1    -42.6509342 -0.426509E+02  0.656E-02    1.01       0.0  T
   2    -42.6509021  0.320502E-04  0.487E-02    0.99       1.0  T
   3    -42.6505749  0.327207E-03  0.103E-01    1.06       1.0  T
   4    -42.6509379 -0.363017E-03  0.150E-02    1.01       1.3  T
   5    -42.6509440 -0.601531E-05  0.299E-03    1.01       6.7  T
   6    -42.6509441 -0.140357E-06  0.146E-03    1.01      13.7  T
   7    -42.6509441 -0.145992E-07  0.734E-04    1.01      27.3  T
   8    -42.6509441 -0.102926E-07  0.194E-04    1.01     103.1  T
     SCC iter.                  ...        0 min,  0.011 sec
     gradient                   ...        0 min,  0.013 sec
 * total energy  :   -42.1173497 Eh     change       -0.1482106E-03 Eh
   gradient norm :     0.0084028 Eh/α   predicted    -0.1375862E-03 (  -7.17%)
   displ. norm   :     0.1366582 α      lambda       -0.1521522E-03
   maximum displ.:     0.0883327 α      in ANC's #6, #1, #10, ...

........................................................................
.............................. CYCLE   36 ..............................
........................................................................

 iter      E             dE          RMSdq      gap      omega  full diag
   1    -42.6492637 -0.426493E+02  0.452E-02    1.02       0.0  T
   2    -42.6490741  0.189667E-03  0.767E-02    0.97       1.0  T
   3    -42.6492374 -0.163307E-03  0.422E-02    1.03       1.0  T
   4    -42.6492804 -0.430235E-04  0.138E-02    1.01       1.4  T
   5    -42.6492848 -0.437008E-05  0.345E-03    1.01       5.8  T
   6    -42.6492850 -0.286738E-06  0.937E-04    1.01      21.3  T
   7    -42.6492851 -0.529573E-08  0.471E-04    1.01      42.5  T
     SCC iter.                  ...        0 min,  0.010 sec
     gradient                   ...        0 min,  0.013 sec
 * total energy  :   -42.1174464 Eh     change       -0.9668665E-04 Eh
   gradient norm :     0.0063603 Eh/α   predicted    -0.7750919E-04 ( -19.83%)
   displ. norm   :     0.1511604 α      lambda       -0.1250313E-03
   maximum displ.:     0.0786535 α      in ANC's #6, #1, #10, ...

........................................................................
.............................. CYCLE   37 ..............................
........................................................................

 iter      E             dE          RMSdq      gap      omega  full diag
   1    -42.6503400 -0.426503E+02  0.466E-02    1.02       0.0  T
   2    -42.6503247  0.153585E-04  0.356E-02    1.00       1.0  T
   3    -42.6501595  0.165200E-03  0.714E-02    1.05       1.0  T
   4    -42.6503355 -0.176023E-03  0.153E-02    1.01       1.3  T
   5    -42.6503433 -0.780391E-05  0.185E-03    1.01      10.8  T
   6    -42.6503433 -0.389408E-07  0.105E-03    1.01      19.1  T
   7    -42.6503433 -0.899131E-08  0.352E-04    1.01      56.8  T
   8    -42.6503433 -0.189262E-08  0.105E-04    1.01     190.4  T
     SCC iter.                  ...        0 min,  0.011 sec
     gradient                   ...        0 min,  0.013 sec
 * total energy  :   -42.1175260 Eh     change       -0.7962092E-04 Eh
   gradient norm :     0.0070815 Eh/α   predicted    -0.6394634E-04 ( -19.69%)
   displ. norm   :     0.1342013 α      lambda       -0.9280955E-04
   maximum displ.:     0.0791314 α      in ANC's #1, #6, #2, ...

........................................................................
.............................. CYCLE   38 ..............................
........................................................................

 iter      E             dE          RMSdq      gap      omega  full diag
   1    -42.6490272 -0.426490E+02  0.408E-02    1.03       0.0  T
   2    -42.6489306  0.965514E-04  0.571E-02    0.99       1.0  T
   3    -42.6489931 -0.624209E-04  0.388E-02    1.03       1.0  T
   4    -42.6490340 -0.409339E-04  0.805E-03    1.02       2.5  T
   5    -42.6490355 -0.148271E-05  0.181E-03    1.02      11.1  T
   6    -42.6490355 -0.630973E-07  0.691E-04    1.02      29.0  T
   7    -42.6490356 -0.110755E-08  0.387E-04    1.02      51.7  T
     SCC iter.                  ...        0 min,  0.010 sec
     gradient                   ...        0 min,  0.012 sec
 * total energy  :   -42.1175868 Eh     change       -0.6078890E-04 Eh
   gradient norm :     0.0061143 Eh/α   predicted    -0.4725380E-04 ( -22.27%)
   displ. norm   :     0.1358374 α      lambda       -0.8986038E-04
   maximum displ.:     0.0818333 α      in ANC's #1, #6, #11, ...

........................................................................
.............................. CYCLE   39 ..............................
........................................................................

 iter      E             dE          RMSdq      gap      omega  full diag
   1    -42.6489372 -0.426489E+02  0.403E-02    1.02       0.0  T
   2    -42.6488942  0.429811E-04  0.419E-02    1.00       1.0  T
   3    -42.6488574  0.367922E-04  0.523E-02    1.04       1.0  T
   4    -42.6489391 -0.817012E-04  0.136E-02    1.02       1.5  T
   5    -42.6489440 -0.492602E-05  0.213E-03    1.02       9.4  T
   6    -42.6489441 -0.928847E-07  0.935E-04    1.02      21.4  T
   7    -42.6489441 -0.110586E-07  0.365E-04    1.02      54.9  T
     SCC iter.                  ...        0 min,  0.010 sec
     gradient                   ...        0 min,  0.013 sec
 * total energy  :   -42.1176393 Eh     change       -0.5248058E-04 Eh
   gradient norm :     0.0054058 Eh/α   predicted    -0.4576178E-04 ( -12.80%)
   displ. norm   :     0.1215730 α      lambda       -0.6616813E-04
   maximum displ.:     0.0811648 α      in ANC's #1, #8, #6, ...

........................................................................
.............................. CYCLE   40 ..............................
........................................................................

 iter      E             dE          RMSdq      gap      omega  full diag
   1    -42.6491546 -0.426492E+02  0.329E-02    1.02       0.0  T
   2    -42.6491518  0.275353E-05  0.224E-02    1.02       1.0  T
   3    -42.6490798  0.720206E-04  0.460E-02    1.04       1.0  T
   4    -42.6491480 -0.682695E-04  0.156E-02    1.01       1.3  T
   5    -42.6491565 -0.844893E-05  0.139E-03    1.02      14.4  T
   6    -42.6491565 -0.274180E-07  0.662E-04    1.02      30.2  T
   7    -42.6491565 -0.160435E-08  0.245E-04    1.02      81.7  T
     SCC iter.                  ...        0 min,  0.010 sec
     gradient                   ...        0 min,  0.013 sec
 * total energy  :   -42.1176850 Eh     change       -0.4571920E-04 Eh
   gradient norm :     0.0078429 Eh/α   predicted    -0.3357585E-04 ( -26.56%)
   displ. norm   :     0.1179720 α      lambda       -0.7908506E-04
   maximum displ.:     0.0787496 α      in ANC's #1, #8, #3, ...

........................................................................
.............................. CYCLE   41 ..............................
........................................................................

 iter      E             dE          RMSdq      gap      omega  full diag
   1    -42.6496111 -0.426496E+02  0.357E-02    1.02       0.0  T
   2    -42.6496114 -0.378000E-06  0.216E-02    1.02       1.0  T
   3    -42.6495893  0.221115E-04  0.268E-02    1.01       1.0  T
   4    -42.6495885  0.774573E-06  0.261E-02    1.03       1.0  T
   5    -42.6496134 -0.248050E-04  0.210E-03    1.02       9.5  T
   6    -42.6496135 -0.101014E-06  0.819E-04    1.02      24.4  T
   7    -42.6496135 -0.180658E-08  0.300E-04    1.02      66.7  T
     SCC iter.                  ...        0 min,  0.010 sec
     gradient                   ...        0 min,  0.013 sec
 * total energy  :   -42.1177354 Eh     change       -0.5037891E-04 Eh
   gradient norm :     0.0036919 Eh/α   predicted    -0.4009711E-04 ( -20.41%)
   displ. norm   :     0.1908979 α      lambda       -0.6835208E-04
   maximum displ.:     0.1369067 α      in ANC's #1, #8, #3, ...

........................................................................
.............................. CYCLE   42 ..............................
........................................................................

 iter      E             dE          RMSdq      gap      omega  full diag
   1    -42.6497333 -0.426497E+02  0.498E-02    1.02       0.0  T
   2    -42.6497292  0.406740E-05  0.305E-02    1.01       1.0  T
   3    -42.6495080  0.221172E-03  0.787E-02    1.06       1.0  T
   4    -42.6497334 -0.225382E-03  0.621E-03    1.02       3.2  T
   5    -42.6497345 -0.111052E-05  0.132E-03    1.02      15.2  T
   6    -42.6497345 -0.129141E-07  0.652E-04    1.02      30.7  T
   7    -42.6497345 -0.290007E-08  0.197E-04    1.02     101.3  T
     SCC iter.                  ...        0 min,  0.010 sec
     gradient                   ...        0 min,  0.013 sec
 * total energy  :   -42.1177739 Eh     change       -0.3852432E-04 Eh
   gradient norm :     0.0087256 Eh/α   predicted    -0.3542412E-04 (  -8.05%)
   displ. norm   :     0.0918155 α      lambda       -0.5884909E-04
   maximum displ.:     0.0632413 α      in ANC's #1, #3, #10, ...
 * RMSD in coord.:     0.8610919 α      energy gain  -0.1421867E+00 Eh

generating ANC from model Hessian ...
Using Lindh-Hessian (1995)
 Shifting diagonal of input Hessian by    9.9194463122862647E-003
 Lowest  eigenvalues of input Hessian
    0.000000    0.000000    0.000000    0.000000    0.000000    0.000000
    0.010000    0.010009    0.010125    0.010378    0.010455    0.010471
    0.012969    0.015969    0.019809    0.020586    0.021134    0.026970
 Highest eigenvalues
    2.146219    2.222117    2.296899    2.375694    2.567280    4.452548


........................................................................
.............................. CYCLE   43 ..............................
........................................................................

 iter      E             dE          RMSdq      gap      omega  full diag
   1    -42.6504985 -0.426505E+02  0.316E-02    1.02       0.0  T
   2    -42.6504974  0.101397E-05  0.195E-02    1.02       1.0  T
   3    -42.6504243  0.731665E-04  0.449E-02    0.99       1.0  T
   4    -42.6504973 -0.730445E-04  0.791E-03    1.02       2.5  T
   5    -42.6504992 -0.189086E-05  0.117E-03    1.02      17.1  T
   6    -42.6504992 -0.312499E-07  0.484E-04    1.02      41.3  T
   7    -42.6504992 -0.102315E-08  0.192E-04    1.02     104.4  T
     SCC iter.                  ...        0 min,  0.010 sec
     gradient                   ...        0 min,  0.013 sec
 * total energy  :   -42.1178161 Eh     change       -0.4217878E-04 Eh
   gradient norm :     0.0044262 Eh/α   predicted     0.0000000E+00 (-100.00%)
   displ. norm   :     0.0637935 α      lambda        0.7865985E-05
   maximum displ.:     0.0378742 α      in ANC's #1, #3, #2, ...

........................................................................
.............................. CYCLE   44 ..............................
........................................................................

 iter      E             dE          RMSdq      gap      omega  full diag
   1    -42.6498092 -0.426498E+02  0.494E-02    1.02       0.0  T
   2    -42.6497662  0.430092E-04  0.434E-02    1.00       1.0  T
   3    -42.6496226  0.143558E-03  0.759E-02    1.06       1.0  T
   4    -42.6498125 -0.189880E-03  0.324E-03    1.02       6.2  T
   5    -42.6498126 -0.150285E-06  0.176E-03    1.02      11.4  T
   6    -42.6498126 -0.121255E-07  0.935E-04    1.02      21.4  T
   7    -42.6498126 -0.107797E-07  0.272E-04    1.02      73.6  T
     SCC iter.                  ...        0 min,  0.010 sec
     gradient                   ...        0 min,  0.013 sec
 * total energy  :   -42.1178388 Eh     change       -0.2276815E-04 Eh
   gradient norm :     0.0027644 Eh/α   predicted    -0.3143001E-04 (  38.04%)
   displ. norm   :     0.0578724 α      lambda       -0.4617993E-04
   maximum displ.:     0.0303378 α      in ANC's #1, #3, #7, ...

   *** GEOMETRY OPTIMIZATION CONVERGED AFTER 44 ITERATIONS ***

------------------------------------------------------------------------
 total energy gain   :       -21.4809641 Eh   -13479.5085 kcal/mol
 total RMSD          :         1.5088104 a0        0.7984 Å
 total power (kW/mol):     -1281.7787152 (step)********** (real)
------------------------------------------------------------------------

 ANCopt (total)                0 d,  0 h,  0 min,  1.415 sec
 optimizer setup                ...        0 min,  0.000 sec (  0.024%)
 model hessian                  ...        0 min,  0.018 sec (  1.279%)
 ANC generation                 ...        0 min,  0.002 sec (  0.164%)
 coordinate transformation      ...        0 min,  0.000 sec (  0.025%)
 single point calculation       ...        0 min,  1.380 sec ( 97.558%)
 optimization log               ...        0 min,  0.004 sec (  0.306%)
 hessian update                 ...        0 min,  0.001 sec (  0.040%)
 rational function              ...        0 min,  0.006 sec (  0.454%)

================
 final structure:
================
25
 xtb: 6.6.1 (8d0f1dd)
C            3.43785659316022        0.90958603825046        0.06965167343493
N            2.50238325344735       -0.18147998375463        0.00422911915560
C            2.78399450104934       -1.46769514381594       -0.12899870944390
N            1.64387897844645       -2.19135480072243       -0.11965056913978
C            0.59384898326301       -1.32447144777426        0.02603806283236
C            1.14381614786775       -0.05111919330893        0.10300802435731
C            0.26595604157756        1.13565144950796        0.20981888055956
O            0.69977345857830        2.26968101308300        0.22962989282220
N           -1.02704260080480        0.78967829621865        0.25902786011262
C           -3.64268704607703        3.65635057156351       -0.29476980227643
C           -1.60034400234607       -0.40414683866154        0.22375104830809
O           -2.78187462060724       -0.61707859723093        0.28422812374599
N           -0.71450664799349       -1.56955398180126        0.08533773217461
C           -1.28225351005450       -2.89523934713230        0.03955854786944
H            3.97960707794799        0.88456062848939        1.01626362852218
H            4.15447326216577        0.84657125771890       -0.74825070315333
H            2.88181047968400        1.84605372313472        0.00702400543324
H            3.76831348081091       -1.88216647611458       -0.23022785928563
H           -2.75274039175823        4.25456388282216       -0.25949842523861
H           -4.04409024780627        3.34516156133178       -1.23964439957344
H           -4.10499523841619        3.32687337216403        0.61513689015916
H           -0.89607606720153       -3.50872656601755        0.85491515437809
H           -1.07555174441725       -3.37371329672123       -0.91936253515412
H           -2.36077151449162       -2.78394499211816        0.15553239656089
H            1.58765288807563       -3.19580258751071       -0.21157641926110

 Bond Distances (Angstroems)
 ---------------------------
C1-N2=1.4387         C1-H15=1.0910        C1-H16=1.0893        C1-H17=1.0909        N2-C1=1.4387         N2-C3=1.3234         
N2-C6=1.3684         C3-N2=1.3234         C3-N4=1.3504         C3-H18=1.0728        N4-C3=1.3504         N4-C5=1.3694         
N4-H25=1.0102        C5-N4=1.3694         C5-C6=1.3892         C5-N13=1.3324        C6-N2=1.3684         C6-C5=1.3892         
C6-C7=1.4800         C7-C6=1.4800         C7-O8=1.2143         C7-N9=1.3394         O8-C7=1.2143         N9-C7=1.3394         
N9-C11=1.3248        C10-H19=1.0729       C10-H20=1.0727       C10-H21=1.0725       C11-N9=1.3248        C11-O12=1.2021       
C11-N13=1.4704       O12-C11=1.2021       N13-C5=1.3324        N13-C11=1.4704       N13-C14=1.4429       C14-N13=1.4429       
C14-H22=1.0910       C14-H23=1.0914       C14-H24=1.0904       H15-C1=1.0910        H16-C1=1.0893        H17-C1=1.0909        
H18-C3=1.0728        H19-C10=1.0729       H20-C10=1.0727       H21-C10=1.0725       H22-C14=1.0910       H23-C14=1.0914       
H24-C14=1.0904       H25-N4=1.0102        
 C  H  Rav=1.0835 sigma=0.0088  Rmin=1.0725  Rmax=1.0914    10
 C  C  Rav=1.4346 sigma=0.0454  Rmin=1.3892  Rmax=1.4800     2
 N  H  Rav=1.0102 sigma=0.0000  Rmin=1.0102  Rmax=1.0102     1
 N  C  Rav=1.3760 sigma=0.0517  Rmin=1.3234  Rmax=1.4704    10
 O  C  Rav=1.2082 sigma=0.0061  Rmin=1.2021  Rmax=1.2143     2

 selected bond angles (degree)
 --------------------
H15-C1-N2=110.18               H16-C1-N2=110.47               H16-C1-H15=108.88              H17-C1-N2=108.48               
H17-C1-H15=108.82              H17-C1-H16=109.99              C3-N2-C1=127.11                C6-N2-C1=124.75                
C6-N2-C3=108.13                N4-C3-N2=109.91                H18-C3-N2=125.47               H18-C3-N4=124.63               
C5-N4-C3=107.99                H25-N4-C3=125.39               H25-N4-C5=126.61               C6-C5-N4=106.41                
N13-C5-N4=129.88               N13-C5-C6=123.70               C5-C6-N2=107.56                C7-C6-N2=132.10                
C7-C6-C5=120.28                O8-C7-C6=122.56                N9-C7-C6=111.60                N9-C7-O8=125.84                
C11-N9-C7=130.51               H20-C10-H19=120.07             H21-C10-H19=120.06             H21-C10-H20=119.79             

 selected dihedral angles (degree)
 ---------------------------------
C3-N2-C1-H15=289.41           C3-N2-C1-H16= 49.74           C3-N2-C1-H17=170.38           C6-N2-C1-H15=107.81           
C6-N2-C1-H16=228.15           C6-N2-C1-H17=348.79           N4-C3-N2-C1=178.58            N4-C3-N2-C6=359.95            
H18-C3-N2-C1=358.56           H18-C3-N2-C6=179.93           C5-N4-C3-N2=  0.00            C5-N4-C3-H18=180.02           
H25-N4-C3-N2=179.60           H25-N4-C3-H18=359.62          C6-C5-N4-C3=  0.05            C6-C5-N4-H25=180.46           
N13-C5-N4-C3=179.79           N13-C5-N4-H25=  0.20          C5-C6-N2-C1=181.41            C5-C6-N2-C3=  0.08            
C7-C6-N2-C1=  4.23            C7-C6-N2-C3=182.89            N2-C6-C5-N4=359.92            N2-C6-C5-N13=180.16           
C7-C6-C5-N4=177.50            C7-C6-C5-N13=357.74           O8-C7-C6-N2=359.69            O8-C7-C6-C5=182.80            
N9-C7-C6-N2=178.79            N9-C7-C6-C5=  1.89            C11-N9-C7-C6=359.81           C11-N9-C7-O8=178.87           
           -------------------------------------------------
          |                Final Singlepoint                |
           -------------------------------------------------

          ...................................................
          :                      SETUP                      :
          :.................................................:
          :  # basis functions                  67          :
          :  # atomic orbitals                  67          :
          :  # shells                           39          :
          :  # electrons                        74          :
          :  max. iterations                   250          :
          :  Hamiltonian                  GFN2-xTB          :
          :  restarted?                      false          :
          :  GBSA solvation                  false          :
          :  PC potential                    false          :
          :  electronic temp.         5000.0000000     K    :
          :  accuracy                    1.0000000          :
          :  -> integral cutoff          0.2500000E+02      :
          :  -> integral neglect         0.1000000E-07      :
          :  -> SCF convergence          0.1000000E-05 Eh   :
          :  -> wf. convergence          0.1000000E-03 e    :
          :  Broyden damping             0.4000000          :
          ...................................................

 iter      E             dE          RMSdq      gap      omega  full diag
   1    -42.6498126 -0.426498E+02  0.676E-05    1.02       0.0  T
   2    -42.6498126  0.406473E-09  0.115E-04    1.02     174.3  T
   3    -42.6498126 -0.326359E-09  0.684E-05    1.02     292.4  T

   *** convergence criteria satisfied after 3 iterations ***

         #    Occupation            Energy/Eh            Energy/eV
      -------------------------------------------------------------
         1        2.0000           -0.9093668             -24.7451
       ...           ...                  ...                  ...
        31        1.9981           -0.6127807             -16.6746
        32        1.9980           -0.6120893             -16.6558
        33        1.9698           -0.5684948             -15.4695
        34        1.9056           -0.5499230             -14.9642
        35        1.9027           -0.5494166             -14.9504
        36        1.8635           -0.5437244             -14.7955
        37        1.6831           -0.5287834             -14.3889 (HOMO)
        38        0.6669           -0.4913744             -13.3710 (LUMO)
        39        0.0167           -0.4266628             -11.6101
        40        0.0013           -0.3860119             -10.5039
        41        0.0002           -0.3565650              -9.7026
        42        0.0000           -0.2599395              -7.0733
       ...           ...                  ...                  ...
        67                          0.5717886              15.5592
      -------------------------------------------------------------
                  HL-Gap            0.0374090 Eh            1.0180 eV
             Fermi-level           -0.5023412 Eh          -13.6694 eV

 SCC (total)                   0 d,  0 h,  0 min,  0.023 sec
 SCC setup                      ...        0 min,  0.000 sec (  0.873%)
 Dispersion                     ...        0 min,  0.000 sec (  0.774%)
 classical contributions        ...        0 min,  0.000 sec (  0.407%)
 integral evaluation            ...        0 min,  0.004 sec ( 19.494%)
 iterations                     ...        0 min,  0.005 sec ( 20.370%)
 molecular gradient             ...        0 min,  0.013 sec ( 57.532%)
 printout                       ...        0 min,  0.000 sec (  0.502%)

         :::::::::::::::::::::::::::::::::::::::::::::::::::::
         ::                     SUMMARY                     ::
         :::::::::::::::::::::::::::::::::::::::::::::::::::::
         :: total energy             -42.117838848387 Eh    ::
         :: gradient norm              0.002762441469 Eh/a0 ::
         :: HOMO-LUMO gap              1.017950086194 eV    ::
         ::.................................................::
         :: SCC energy               -42.649812649262 Eh    ::
         :: -> isotropic ES            0.141126457263 Eh    ::
         :: -> anisotropic ES         -0.007359916493 Eh    ::
         :: -> anisotropic XC          0.019055420301 Eh    ::
         :: -> dispersion             -0.020558789519 Eh    ::
         :: repulsion energy           0.531928314278 Eh    ::
         :: add. restraining           0.000000005211 Eh    ::
         :: total charge               1.000000000000 e     ::
         :::::::::::::::::::::::::::::::::::::::::::::::::::::

           -------------------------------------------------
          |                Property Printout                |
           -------------------------------------------------

    * Orbital Energies and Occupations

         #    Occupation            Energy/Eh            Energy/eV
      -------------------------------------------------------------
         1        2.0000           -0.9093668             -24.7451
       ...           ...                  ...                  ...
        25        1.9998           -0.6522824             -17.7495
        26        1.9998           -0.6449224             -17.5492
        27        1.9994           -0.6302559             -17.1501
        28        1.9985           -0.6165959             -16.7784
        29        1.9985           -0.6161044             -16.7651
        30        1.9983           -0.6140073             -16.7080
        31        1.9981           -0.6127807             -16.6746
        32        1.9980           -0.6120893             -16.6558
        33        1.9698           -0.5684948             -15.4695
        34        1.9056           -0.5499230             -14.9642
        35        1.9027           -0.5494166             -14.9504
        36        1.8635           -0.5437244             -14.7955
        37        1.6831           -0.5287834             -14.3889 (HOMO)
        38        0.6669           -0.4913744             -13.3710 (LUMO)
        39        0.0167           -0.4266628             -11.6101
        40        0.0013           -0.3860119             -10.5039
        41        0.0002           -0.3565650              -9.7026
        42        0.0000           -0.2599395              -7.0733
        43                         -0.1943954              -5.2898
        44                         -0.1733882              -4.7181
        45                         -0.1388365              -3.7779
        46                         -0.0808618              -2.2004
        47                         -0.0551573              -1.5009
        48                         -0.0347460              -0.9455
       ...                                ...                  ...
        67                          0.5717886              15.5592
      -------------------------------------------------------------
                  HL-Gap            0.0374090 Eh            1.0180 eV
             Fermi-level           -0.5023412 Eh          -13.6694 eV

     #   Z          covCN         q      C6AA      α(0)
     1   6 C        3.692    -0.094    22.484     6.785
     2   7 N        2.835     0.089    19.697     6.592
     3   6 C        3.061     0.056    26.678     8.470
     4   7 N        2.798    -0.064    22.481     7.042
     5   6 C        3.034     0.123    25.270     8.245
     6   6 C        3.133    -0.018    28.229     8.698
     7   6 C        2.761     0.299    21.928     7.669
     8   8 O        0.858    -0.344    20.599     6.085
     9   7 N        1.844    -0.246    27.272     7.740
    10   6 C        2.779    -0.067    29.638     8.917
    11   6 C        2.707     0.338    21.264     7.548
    12   8 O        0.860    -0.338    20.473     6.066
    13   7 N        2.735    -0.071    22.611     7.062
    14   6 C        3.693    -0.066    21.960     6.705
    15   1 H        0.924     0.110     1.693     2.035
    16   1 H        0.925     0.106     1.733     2.059
    17   1 H        0.924     0.140     1.459     1.889
    18   1 H        0.926     0.125     1.574     1.962
    19   1 H        0.926     0.135     1.496     1.913
    20   1 H        0.926     0.132     1.520     1.928
    21   1 H        0.926     0.136     1.490     1.909
    22   1 H        0.924     0.080     1.977     2.199
    23   1 H        0.924     0.081     1.967     2.193
    24   1 H        0.924     0.127     1.557     1.951
    25   1 H        0.860     0.229     0.969     1.542

 Mol. C6AA /au·bohr⁶  :       6644.081859
 Mol. C8AA /au·bohr⁸  :     153040.543859
 Mol. α(0) /au        :        125.201513


Wiberg/Mayer (AO) data.
largest (>0.10) Wiberg bond orders for each atom

 ---------------------------------------------------------------------------
     #   Z sym  total        # sym  WBO       # sym  WBO       # sym  WBO
 ---------------------------------------------------------------------------
     1   6 C    3.908 --     2 N    0.984    16 H    0.963    17 H    0.956
                            15 H    0.954
     2   7 N    3.716 --     3 C    1.406     6 C    1.181     1 C    0.984
     3   6 C    3.884 --     2 N    1.406     4 N    1.284    18 H    0.952
     4   7 N    3.590 --     3 C    1.284     5 C    1.171    25 H    0.919
     5   6 C    3.950 --     6 C    1.337    13 N    1.267     4 N    1.171
     6   6 C    3.806 --     5 C    1.337     2 N    1.181     7 C    0.990
     7   6 C    3.947 --     8 O    1.636     9 N    1.240     6 C    0.990
     8   8 O    1.929 --     7 C    1.636     9 N    0.133
     9   7 N    2.862 --    11 C    1.278     7 C    1.240     8 O    0.133
                            12 O    0.114
    10   6 C    2.938 --    20 H    0.980    19 H    0.979    21 H    0.979
    11   6 C    3.946 --    12 O    1.677     9 N    1.278    13 N    0.911
    12   8 O    1.975 --    11 C    1.677     9 N    0.114
    13   7 N    3.460 --     5 C    1.267    14 C    0.987    11 C    0.911
    14   6 C    3.917 --    13 N    0.987    22 H    0.965    23 H    0.963
                            24 H    0.960
    15   1 H    0.986 --     1 C    0.954
    16   1 H    0.987 --     1 C    0.963
    17   1 H    0.979 --     1 C    0.956
    18   1 H    0.983 --     3 C    0.952
    19   1 H    0.981 --    10 C    0.979
    20   1 H    0.981 --    10 C    0.980
    21   1 H    0.980 --    10 C    0.979
    22   1 H    0.982 --    14 C    0.965
    23   1 H    0.981 --    14 C    0.963
    24   1 H    0.981 --    14 C    0.960
    25   1 H    0.947 --     4 N    0.919
 ---------------------------------------------------------------------------

Topologies differ in total number of bonds
Writing topology from bond orders to xtbtopo.mol

molecular dipole:
                 x           y           z       tot (Debye)
 q only:        2.018      -1.269      -0.451
   full:        2.461      -1.957      -0.514       8.099
molecular quadrupole (traceless):
                xx          xy          yy          xz          yz          zz
 q only:       19.554     -26.094      11.446       2.155      -1.480     -31.000
  q+dip:       17.123     -29.238      11.175       2.343      -1.504     -28.298
   full:       16.052     -29.491      10.875       2.563      -1.720     -26.927

           -------------------------------------------------
          |                Geometry Summary                 |
           -------------------------------------------------

      molecular mass/u    :      195.1988581
   center of mass at/Å    :        0.1123823      -0.1191536       0.0688540
  moments of inertia/u·Å² :        0.5604851E+03   0.9333374E+03   0.1473243E+04
rotational constants/cm⁻¹ :        0.3007686E-01   0.1806167E-01   0.1144253E-01

 * 23 selected distances

     #   Z          #   Z                                           value/Å
     1   6 C        2   7 N                                       1.4386855
     2   7 N        3   6 C                                       1.3234063
     3   6 C        4   7 N                                       1.3504201
     4   7 N        5   6 C                                       1.3694069
     2   7 N        6   6 C                                       1.3683772
     5   6 C        6   6 C                                       1.3891777
     7   6 C        8   8 O                                       1.2143366
     7   6 C        9   7 N                                       1.3393897
     9   7 N       11   6 C                                       1.3248161
    11   6 C       12   8 O                                       1.2020866
     5   6 C       13   7 N                                       1.3324326
    13   7 N       14   6 C                                       1.4428702 (max)
     1   6 C       15   1 H                                       1.0909603
     1   6 C       16   1 H                                       1.0892543
     1   6 C       17   1 H                                       1.0909085
     3   6 C       18   1 H                                       1.0728084
    10   6 C       19   1 H                                       1.0728972
    10   6 C       20   1 H                                       1.0727308
    10   6 C       21   1 H                                       1.0724805
    14   6 C       22   1 H                                       1.0910115
    14   6 C       23   1 H                                       1.0914178
    14   6 C       24   1 H                                       1.0904300
     4   7 N       25   1 H                                       1.0102115 (min)

 * 5 distinct bonds (by element types)

   Z      Z             #   av. dist./Å        max./Å        min./Å
   1 H    6 C          10     1.0834899     1.0914178     1.0724805
   6 C    6 C           1     1.3891777     1.3891777     1.3891777
   1 H    7 N           1     1.0102115     1.0102115     1.0102115
   6 C    7 N           9     1.3655338     1.4428702     1.3234063
   6 C    8 O           2     1.2082116     1.2143366     1.2020866


optimized geometry written to: xtbopt.xyz


           -------------------------------------------------
          | TOTAL ENERGY              -42.117838848387 Eh   |
          | GRADIENT NORM               0.002762441469 Eh/α |
          | HOMO-LUMO GAP               1.017950086194 eV   |
           -------------------------------------------------

------------------------------------------------------------------------
 * finished run on 2024/06/05 at 19:59:16.755     
------------------------------------------------------------------------
 total:
 * wall-time:     0 d,  0 h,  0 min,  1.505 sec
 *  cpu-time:     0 d,  0 h,  0 min,  1.486 sec
 * ratio c/w:     0.987 speedup
 SCF:
 * wall-time:     0 d,  0 h,  0 min,  0.037 sec
 *  cpu-time:     0 d,  0 h,  0 min,  0.037 sec
 * ratio c/w:     1.000 speedup
 ANC optimizer:
 * wall-time:     0 d,  0 h,  0 min,  1.442 sec
 *  cpu-time:     0 d,  0 h,  0 min,  1.438 sec
 * ratio c/w:     0.997 speedup

