25
 energy: 0.000000000000 xtb: 6.6.1 (8d0f1dd)
C            3.23720163006194        1.16630919979326        0.08434469647475
N            2.29877817382611        0.07527477071623        0.03981603040599
C            2.58028210190900       -1.21425402444508        0.03006176031096
N            1.43813958087363       -1.93419271955128        0.00098261760884
C            0.39035688448383       -1.05887472636071       -0.00790371836672
C            0.93510056364412        0.21347819449412        0.01709077491437
C            0.09450143893243        1.40504303904423       -0.00410947031874
O            0.49712751527797        2.54126714362870       -0.00342325688240
N           -1.25076640035757        1.06271879480407       -0.03085478223738
C           -2.21907211982101        2.15522099834493       -0.05001256985998
C           -1.81739487048744       -0.20012725993278       -0.04692818574614
O           -2.99983886758376       -0.37846417018721       -0.07008878229737
N           -0.92618586207120       -1.30210215599479       -0.03682761578324
C           -1.46982264913417       -2.64643102187190       -0.06029820460571
H            3.71247264356769        1.21471455160235        1.06488849150277
H            4.00791497605742        1.03430808813993       -0.67357694370751
H            2.69910007168542        2.09770118228144       -0.09130154882931
H            3.56654120610678       -1.63682992603973        0.04233140067262
H           -1.67107961066214        3.09322851271934       -0.02552706933167
H           -2.82428953597071        2.09428624779827       -0.95318082946668
H           -2.87644029173232        2.07745725625962        0.81450067533302
H           -1.17061996399332       -3.19584890659852        0.83242232437030
H           -1.14560257411436       -3.17511610292205       -0.95688275822323
H           -2.55549792440841       -2.55659984320617       -0.07459039797972
H            1.38130855184625       -2.94313852034425       -0.01389874181052
25
 energy: -5.389076498646 xtb: 6.6.1 (8d0f1dd)
C            3.24414148100182        1.17684257074975        0.08770264386962
N            2.30804172102297        0.09531103640272        0.03761166307754
C            2.59961945593408       -1.23275231580040        0.02890184020819
N            1.42748962072154       -1.94021960282065       -0.00078623489714
C            0.39639703585438       -1.05608658283234       -0.00841956537604
C            0.93016700169144        0.22259514537166        0.01514604209616
C            0.10159542103387        1.39622706955496       -0.00537553988536
O            0.49861956325256        2.56192464594685       -0.00499450875031
N           -1.26072322076138        1.05146535762407       -0.03123929987332
C           -2.22144643487662        2.14769606461529       -0.05031102929097
C           -1.82354843977791       -0.20009675444245       -0.04710301573160
O           -3.02009900149606       -0.38244432549472       -0.07014661240013
N           -0.93412930301432       -1.30077925712200       -0.03657302137725
C           -1.47110942395864       -2.64330879584957       -0.05922267284711
H            3.72143149936066        1.22228062854409        1.07019909437891
H            4.01278536435850        1.04162735258888       -0.67457198401350
H            2.69790697206410        2.10166548763959       -0.08816071480348
H            3.57789640269539       -1.65898854511436        0.04111266714125
H           -1.66054269081316        3.07937468715910       -0.02625802535501
H           -2.82728125532839        2.09422510589280       -0.95447637455596
H           -2.87926333421433        2.07827623194189        0.81549444980500
H           -1.16750131741509       -3.19432907374006        0.83301257492093
H           -1.14219166338193       -3.17440255935562       -0.95465752525732
H           -2.55643481624382       -2.55325148346636       -0.07376907177592
H            1.36039403022657       -2.94382348582109       -0.01608188315990
25
 energy: -6.563877790416 xtb: 6.6.1 (8d0f1dd)
C            3.25434298349238        1.18448595827581        0.09401710958135
N            2.31739609980967        0.10736062236839        0.03321783507952
C            2.61072430662862       -1.24936066035010        0.02518327995845
N            1.41252174069448       -1.93855690511886       -0.00509746208285
C            0.39958457884052       -1.04963592801361       -0.01046484866132
C            0.92760102874744        0.23239913773849        0.01131115807108
C            0.10706930808680        1.38458378161239       -0.00882526930429
O            0.48429684485750        2.56754847959457       -0.00997910386579
N           -1.27335829201863        1.03931889298246       -0.03259015450426
C           -2.22406053217285        2.13935216865806       -0.05148505751811
C           -1.82900373638375       -0.20163847114422       -0.04714267317653
O           -3.03045479529266       -0.39086059373801       -0.06917522906800
N           -0.94118351616360       -1.29606770491865       -0.03608108846317
C           -1.46984712085185       -2.63815398084879       -0.05600491988357
H            3.73835709607132        1.23327879058796        1.07579774228102
H            4.02368871650832        1.06053206221666       -0.67178956551286
H            2.70220248260879        2.10719258609548       -0.07631688351557
H            3.58114841406296       -1.68693002792273        0.03682536513809
H           -1.64073777700364        3.05802619287338       -0.02882711487916
H           -2.83194004363302        2.09491641386519       -0.95563404242990
H           -2.88241883774154        2.08134744676348        0.81568575123153
H           -1.16216094299652       -3.18915173606922        0.83628124056266
H           -1.13648113139965       -3.17243263131524       -0.94930603965439
H           -2.55534271005582       -2.54892135625628       -0.07091412052551
H            1.33027050324095       -2.93960393576456       -0.02165201271116
25
 energy: -6.319403287613 xtb: 6.6.1 (8d0f1dd)
C            3.26492126057107        1.18810299921333        0.10483313636990
N            2.32569981383495        0.11023039566446        0.02704614995098
C            2.61157891362198       -1.26170911051946        0.01592669007715
N            1.39929905225050       -1.93435725412184       -0.01439658177808
C            0.39922754643736       -1.04212865458514       -0.01530431344364
C            0.92914407412040        0.24022040283943        0.00533321780111
C            0.10669278733930        1.37982733811957       -0.01576029556082
O            0.46112315888029        2.57057442055464       -0.02030766274455
N           -1.28507298532054        1.03070780117712       -0.03601617000595
C           -2.22635317542549        2.13407078931012       -0.05476897291522
C           -1.83545381201660       -0.20602150993846       -0.04703800417865
O           -3.03683155992562       -0.40393833680842       -0.06611651002507
N           -0.94428586038338       -1.29139456900594       -0.03564091582438
C           -1.46438452290186       -2.63468641241265       -0.04856488210738
H            3.75720808345378        1.23506799099503        1.08421554072791
H            4.03658821973197        1.08817579292593       -0.66385093155961
H            2.71067716647203        2.11338690910983       -0.04985170735202
H            3.57441506761164       -1.71648154337597        0.02571092802840
H           -1.61908166208918        3.03775596015661       -0.03570021200440
H           -2.83766957488922        2.09685224020675       -0.95725230553322
H           -2.88352650900598        2.08828074479721        0.81452461617080
H           -1.15285528042510       -3.17988279677563        0.84630843778333
H           -1.12765110784547       -3.17190232146601       -0.93907539951069
H           -2.55027314393576       -2.54746637849937       -0.06342313446986
H            1.29907871777512       -2.93425629538908       -0.03379682174876
25
 energy: 1.150516945588 xtb: 6.6.1 (8d0f1dd)
C            3.30780015283797        1.19842035029082        0.16119221341456
N            2.35930047128697        0.11661863864378       -0.00362677232854
C            2.60722949905184       -1.30875047345628       -0.03552626279264
N            1.34625813495316       -1.91556211087432       -0.06488676748056
C            0.39464326629403       -1.00827698779248       -0.04187204888462
C            0.93848987854985        0.27273216562568       -0.02454247857475
C            0.10071702195168        1.36799186936535       -0.05163929576027
O            0.36125899349654        2.58498231316509       -0.07346280887105
N           -1.33249558386724        0.99879418397858       -0.05499782962700
C           -2.23566031251111        2.11713754603429       -0.07358411618205
C           -1.86418248269934       -0.22559836654570       -0.04651552139029
O           -3.06280089822714       -0.46061440939626       -0.04868353218983
N           -0.95414623791135       -1.27204227037027       -0.03447805735805
C           -1.43465629415599       -2.62367743980313       -0.00775497592396
H            3.83487960531530        1.21502407531180        1.13051161073217
H            4.08783988833743        1.21382205273529       -0.62190192813327
H            2.74662439262132        2.13870709265703        0.09159242168829
H            3.53642576179462       -1.84034106625970       -0.03644219686720
H           -1.53377240117771        2.96040055858631       -0.07486751287282
H           -2.86441692793304        2.10637786453151       -0.96620333123794
H           -2.88403742204293        2.12463470204335        0.80690505332485
H           -1.10436385817173       -3.13475158733096        0.90248527955928
H           -1.08423054903976       -3.17656778659587       -0.88394814299619
H           -2.52243575431670       -2.55005783684806       -0.02094334788645
H            1.16794632349950       -2.91037447552381       -0.09977575521444
25
 energy: 10.253663671056 xtb: 6.6.1 (8d0f1dd)
C            3.33508529466784        1.19992357134376        0.21429894667387
N            2.37895174718660        0.12011721245113       -0.02894591869976
C            2.60119870162458       -1.33726527546125       -0.08633960109298
N            1.31339610659581       -1.90436020185643       -0.11651614437419
C            0.39003898173984       -0.98387587170090       -0.06740162358378
C            0.94441002367720        0.29432395246906       -0.05026586560638
C            0.09509470446405        1.36640873457362       -0.08420466194305
O            0.30601035517881        2.59410803942430       -0.12073944560515
N           -1.36397731360504        0.98434742567692       -0.07449352637831
C           -2.24541667418666        2.11210457595153       -0.09370012168765
C           -1.88517230008690       -0.23585025007690       -0.04577682761574
O           -3.08149156017819       -0.49583159318836       -0.03088723197460
N           -0.95948951026385       -1.25875668275735       -0.03490484569297
C           -1.40798566842781       -2.61871592305926        0.03299131483129
H            3.88697572151312        1.16578630562781        1.17594271448895
H            4.11497600096387        1.30463784595355       -0.57945759343594
H            2.77109037386501        2.15152982240333        0.22596966777012
H            3.50524599082815       -1.91882100552134       -0.09940241857574
H           -1.49641854601523        2.92059451543180       -0.11517053671965
H           -2.88833755670924        2.11224413755277       -0.97663698026470
H           -2.88128450902142        2.15518650307868        0.79738844910254
H           -1.05896717436922       -3.09523635219714        0.95795562495455
H           -1.04862184410763       -3.18905488606920       -0.82924218152160
H           -2.49722918546789       -2.56187065572374        0.02437127419381
H            1.08413250807029       -2.89264534215440       -0.16779857109573
25
 energy: 14.330589156832 xtb: 6.6.1 (8d0f1dd)
C            3.34823712268246        1.19319685186800        0.26314780859131
N            2.38601736224785        0.12227922861251       -0.04721586689152
C            2.59539857627351       -1.34923504409706       -0.13311565200473
N            1.29880182572419       -1.89894022871956       -0.16873819040095
C            0.38678521542563       -0.96955156733234       -0.09090426860043
C            0.94653019155883        0.30570261542012       -0.06991190332730
C            0.09242768516468        1.37179662822430       -0.11179296398251
O            0.29283493230809        2.59694511125244       -0.15973933286027
N           -1.38131061111736        0.98541264175983       -0.09384745822891
C           -2.25714779458400        2.11595893568199       -0.11448843165996
C           -1.89699820772085       -0.23675818021325       -0.04470938125640
O           -3.09079051452752       -0.51034330406961       -0.01381544387267
N           -0.96106513765185       -1.25029944503274       -0.03713811003373
C           -1.38618240629745       -2.61672499009868        0.07249041181702
H            3.91581604728331        1.09719232091093        1.21731199206115
H            4.12078624000127        1.35737175763893       -0.53440033245839
H            2.78622109953618        2.14978343525478        0.34557001440442
H            3.48367657687883       -1.95375219319160       -0.16101541543301
H           -1.50481992581042        2.91511027431232       -0.15467565836747
H           -2.91134564385970        2.11259407877985       -0.98827307199585
H           -2.87857577624144        2.17651792485501        0.78560632412489
H           -1.01837570456972       -3.06011001460550        1.00961941258607
H           -1.02380862726575       -3.20630194339351       -0.77638117522691
H           -2.47633294865173       -2.57866930971296        0.07231707073775
H            1.04543509114899       -2.88014698193219       -0.23886648157438
25
 energy: 18.366493187038 xtb: 6.6.1 (8d0f1dd)
C            3.35858529812683        1.18165022011515        0.31899722093963
N            2.39024131959386        0.12557839947765       -0.06496203325433
C            2.59010335529033       -1.35684001978127       -0.18466180627055
N            1.28679199629383       -1.89219484472086       -0.23005497682037
C            0.38422338446508       -0.95696399456897       -0.11793000668116
C            0.94692399672150        0.31617572538839       -0.08900503280461
C            0.09041330505437        1.37794186981605       -0.14018331244048
O            0.28216062528301        2.60185372206824       -0.20036330433931
N           -1.39649716744775        0.98808640968751       -0.11578753468089
C           -2.27002815174772        2.12041154208651       -0.13893221360543
C           -1.90613145764826       -0.23543607498902       -0.04372845688142
O           -3.09740722399152       -0.51978634625619        0.00554628857295
N           -0.96243850701791       -1.24189886010703       -0.04107227099544
C           -1.36432622853942       -2.61360468853041        0.11814009696960
H            3.93874489533893        1.01587072741411        1.26372134550826
H            4.12323328839116        1.40313951940183       -0.47885034091183
H            2.80061166909723        2.14007641667287        0.47500668918441
H            3.46568722514757       -1.97828109425906       -0.23306433420922
H           -1.51900997331207        2.91650247157156       -0.20123368135010
H           -2.93826882642482        2.10946618124995       -1.00216517907786
H           -2.87664134556808        2.19771275836080        0.77088705056284
H           -0.97340793208429       -3.01961871011604        1.06702387037909
H           -1.00181874413897       -3.22668909177169       -0.71534514582726
H           -2.45503873292011       -2.59715465805323        0.13101066530545
H            1.01550859997320       -2.86696897798488       -0.32595970112476
25
 energy: 20.336774226684 xtb: 6.6.1 (8d0f1dd)
C            3.36317207480739        1.16449256884379        0.37636065801224
N            2.38975202503120        0.12910874099845       -0.07855580841133
C            2.58544764381314       -1.35680654254031       -0.23487210422415
N            1.28136353343076       -1.88542587249149       -0.29562946782905
C            0.38243933463300       -0.94846553894711       -0.14578270708482
C            0.94540978564636        0.32349518596726       -0.10432654656213
C            0.08874832622563        1.38608325719128       -0.16576776313585
O            0.28025595907211        2.60670917836346       -0.23670059222702
N           -1.40648499050127        0.99469951464874       -0.13817498665893
C           -2.28295277985362        2.12623432533742       -0.16495883492555
C           -1.91099414180097       -0.23122407849752       -0.04249207016407
O           -3.09985302369516       -0.52135373264187        0.02550297646787
N           -0.96257643802341       -1.23543908050142       -0.04660150933164
C           -1.34479210812717       -2.60972283519816        0.16571343811543
H            3.94817915341101        0.93058133104926        1.31001532728287
H            4.12108108124013        1.43070652585173       -0.41416733240744
H            2.81194811562408        2.11894181682901        0.59661259902436
H            3.45362872654187       -1.98386811147476       -0.30992420126213
H           -1.54366001459999        2.92759377651407       -0.25068369153020
H           -2.96572400183299        2.10194105647361       -1.01696650870374
H           -2.87475186166607        2.21570084099629        0.75395792653525
H           -0.92880082833112       -2.97773137070710        1.12361039300094
H           -0.98689011656052       -3.24837027062321       -0.65188682280664
H           -2.43531037242359       -2.61452243783821        0.19662205355310
H            1.00357958587511       -2.85432964543122       -0.42387052858021
25
 energy: 20.870634602401 xtb: 6.6.1 (8d0f1dd)
C            3.36308409360353        1.14234569844152        0.43334375907129
N            2.38608405893469        0.13249824170539       -0.08822764263751
C            2.58150638942404       -1.35071647264830       -0.28159473474936
N            1.28043033658052       -1.87773909740935       -0.36257094280761
C            0.38116286144390       -0.94308681710414       -0.17388140595056
C            0.94254045041265        0.32849785354427       -0.11551356665722
C            0.08733471213944        1.39486159546343       -0.18761000222217
O            0.28255224965831        2.61185140775877       -0.26794226633744
N           -1.41198122222820        1.00306495052908       -0.16014494295571
C           -2.29499535312082        2.13199042156125       -0.19160825767475
C           -1.91218076595534       -0.22526556044956       -0.04132864277956
O           -3.09888993727649       -0.51692672914591        0.04545141373326
N           -0.96187626314909       -1.23069124971451       -0.05351373333082
C           -1.32743275955130       -2.60463160048309        0.21363328360102
H            3.94467354244811        0.84666142474579        1.35541499051082
H            4.11772572423322        1.44282982683996       -0.34309018055183
H            2.81942005667544        2.08796332532752        0.70691651467152
H            3.44709649697459       -1.97458239936322       -0.38981339413483
H           -1.57306153656201        2.94389417320440       -0.30188929033481
H           -2.99275478674637        2.09027029416041       -1.03173762862826
H           -2.87260199710101        2.23108195262716        0.73574960217557
H           -0.88553659809724       -2.93533218602481        1.17729851883513
H           -0.97791717870037       -3.26972154667287       -0.58774631766959
H           -2.41691407146005       -2.62859676121592        0.26686272637928
H            1.00474616535572       -2.84149214350531       -0.52942396340866
25
 energy: 20.235324507770 xtb: 6.6.1 (8d0f1dd)
C            3.35831257572633        1.11589627344612        0.48925723427284
N            2.37988217030125        0.13516596036121       -0.09461365317472
C            2.57835905785481       -1.33940240521819       -0.32511798601354
N            1.28336067700680       -1.86922862927527       -0.43016093934036
C            0.38021951191226       -0.94061512803135       -0.20210934504819
C            0.93867837252051        0.33110989720459       -0.12267294200509
C            0.08630817902698        1.40366300949466       -0.20472915646641
O            0.28892010730390        2.61660805439544       -0.29274448629336
N           -1.41289626265102        1.01264469887505       -0.18084946417498
C           -2.30555466619932        2.13717006566474       -0.21924610475885
C           -1.90992003992849       -0.21795424609841       -0.03977720626068
O           -3.09484273495338       -0.50713483035000        0.06569714276965
N           -0.96048449823569       -1.22775823757266       -0.06104388155587
C           -1.31246607064101       -2.59834433264415        0.26169278809809
H            3.92814848877630        0.76471753198793        1.40078940436834
H            4.11437970067111        1.44213561338689       -0.26751690118431
H            2.82161803077332        2.04944355458968        0.80624220685242
H            3.44587294910753       -1.95149830416047       -0.47363211642945
H           -1.60581447540488        2.96349326837083       -0.35505706997565
H           -3.01749749686271        2.07373777965568       -1.04735658820277
H           -2.87029378916305        2.24436677266738        0.71538982118236
H           -0.84447903848190       -2.89330919752894        1.22777849615745
H           -0.97496500269257       -3.29002374298583       -0.52338299973019
H           -2.40003301713433       -2.63779060318288        0.34151496467873
H            1.01740193930312       -2.82806422088012       -0.64131732161833
25
 energy: 8.793784211109 xtb: 6.6.1 (8d0f1dd)
C            3.32881240131780        1.05236872667526        0.54313237866539
N            2.35619987967163        0.13344519878643       -0.09725095520951
C            2.55845829632246       -1.28239241111824       -0.34843285643799
N            1.31396905428904       -1.85637568346077       -0.49682456117395
C            0.37241061006446       -0.94873938858344       -0.23375684350015
C            0.93505843750100        0.31734150083887       -0.11446006197809
C            0.07016097378156        1.43626580434959       -0.22580056020156
O            0.33374381098459        2.62011732134916       -0.32354317881390
N           -1.39051902819920        1.04162654178533       -0.21420198003721
C           -2.31828344541941        2.15591672448453       -0.24502439378505
C           -1.89934236940265       -0.20557288282996       -0.04180880772969
O           -3.07643187113701       -0.47207102243238        0.08565295339717
N           -0.94871495090166       -1.23886003746283       -0.08332361939367
C           -1.28654547372500       -2.59272785704382        0.31261270740042
H            3.87383588221885        0.63067517186437        1.41006359309157
H            4.07219139319007        1.38898034804533       -0.15988614892374
H            2.81730717608685        1.93658106843721        0.90634704081272
H            3.43668556119517       -1.85566375956765       -0.56336295100767
H           -1.69206769503614        3.02934652220024       -0.41254281615627
H           -3.05397154629211        2.05758583669276       -1.05048067647514
H           -2.85431744518108        2.25359384217234        0.70044124919843
H           -0.79917469859324       -2.83806807460129        1.26758804997224
H           -0.96254575081687       -3.31329245631571       -0.44487979074291
H           -2.36635856631939       -2.65886618742083        0.42058648369675
H            1.09165403233609       -2.80218624467256       -0.76381035852110
25
 energy: 7.226082017999 xtb: 6.6.1 (8d0f1dd)
C            3.31128400531908        0.98755406298743        0.59170724371495
N            2.34752473787890        0.13167285275771       -0.12096381766450
C            2.54357850383175       -1.24554832082120       -0.36969416456017
N            1.31697494035854       -1.83176590633514       -0.54311288942952
C            0.36209245470754       -0.94166658869943       -0.27361268594029
C            0.93100658357525        0.31912071822245       -0.11419394273634
C            0.05929927656766        1.44854164514822       -0.24747688839910
O            0.33295463795994        2.63008436045632       -0.36706417507836
N           -1.37886617454622        1.05021382082219       -0.24791190899140
C           -2.32682224532831        2.15945744710901       -0.26778918358948
C           -1.89406521525954       -0.19798369180598       -0.05765152792165
O           -3.06699546276318       -0.45120615714145        0.10309305176898
N           -0.94887667750533       -1.24052451862954       -0.11137436110855
C           -1.25573914752575       -2.58063169651521        0.36057290823227
H            3.84602096840309        0.48102296726586        1.41746047555891
H            4.06112030677932        1.40014075078006       -0.08463794343602
H            2.80180920747525        1.84251979434020        1.05146331668965
H            3.42469853553309       -1.79748068827077       -0.64543106613597
H           -1.73174784664726        3.05398734639429       -0.47216573360714
H           -3.09326203848536        2.03933161326434       -1.04471995270345
H           -2.83517425228972        2.26871354195870        0.69381799626963
H           -0.74640710340761       -2.76821205447456        1.31345227183053
H           -0.92803963167291       -3.33196601465131       -0.36319888847530
H           -2.32888649458038       -2.67030656944329        0.48980507879462
H            1.10873279955793       -2.76604011254699       -0.86333931693519
25
 energy: 7.725761429941 xtb: 6.6.1 (8d0f1dd)
C            3.29303983291973        0.93625432875888        0.65313507103818
N            2.33565953214168        0.13958394090617       -0.13505974391108
C            2.53753721441422       -1.22025093867022       -0.41090491281895
N            1.31846753691931       -1.81376556950066       -0.60065568787398
C            0.35572460261032       -0.92928109174141       -0.31588637854829
C            0.91883055255819        0.33085937415845       -0.12366055889189
C            0.05402329869931        1.45658670922728       -0.27206802346066
O            0.33435649264471        2.63680623017327       -0.40365302933636
N           -1.37401255750958        1.06231807507182       -0.27702188261900
C           -2.33575212875970        2.16354057285754       -0.29094835022511
C           -1.88871302740804       -0.18560477161962       -0.07029864705863
O           -3.06020891220321       -0.42871718220664        0.11905756034660
N           -0.95464760244451       -1.23646311792253       -0.13684717808444
C           -1.22787806037953       -2.56697904392061        0.40595050000669
H            3.82406352261697        0.34088865157797        1.43697538142345
H            4.03861182331572        1.38334954033921        0.00747100611431
H            2.78852106004914        1.75181773508971        1.16814735235603
H            3.42181576752401       -1.73460980907391       -0.72695234741022
H           -1.77521402694359        3.07241542195940       -0.52934501679808
H           -3.12653686355530        2.01343828895677       -1.03897818242876
H           -2.81395942632349        2.27797749832383        0.68681062333699
H           -0.69017552000180       -2.69253731073805        1.36621911488179
H           -0.89104624579050       -3.35163495594215       -0.28373369290936
H           -2.29762945502490       -2.68050037311590        0.56058817361644
H            1.12733725786657       -2.73646360077671       -0.96130725459858
25
 energy: 8.364324368991 xtb: 6.6.1 (8d0f1dd)
C            3.26704090684940        0.85829114008419        0.71121423364693
N            2.33045378182530        0.14625284999047       -0.15953514973147
C            2.52735870700238       -1.18846733113234       -0.45362479357428
N            1.31771772100116       -1.79072034927201       -0.64227491483533
C            0.34478192442468       -0.91393023608364       -0.36296428682595
C            0.90950403234712        0.34145200653885       -0.13323309096548
C            0.03986400281543        1.46326306788048       -0.29962903426805
O            0.32287930536017        2.64283258351292       -0.44725366856977
N           -1.36450269347621        1.06823370139964       -0.30797998985522
C           -2.33970861125841        2.16252608807133       -0.31391289773105
C           -1.88316906382993       -0.18046534555741       -0.07978847187675
O           -3.05066962850454       -0.40630676789294        0.13641381884034
N           -0.96265137881500       -1.24119431009963       -0.16293347465048
C           -1.19045937489595       -2.54289381917409        0.45308774313203
H            3.78577883691260        0.19346113198901        1.41064998142211
H            4.02242761018795        1.40069398514057        0.11079405515442
H            2.75666344227067        1.61147737015553        1.32527026443602
H            3.41412655075634       -1.65975112399666       -0.81810991168361
H           -1.80689942956044        3.07301381198317       -0.59222505262005
H           -3.15119519295872        1.98090161025950       -1.02338074048267
H           -2.78254284002040        2.29355403126298        0.67855526570895
H           -0.64817949218251       -2.60735894769695        1.40072444700628
H           -0.83399123670141       -3.34708847979794       -0.19237522691906
H           -2.25026016307310       -2.67530859746466        0.62860937141222
H            1.13784695145909       -2.69343946792845       -1.03906458002300
25