25
 energy: 0.000000000000 xtb: 6.6.1 (8d0f1dd)
C            3.23720163006194        1.16630919979326        0.08434469647475
N            2.29877817382611        0.07527477071623        0.03981603040599
C            2.58028210190900       -1.21425402444508        0.03006176031096
N            1.43813958087363       -1.93419271955128        0.00098261760884
C            0.39035688448383       -1.05887472636071       -0.00790371836672
C            0.93510056364412        0.21347819449412        0.01709077491437
C            0.09450143893243        1.40504303904423       -0.00410947031874
O            0.49712751527797        2.54126714362870       -0.00342325688240
N           -1.25076640035757        1.06271879480407       -0.03085478223738
C           -2.21907211982101        2.15522099834493       -0.05001256985998
C           -1.81739487048744       -0.20012725993278       -0.04692818574614
O           -2.99983886758376       -0.37846417018721       -0.07008878229737
N           -0.92618586207120       -1.30210215599479       -0.03682761578324
C           -1.46982264913417       -2.64643102187190       -0.06029820460571
H            3.71247264356769        1.21471455160235        1.06488849150277
H            4.00791497605742        1.03430808813993       -0.67357694370751
H            2.69910007168542        2.09770118228144       -0.09130154882931
H            3.56654120610678       -1.63682992603973        0.04233140067262
H           -1.67107961066214        3.09322851271934       -0.02552706933167
H           -2.82428953597071        2.09428624779827       -0.95318082946668
H           -2.87644029173232        2.07745725625962        0.81450067533302
H           -1.17061996399332       -3.19584890659852        0.83242232437030
H           -1.14560257411436       -3.17511610292205       -0.95688275822323
H           -2.55549792440841       -2.55659984320617       -0.07459039797972
H            1.38130855184625       -2.94313852034425       -0.01389874181052
25
 energy: -5.396814705740 xtb: 6.6.1 (8d0f1dd)
C            3.24396006190539        1.17730112970003        0.08694197092642
N            2.30802165679413        0.09547684741746        0.03768962729328
C            2.59949469178800       -1.23266469176889        0.02982014847588
N            1.42736102245494       -1.94020691362641        0.00048799827469
C            0.39633709394377       -1.05604755493197       -0.00830607236491
C            0.93018323462237        0.22263510154800        0.01521815724035
C            0.10163774492302        1.39612802205229       -0.00529133586155
O            0.49835724350397        2.56195287461928       -0.00472146702316
N           -1.26044864061194        1.05087689862206       -0.03113723635779
C           -2.22073773709636        2.14705935313821       -0.04994042205962
C           -1.82365089634633       -0.20047005142270       -0.04726857755770
O           -3.02027534204549       -0.38284474911791       -0.07035789392166
N           -0.93419411187828       -1.30077390372391       -0.03695806259898
C           -1.47160154771885       -2.64295388631051       -0.06000626505903
H            3.72197245510728        1.22307178661691        1.06910673698725
H            4.01214243814573        1.04237581780780       -0.67590636892413
H            2.69733476770549        2.10199789097292       -0.08867902649204
H            3.57768710183274       -1.65902797247728        0.04237257298114
H           -1.65925988284341        3.07838324045028       -0.02553520024279
H           -2.82622570618598        2.09363396442951       -0.95429385855075
H           -2.87836266058435        2.07713934554681        0.81591703616349
H           -1.16800262835597       -3.19406771249060        0.83212566859426
H           -1.14290835478853       -3.17366047853592       -0.95571971367468
H           -2.55691558623548       -2.55238536921605       -0.07441246084674
H            1.36030824990037       -2.94390038712738       -0.01411205925397
25
 energy: -6.566125900420 xtb: 6.6.1 (8d0f1dd)
C            3.25045668574287        1.18325602242532        0.08957192307597
N            2.31402158206373        0.10659886084537        0.03402275447092
C            2.60866794064952       -1.24560905520537        0.02954820000628
N            1.41537680117476       -1.93882559699697        0.00023894238242
C            0.39950337723669       -1.05191711938814       -0.00905361372663
C            0.92639359002672        0.23032324841710        0.01257092616102
C            0.10746734056201        1.38467250882134       -0.00732668702186
O            0.48708340732404        2.56503131104298       -0.00751652162154
N           -1.27050915938393        1.04072107483266       -0.03174713832688
C           -2.22140791722131        2.14097744614751       -0.04991276581272
C           -1.82584674724571       -0.20142710582027       -0.04757708610167
O           -3.02635541085320       -0.38969336665036       -0.07034283188840
N           -0.93987169432879       -1.29750056324368       -0.03705403988124
C           -1.47127895584373       -2.63875133330372       -0.05943355853214
H            3.73471264109945        1.23159541940374        1.07058599087130
H            4.01834563577556        1.05599955986541       -0.67676726130829
H            2.69941015513144        2.10619354434109       -0.08188253198236
H            3.58024560118905       -1.67768816376723        0.04235301429176
H           -1.64386941620489        3.06324899915810       -0.02570604872536
H           -2.82806426822577        2.09468234040652       -0.95442327663300
H           -2.87956414861354        2.07862011974408        0.81666464312562
H           -1.16541566384249       -3.19129735613625        0.83226423396227
H           -1.14013792456388       -3.17161921993565       -0.95420459422430
H           -2.55660908891997       -2.54814125044535       -0.07402911935811
H            1.33946030520758       -2.94042172238617       -0.01380965705577
25
 energy: -6.673769220286 xtb: 6.6.1 (8d0f1dd)
C            3.25326601495599        1.18411914169855        0.09110453494190
N            2.31645084364542        0.10735645362546        0.03092799627593
C            2.60876374901106       -1.25069473815695        0.02913316885564
N            1.41071823559276       -1.93694782202048        0.00029500741501
C            0.39987313681665       -1.05038585787903       -0.00976037326363
C            0.92620369611741        0.23306652039078        0.01053285037017
C            0.10914781228356        1.38227584750508       -0.00936395362394
O            0.47634053506300        2.56537454119851       -0.01042828814947
N           -1.27574551102819        1.03799929062187       -0.03256564076779
C           -2.22170852056449        2.14007769594180       -0.05006025889963
C           -1.82675306091733       -0.20297088864381       -0.04785649755005
O           -3.02666739751241       -0.39585023175538       -0.07023030958014
N           -0.94070913302701       -1.29600135689315       -0.03708113657690
C           -1.46941860447604       -2.63746682738842       -0.05871909933014
H            3.74190750481031        1.23228414653249        1.07045907714852
H            4.02111351779952        1.06600841273301       -0.67724718102962
H            2.70172641794486        2.10852786721419       -0.07427002513584
H            3.57795719800548       -1.68725155184721        0.04191841190549
H           -1.63578405975808        3.05696643947441       -0.02619839460409
H           -2.82925298348734        2.09704665002498       -0.95411605864368
H           -2.87958340185944        2.08125832747491        0.81696231071872
H           -1.16334048361741       -3.18937982785393        0.83335806087301
H           -1.13784978231637       -3.17066113467618       -0.95320292019611
H           -2.55493450974872       -2.54708402317426       -0.07349020142565
H            1.33049345420301       -2.93863847197522       -0.01306718358042
25
 energy: -6.709143036472 xtb: 6.6.1 (8d0f1dd)
C            3.25560520249124        1.18368388042369        0.09342592454599
N            2.31912015042725        0.10580490380429        0.02619697666252
C            2.60687212741891       -1.25476219579150        0.02812922608195
N            1.40728168101487       -1.93478720549735        0.00040621212111
C            0.39943017996658       -1.04871013516588       -0.01098928363887
C            0.92718696946658        0.23550933834693        0.00731516180424
C            0.11061660979687        1.38247609646626       -0.01290316738744
O            0.46406074212207        2.56681399452884       -0.01526397845517
N           -1.28068145154283        1.03639838967134       -0.03418061891067
C           -2.22204190068092        2.14046055880866       -0.05048478196855
C           -1.82831923967992       -0.20491662622082       -0.04840984201410
O           -3.02700257971698       -0.40292806588993       -0.06994872498722
N           -0.94059908813387       -1.29461598212683       -0.03713700754855
C           -1.46611101226640       -2.63708957567963       -0.05732558440447
H            3.74965812276667        1.22677338835895        1.07057437342866
H            4.02205065198825        1.07848464265704       -0.67867734198001
H            2.70324666103496        2.11021768634809       -0.06103380569694
H            3.57374028825734       -1.69691763803586        0.04066780781743
H           -1.62871617583738        3.05233752993073       -0.02741442893353
H           -2.83112837173248        2.10115842822630       -0.95359859387939
H           -2.87904674941300        2.08571067341323        0.81740245208190
H           -1.15968600812770       -3.18707512423597        0.83566446310737
H           -1.13385541646736       -3.17027263995608       -0.95139702353102
H           -2.55190511039202       -2.54798346207190       -0.07238721119006
H            1.32243838517545       -2.93674225814058       -0.01159730697792
25
 energy: -6.707035525890 xtb: 6.6.1 (8d0f1dd)
C            3.25693533511165        1.18237016214137        0.09680615655574
N            2.32129764000189        0.10363187616657        0.02014759491975
C            2.60428838257404       -1.25690029145479        0.02620503521044
N            1.40510585694475       -1.93295706451680        0.00027804824746
C            0.39824781671313       -1.04671422083725       -0.01282982498903
C            0.92840316322126        0.23760898684450        0.00289413764427
C            0.11200697038076        1.38421010210790       -0.01792552384071
O            0.45515859869848        2.56924833339164       -0.02189355492244
N           -1.28397532985457        1.03560328596371       -0.03669980289511
C           -2.22229517200494        2.14155371807123       -0.05130293786409
C           -1.83043316412908       -0.20619337557577       -0.04924792057963
O           -3.02808656828753       -0.40797147657893       -0.06940919287076
N           -0.94040147992212       -1.29348869274913       -0.03728418188562
C           -1.46211985926598       -2.63766059402654       -0.05513281652861
H            3.75717349560746        1.21385743772761        1.07142929079862
H            4.01983609372047        1.09167989266336       -0.68113568136326
H            2.70272775306305        2.11074304963776       -0.04208338303163
H            3.56912802088280       -1.70422178374648        0.03824042323030
H           -1.62470632294454        3.05048181343900       -0.02960085134254
H           -2.83357588163654        2.10560169381554       -0.95304405149060
H           -2.87768301860357        2.09058308008089        0.81803325042854
H           -1.15448905153020       -3.18466781496854        0.83913301979453
H           -1.12827268549168       -3.17097004327811       -0.94837593131099
H           -2.54819346626384       -2.55146236309867       -0.07056158336808
H            1.31613754095107       -2.93493710904802       -0.00960582239925
25
 energy: -6.625292477531 xtb: 6.6.1 (8d0f1dd)
C            3.25851029582552        1.17920436635805        0.10570316318650
N            2.32445784867989        0.09997616239040        0.00601796643042
C            2.59916156927134       -1.25935488797366        0.02053455233097
N            1.40106100932063       -1.92983938427863       -0.00085770747031
C            0.39528269969671       -1.04233637917284       -0.01765165205571
C            0.93010223446907        0.24160130100590       -0.00799229725530
C            0.11452469338698        1.38810080648548       -0.03032888334240
O            0.44298172327113        2.57451494278626       -0.03806611341215
N           -1.28875769429223        1.03474738823371       -0.04325990470455
C           -2.22274468799542        2.14409108252096       -0.05369394411208
C           -1.83496009344995       -0.20730350373337       -0.05134613029330
O           -3.03108421362396       -0.41453547769887       -0.06781049233859
N           -0.94072621817202       -1.29138907652429       -0.03781103371226
C           -1.45378794765592       -2.63947723022412       -0.04930895436495
H            3.77343091339626        1.17844056570526        1.07417200855147
H            4.01110739072537        1.12056921062219       -0.68703632622077
H            2.69948764131542        2.11110761643666        0.00561100376801
H            3.56037724797563       -1.71571264514398        0.03123734591054
H           -1.61982581272992        3.04945794123574       -0.03576698851726
H           -2.83937392832473        2.11345592146491       -0.95199163125110
H           -2.87353545943918        2.09965882277382        0.81953900858165
H           -1.14225211556451       -3.17918856960502        0.84798868170227
H           -1.11533840019597       -3.17389481940627       -0.94001980634394
H           -2.54039943002223       -2.56136162743193       -0.06550315473280
H            1.30451540206827       -2.93150392465433       -0.00532481418707
25
 energy: -5.548366158980 xtb: 6.6.1 (8d0f1dd)
C            3.26212635609128        1.16875239776589        0.13757874358858
N            2.33216493015208        0.09040847773882       -0.04146451148404
C            2.58382502368582       -1.26512041419806       -0.00047967667913
N            1.38817471279512       -1.92092766666441       -0.00659863435191
C            0.38574957526891       -1.02861086477455       -0.03496670073112
C            0.93385417449963        0.25358855540780       -0.04555201672682
C            0.12143019146675        1.39987335194854       -0.07291598326024
O            0.41281254004286        2.59014791349149       -0.09331918050223
N           -1.30165123287817        1.03336110779769       -0.06637228084797
C           -2.22431977610481        2.15219177088564       -0.06255584712233
C           -1.84880192450014       -0.20858959705793       -0.05856276407575
O           -3.04087705905993       -0.43009576167249       -0.06174955980876
N           -0.94298861898204       -1.28489425305374       -0.04004179325060
C           -1.42797181032532       -2.64530200647787       -0.02846207550043
H            3.82729937688239        1.05471574946406        1.08328207653112
H            3.97758978897454        1.21680313257776       -0.70479355757024
H            2.68805870341439        2.11117458938317        0.17118128676441
H            3.53460079163977       -1.74693476472916        0.00538580642746
H           -1.60825342172400        3.04902865921157       -0.05843245153337
H           -2.85934885595785        2.13502857801151       -0.94871170325460
H           -2.85830060701980        2.12601890473757        0.82448654414174
H           -1.10239972783079       -3.16008418953699        0.87918995909581
H           -1.07369497296635       -3.18521269663517       -0.90973623862921
H           -2.51617586712218       -2.59506419383578       -0.04687202190498
H            1.26931237749395       -2.92122817761333        0.00751647683189
25
 energy: -5.336224500613 xtb: 6.6.1 (8d0f1dd)
C            3.26176433282293        1.16438304554130        0.15000794912283
N            2.33232900653598        0.08958022270044       -0.05622367513032
C            2.58011634318833       -1.26409947865167       -0.00803324791448
N            1.38510737021067       -1.91898107370014       -0.01057323412290
C            0.38291637889787       -1.02473944786534       -0.04231429056577
C            0.93376714647343        0.25634108832016       -0.05931599873548
C            0.12211100645576        1.40339139041825       -0.08800887907824
O            0.41144622696825        2.59360394177247       -0.11238379407628
N           -1.30326374774382        1.03448486641693       -0.07471936569391
C           -2.22530495762063        2.15462266832530       -0.06497501642170
C           -1.85233043643014       -0.20713207485099       -0.06106713201877
O           -3.04386526400424       -0.42995696034131       -0.05869122535096
N           -0.94440704120728       -1.28318091735220       -0.04174420387228
C           -1.42108668065951       -2.64684880845668       -0.02098735088522
H            3.83870429735432        1.01708578588891        1.08414972109760
H            3.96557968492054        1.24241082277418       -0.69952096658440
H            2.68785134776335        2.10426039095195        0.22077182258835
H            3.52896192359585       -1.74992284127853       -0.00540041167491
H           -1.60977332107948        3.05185050064495       -0.06641508010076
H           -2.86724983749287        2.13850248249135       -0.94612408311571
H           -2.85191439429411        2.13086060499504        0.82744811680963
H           -1.09022036219641       -3.15286717781522        0.89002448098327
H           -1.06161344039026       -3.18975360870184       -0.89848416420709
H           -2.50942841888028       -2.60646592717056       -0.03941952852962
H            1.26201750474782       -2.91840089288475        0.00903345362436
25
 energy: -5.008512182049 xtb: 6.6.1 (8d0f1dd)
C            3.26198503862376        1.15995701722108        0.16357454359266
N            2.33277199999331        0.08909687487526       -0.07188477151774
C            2.57663490869235       -1.26401083064636       -0.01626371304129
N            1.38140001193783       -1.91683409889662       -0.01557612792327
C            0.38043257037612       -1.02087978021650       -0.05071070861668
C            0.93356507486117        0.25933262722511       -0.07413053431992
C            0.12252361848459        1.40637042096298       -0.10437587573237
O            0.40813893203912        2.59690179157869       -0.13337945957044
N           -1.30557394880502        1.03536974766936       -0.08386092769967
C           -2.22636698003741        2.15685114533574       -0.06758306112808
C           -1.85556130245955       -0.20588600756952       -0.06374373948557
O           -3.04651889039691       -0.43049225744337       -0.05509892814695
N           -0.94582532470497       -1.28114667177813       -0.04397232026631
C           -1.41411878735854       -2.64783794205365       -0.01268591397438
H            3.85006078945471        0.97844345048608        1.08642705782396
H            3.95529571722611        1.27035632453164       -0.69290075637763
H            2.68754310321094        2.09768867977950        0.27366347048565
H            3.52351151376954       -1.75400777196504       -0.01775791098275
H           -1.60994380436644        3.05363842772645       -0.07541313693488
H           -2.87635851491533        2.14166209914070       -0.94295124321957
H           -2.84482923805975        2.13590759501337        0.83084495864176
H           -1.07792972697665       -3.14427794630414        0.90209696033195
H           -1.04985572303794       -3.19455402995022       -0.88602019766104
H           -2.50259167909003       -2.61709092215281       -0.03083327416631
H            1.25382530947509       -2.91552934039758        0.00956950603615
25
 energy: -5.112668530549 xtb: 6.6.1 (8d0f1dd)
C            3.26157808675730        1.15740075643628        0.17181777842764
N            2.33199795350813        0.09033752842301       -0.07850305817299
C            2.57608971480011       -1.26304016677014       -0.02070323294600
N            1.38029414780808       -1.91627805485031       -0.02029712932702
C            0.37994603185941       -1.01969059212605       -0.05651680957412
C            0.93283454059359        0.26005084522271       -0.08220887831896
C            0.12148839379739        1.40710183242664       -0.11336497789058
O            0.40954715771050        2.59719656906832       -0.14498415270052
N           -1.30558680073348        1.03648659845816       -0.08902144768806
C           -2.22714365225674        2.15750097455088       -0.06842634642855
C           -1.85598315245795       -0.20461788717491       -0.06511872826876
O           -3.04707442195251       -0.42847484790090       -0.05219439359830
N           -0.94654690281364       -1.28024057285894       -0.04629181196688
C           -1.41204723824463       -2.64747930206077       -0.00795254740237
H            3.84979148827832        0.96389536473534        1.08860621118712
H            3.95291406757335        1.27959894893135       -0.68105490143347
H            2.68921863201574        2.09096385285693        0.29461636860837
H            3.52302873008253       -1.75243562716766       -0.02640559019217
H           -1.61205125156868        3.05520777289209       -0.08061316482367
H           -2.88242942351196        2.14063196862213       -0.93974764909951
H           -2.84005018872817        2.13619672863964        0.83380133962213
H           -1.07327354359769       -3.13855187078084        0.90887264300653
H           -1.04653010636388       -3.19748673078880       -0.87872922918031
H           -2.50034988821913       -2.62063555039403       -0.02508060661409
H            1.25255229360006       -2.91460993621810        0.00653421092181
25
 energy: -5.064090854436 xtb: 6.6.1 (8d0f1dd)
C            3.25651869038653        1.13325867228286        0.24727630677032
N            2.32345578311051        0.10644967738968       -0.14858417941215
C            2.57362634645716       -1.25296597430413       -0.05344465226517
N            1.37025619770357       -1.91230203133692       -0.05654014202393
C            0.37736899263303       -1.00976374292850       -0.11284764660295
C            0.92457969928381        0.26567173833031       -0.16142019191334
C            0.10797201342632        1.41142467782934       -0.20278048558615
O            0.42690269135654        2.59699628944887       -0.26325118485771
N           -1.30373462789337        1.04779549285780       -0.14222774650265
C           -2.23430591550688        2.16268839690155       -0.07421347713209
C           -1.85711840584048       -0.19181733672833       -0.08120783989278
O           -3.05019251841342       -0.40568052671327       -0.02700761623518
N           -0.95341478143649       -1.27147693059601       -0.07337068764162
C           -1.39451233049457       -2.64154146202268        0.03402059192359
H            3.85699454529230        0.80635985521028        1.09889879376041
H            3.92122058786606        1.38217964570111       -0.57979276891932
H            2.69854911337562        2.02523400145698        0.51498800433617
H            3.52287115936161       -1.73206286935006       -0.10440690787512
H           -1.63333005355942        3.07002011175283       -0.13120510297827
H           -2.94585223030462        2.12757453425428       -0.90207601836820
H           -2.78808095865191        2.13454597479735        0.86783936197379
H           -1.03618989014263       -3.08038723126982        0.97192139059100
H           -1.01482556542181       -3.22582553216469       -0.80972941566425
H           -2.48084961006032       -2.64975095001871        0.02224303398439
H            1.24430573540881       -2.90759587860810       -0.00604752332155
25
 energy: -3.388541305244 xtb: 6.6.1 (8d0f1dd)
C            3.24695506745635        1.10655303883124        0.32154264979833
N            2.31352250281542        0.12890966127143       -0.22720012179964
C            2.57487116590895       -1.23947735471878       -0.07389869673020
N            1.36245133962625       -1.90949334271051       -0.08484670538806
C            0.37762943513277       -1.00199054665443       -0.17122141004086
C            0.91501461200934        0.26916556093229       -0.24521883074658
C            0.08830197050262        1.41258017731825       -0.29991830153998
O            0.45012306360633        2.59165735758638       -0.39238209890552
N           -1.29826929668636        1.06080668960096       -0.20153543468214
C           -2.24033261779531        2.16693196976176       -0.07801728184138
C           -1.85365704881265       -0.17804932004014       -0.10065569754220
O           -3.04918795131773       -0.37649327153881       -0.00350785558952
N           -0.95963530927581       -1.26279765579251       -0.10774819399305
C           -1.37979201503729       -2.63164189136094        0.07421016517448
H            3.87207764815888        0.62384473614131        1.08810731406200
H            3.87526731131821        1.50684098842764       -0.48007776352201
H            2.69931096939437        1.94470608546431        0.76809950507946
H            3.52867713178077       -1.70132578376179       -0.18521566985853
H           -1.65919026508078        3.08611696781985       -0.18507623015632
H           -3.01427962065706        2.10836252895247       -0.85407185551704
H           -2.72600856906818        2.12778485121944        0.90665525940987
H           -1.00872962966091       -3.01511273902853        1.03495519323275
H           -0.98379384505651       -3.25478364936042       -0.73757546801854
H           -2.46351334367594       -2.67199120596092        0.06343779288595
H            1.24440196235013       -2.90207525022751       -0.00180636762405
25
 energy: 0.163265103214 xtb: 6.6.1 (8d0f1dd)
C            3.22749843806607        1.08137648533838        0.38517158069004
N            2.30895090910297        0.15315650905114       -0.28025491075222
C            2.58274590470391       -1.22366715830388       -0.07382890665152
N            1.36545895253133       -1.90809491648224       -0.10894546637927
C            0.38435179490043       -1.00173652641679       -0.21778880942570
C            0.91018569673354        0.26754336420566       -0.30725374401737
C            0.06529557163332        1.40776037159278       -0.38486833798637
O            0.46717774282102        2.57809265422246       -0.50010672028472
N           -1.28827668120807        1.07189849050014       -0.25348269766836
C           -2.23924889196069        2.16783576935863       -0.08269154951142
C           -1.84109631243245       -0.16997793923967       -0.11725501934396
O           -3.03718736673382       -0.34894598291164        0.01568472518895
N           -0.95935796745989       -1.25717732494441       -0.14687947404711
C           -1.37527611360449       -2.61580700709155        0.10809211302133
H            3.88470216834025        0.47164851946367        1.05390959537914
H            3.82013021622720        1.62734830603192       -0.38789652856748
H            2.67481331215207        1.84714811211217        1.00030570629873
H            3.54138095679063       -1.66358516744880       -0.28072277742432
H           -1.68518613467710        3.09748093686376       -0.23482206406014
H           -3.06020194903958        2.08072228090448       -0.80603095461981
H           -2.66412799390750        2.12152757562627        0.92921905641033
H           -1.00540542962081       -2.94978712550824        1.08797741129857
H           -0.97267957123327       -3.27843949576978       -0.67004657799102
H           -2.45715086334440       -2.66718894721028        0.09758910420476
H            1.26471827915511       -2.90010318177212        0.00195914238612
25
 energy: 1.191390374929 xtb: 6.6.1 (8d0f1dd)
C            3.22519909533500        1.06901699710827        0.46737975056220
N            2.31259141111369        0.14731741534142       -0.28877913658299
C            2.57507849546768       -1.22329741003178       -0.13354679571277
N            1.36195729241596       -1.90130537177762       -0.17832576798119
C            0.37988139761693       -0.99284886082267       -0.26106502702387
C            0.91363738664162        0.27539241955249       -0.35237983127918
C            0.07365547663223        1.41712296937862       -0.44350540046772
O            0.45428940304692        2.58774607101067       -0.56797017953565
N           -1.29463544041221        1.07420852710069       -0.28092510851616
C           -2.24242532222833        2.17156742361318       -0.09721099915353
C           -1.84787115481540       -0.16825836844785       -0.12056679553175
O           -3.04185196956555       -0.35353119658770        0.04773623000465
N           -0.95970711537249       -1.25133423257199       -0.15883270215624
C           -1.35992266416402       -2.61620346564670        0.15361120603171
H            3.85837458524034        0.43997652612309        1.12850826335596
H            3.82721367566442        1.64286689629531       -0.27064469493251
H            2.68663828862374        1.81357498024440        1.08423590436393
H            3.52496205164192       -1.67148996054013       -0.38222563489179
H           -1.69026156022611        3.10109808505318       -0.27741002459211
H           -3.08909237303699        2.07606745970899       -0.79963459462368
H           -2.63879338328201        2.14126301847171        0.93493799416476
H           -0.96108791281182       -2.90831561506313        1.14823585121056
H           -0.96390482108859       -3.30413117413076       -0.60914980805390
H           -2.44393463795984       -2.68574557641044        0.16378775692075
H            1.25222446345867       -2.89172895479920       -0.07922655943231
25