25
 energy: -0.758198172419 xtb: 6.6.1 (8d0f1dd)
C            3.28548513347343        1.21525366119663        0.06830532416996
N            2.36926048406606        0.10975065184574        0.03711806394919
C            2.67352290611425       -1.24660273905373        0.10311953210873
N            1.48716651677128       -1.94410427203470        0.09065075247753
C            0.45579928683831       -1.09814124580960       -0.01317114450857
C            0.97368052012401        0.20941495736022       -0.02428453270849
C            0.15177632169500        1.35646976919627       -0.04599292651321
O            0.46966736907119        2.55077484398131       -0.06800828837691
N           -1.22710318415941        0.98317546020924       -0.02555763788242
C           -2.20887953907610        2.05523774984226       -0.01854805197841
C           -1.73908262928792       -0.26505658098179        0.03144725050615
O           -2.93949344969994       -0.42369897036425        0.17210942234223
N           -0.89145528407144       -1.38587678255411       -0.12877511743840
C           -1.64173011294004       -2.62138639396331       -0.16738649186248
H            3.79133258885092        1.28584966626071        1.03757180660551
H            4.04797151306563        1.11943854978774       -0.71104866388421
H            2.72755449877880        2.13875803701270       -0.09706281309686
H            3.64167384030995       -1.69334221224203        0.14389084177763
H           -1.64897925204354        2.99104836137301       -0.00708761749831
H           -2.83161811083139        1.97887234371898       -0.91108230683439
H           -2.85459045840740        1.96357566879568        0.85579431816187
H           -1.48223021036858       -3.20777818628803        0.74177949685516
H           -1.41446066209787       -3.20774665903020       -1.05238896842586
H           -2.68932568894520       -2.31365796690153       -0.19030410480878
H            1.38747227714988       -2.94234314923880        0.13083532720957
