72
 energy: -103.312501095634 gnorm: 0.088210536377 xtb: 6.6.1 (8d0f1dd)
N           -1.48505264894097        2.76018538400392        2.23036446472503
C           -1.55977762664461        2.16224920021144        1.14500781370919
C           -2.74468183996892        2.05711760330898        0.24466375465885
C           -3.31588157113920        0.64979773907395        0.33250150646651
C           -4.30821868459331        0.27049060403102       -0.57801382977854
C           -4.84202151938360       -1.01570873193163       -0.53743728512477
O           -5.80461001836172       -1.48470262875970       -1.36513068140882
C           -6.37641110430664       -0.60136810075979       -2.29715731344059
C           -4.39306595257167       -1.94446215972272        0.44184147765209
O           -4.97982874203386       -3.16559030126888        0.41019228769640
C           -4.66068637451649       -4.10346699057783        1.41163471267939
C           -3.42207048526025       -1.54415546051883        1.34120336607082
C           -2.88682375607234       -0.26144176713597        1.28084995231945
C           -2.19421486110339        2.29746629303371       -1.18436962512824
C           -1.27026104974250        1.16782315680781       -1.66406731190262
C            0.00617620260403        1.10237755678427       -0.90950193256599
N            0.62371217289802       -0.03400811702720       -0.57903271074172
C            2.00375000089515       -0.03152815306908       -0.16237942949229
C            2.93146773939975       -0.54263939598946       -1.28219042356119
C            4.36044884591681       -0.43318461144601       -0.83588601033141
C            5.07633236189194        0.73010475466642       -1.04345570943907
C            6.38844450394063        0.84130173817826       -0.60501595682484
C            7.00246529914786       -0.20883265466850        0.05641148875541
O            8.26973332357663       -0.21031033878490        0.52498625311857
C            9.07096344392377        0.92960081154614        0.31949175992850
C            6.27342772411382       -1.40405713930975        0.27906733169661
O            6.95168151572412       -2.38074310792352        0.92865527040992
C            6.31908167707429       -3.61570244116570        1.15352000041568
C            4.96678286845965       -1.49536911426430       -0.16389631811142
C           -0.05136959863954       -1.30932864110488       -0.62562685691409
C           -3.87037370486496        3.07781399308801        0.58243919421946
C           -4.50496384927323        2.77045051910614        1.93551682569402
C           -3.39570103349538        4.52632635648923        0.54635191038916
H           -4.69026259947556        0.99847634065144       -1.28400417228453
H           -6.82925322723520        0.26316200645034       -1.80128313886084
H           -7.14933717379389       -1.17083034646355       -2.80460964957071
H           -5.63881940329293       -0.26080308374576       -3.03209263894031
H           -4.88519022417333       -3.71862561450938        2.41114215963854
H           -5.28663653254729       -4.97134004824566        1.21222218754713
H           -3.60813527787946       -4.40178709094270        1.36390752056336
H           -3.07332957196576       -2.21852858247233        2.10717243188247
H           -2.15044531259794        0.02197503464423        2.01746423723234
H           -3.02630811342311        2.37704948079481       -1.88198110835535
H           -1.65029579402033        3.24264796043279       -1.20477764272768
H           -1.81449357262624        0.21954417445272       -1.61777568959675
H           -1.01257832113259        1.36810649805086       -2.70959657196127
H           -0.67908441941531        1.64899838559966        0.64524890291850
H            0.63625402325239        1.98241522681114       -0.94211863399099
H            2.11568839958231       -0.66548491515548        0.72007605122768
H            2.30263477674819        0.98435451158897        0.10295554197829
H            2.77111846198926        0.06266913101980       -2.17666202938370
H            2.68506050468787       -1.57927098456113       -1.51772922738038
H            4.62397889998772        1.56020731169207       -1.56496274140351
H            6.92520738630711        1.75702146884981       -0.79187409449076
H            8.65284534520520        1.81055506056042        0.81719600507713
H            9.20393867069496        1.14091519809247       -0.74612112785945
H           10.03620734969683        0.69090041198774        0.76208812707231
H            7.05922825458894       -4.23539553977403        1.65614920195183
H            5.44159049435637       -3.50785047029770        1.79970982808383
H            6.02539706949203       -4.09543292455652        0.21433897242228
H            4.40524648248595       -2.40339000038347       -0.00810722267410
H           -0.21899649206108       -1.62922348112934       -1.65781592359897
H           -1.01559824772743       -1.25110670157387       -0.11596588776193
H            0.56197842175696       -2.05496649109698       -0.12747839679245
H           -4.64281203946633        2.95343397896756       -0.18972935659389
H           -3.77658734354634        2.89392698110528        2.72822042823018
H           -4.88907183787823        1.75320886057915        1.96519233974580
H           -5.33140167939620        3.45415270313282        2.11288072131354
H           -2.61090246881757        4.68853964722451        1.27588209459958
H           -3.03795390098311        4.81298097534881       -0.43918355282252
H           -4.22925358862904        5.17774802252240        0.79770342497338
H           -0.61420133392004        2.78928546042789        2.74384139808162
72
 energy: -103.315346428407 gnorm: 0.032390591178 xtb: 6.6.1 (8d0f1dd)
N           -1.50229907668671        2.79312977788502        2.24345607252240
C           -1.56555214967839        2.15757431806687        1.16579849334204
C           -2.74718462975002        2.06045624212369        0.25140272859686
C           -3.32076297444497        0.65279198136519        0.33636180070756
C           -4.31248683950191        0.26132078158037       -0.56642621826499
C           -4.84645811417133       -1.01618739295993       -0.52967275647671
O           -5.80936939162494       -1.48621236271677       -1.36540148380175
C           -6.37695929101736       -0.60139888578180       -2.29809025835956
C           -4.39388936685825       -1.94178767560259        0.44210805471090
O           -4.98326794218008       -3.16686423340147        0.40734671906150
C           -4.65973996021521       -4.10054132017800        1.40894977052312
C           -3.42429854970359       -1.54032492582726        1.34114632921960
C           -2.89141681228233       -0.25670582537226        1.28371397081491
C           -2.19651155979092        2.29440300369818       -1.18094281938206
C           -1.26601425207857        1.17700458291809       -1.68040100349627
C            0.00932286554404        1.11826524961630       -0.91314979449721
N            0.63341251244718       -0.04926710191127       -0.56951435434447
C            2.00822267340144       -0.04334955824687       -0.16479366556467
C            2.94022704836427       -0.54676863367929       -1.28558158089436
C            4.36726175255833       -0.43809364107320       -0.84675860489739
C            5.08129832825797        0.72778537464781       -1.04768094776533
C            6.39057720291797        0.84089862047533       -0.60352789303713
C            7.00372657668371       -0.20927476778076        0.05796431212625
O            8.27798476547321       -0.21148302893867        0.52840500702989
C            9.07272228232281        0.92981025220292        0.32019553311972
C            6.27577143503417       -1.40300091711379        0.27948355595450
O            6.95641428164272       -2.38270235212884        0.93201030878539
C            6.31945144651193       -3.61513369651024        1.15401465747328
C            4.97240103081703       -1.49677586537617       -0.16862533257665
C           -0.04770141395577       -1.31562740137813       -0.62380251053968
C           -3.87670545513300        3.07756300386665        0.57937339019553
C           -4.50896018711256        2.77333872172027        1.93513794126517
C           -3.40012014600724        4.52666177349181        0.54723670249200
H           -4.67915633432949        0.97605570401527       -1.28690451662622
H           -6.83009826740632        0.26445234359825       -1.80425499011692
H           -7.15087488607903       -1.17072548976774       -2.80848272603238
H           -5.63798204831338       -0.25853476734442       -3.03060366931357
H           -4.88379035698745       -3.71485248763496        2.40884508115861
H           -5.28531324151860       -4.96945830968857        1.21084770242795
H           -3.60639605149377       -4.39733127147947        1.36204999756845
H           -3.07242704956948       -2.21661168549679        2.10433190730510
H           -2.14809230134540        0.02662979228285        2.01262266127760
H           -3.03094627352865        2.38245193623638       -1.87761319242580
H           -1.64897628013592        3.23775614260072       -1.19951357923133
H           -1.80249300224185        0.22893088022207       -1.62524607224048
H           -1.04097168747649        1.37580093591136       -2.73797269682344
H           -0.68950749948080        1.64318887665751        0.67974254063167
H            0.65188834970547        1.98533891147603       -0.97772714480049
H            2.12819551702295       -0.67364542580224        0.72140394217164
H            2.29849527705490        0.97580544172656        0.10011254795536
H            2.76954744376705        0.06228727592179       -2.17499463847412
H            2.68832720878098       -1.58167066630862       -1.52028333132440
H            4.62575777169705        1.55902291798740       -1.56496124319233
H            6.92716068740887        1.75763338305011       -0.78849254580141
H            8.65191149802415        1.81057263075125        0.81666474872309
H            9.20296027499104        1.14126536110200       -0.74625119265059
H           10.03933303828089        0.69437264129400        0.76201203921804
H            7.05758678851618       -4.23751857310924        1.65720972521007
H            5.44020843239896       -3.50637394089585        1.79823289952342
H            6.02438737394968       -4.09346459508899        0.21398657582795
H            4.40780620508719       -2.40256742449514       -0.00940063362916
H           -0.21850755396440       -1.63548220773134       -1.65746268161572
H           -1.01339204949719       -1.25202081625718       -0.11517766323884
H            0.56090956559750       -2.06514511396480       -0.12442650649921
H           -4.64890940193645        2.95809557625716       -0.19138805152881
H           -3.77203705246895        2.89446410289558        2.72216474897865
H           -4.89020445341505        1.75520345866641        1.96503176386807
H           -5.33567483987131        3.45675023045543        2.11721476748275
H           -2.61049944367074        4.68060489282751        1.27575798883281
H           -3.03795338734514        4.80993873715788       -0.43786137874461
H           -4.23095791468318        5.18287241547645        0.79870978787958
H           -0.62453082182581        2.79114849979462        2.75340164755586
72
 energy: -103.315925147149 gnorm: 0.019302206640 xtb: 6.6.1 (8d0f1dd)
N           -1.48773729623926        2.78293499172154        2.23460290393201
C           -1.54844531637551        2.14875153839189        1.15003523372797
C           -2.74226670667896        2.06083194116990        0.24637354312514
C           -3.31336037455622        0.65152805505409        0.32953627331919
C           -4.30909918691198        0.25911915660593       -0.56674371468197
C           -4.83940678039549       -1.01619440417088       -0.53258678762521
O           -5.80717658977860       -1.48663295212989       -1.36837149754279
C           -6.37609717749220       -0.60092008911801       -2.29762427047763
C           -4.38928441740039       -1.94102385164350        0.43795660121055
O           -4.98347500740346       -3.16856616342152        0.40619834000639
C           -4.66133754670415       -4.10076465594422        1.40899339144147
C           -3.42123192455269       -1.54121602773438        1.33749668265845
C           -2.88590330668367       -0.25922475109339        1.27788803708541
C           -2.19772287338246        2.29629335765802       -1.18735038082912
C           -1.26874609853022        1.17201642584406       -1.67266073642406
C            0.00069095786199        1.12800655966586       -0.89871244798486
N            0.63323286998293       -0.05431306792616       -0.55637703748426
C            2.00277299387006       -0.03605431669027       -0.15996027946506
C            2.93599250660789       -0.54123037641246       -1.28034432520573
C            4.35896698221964       -0.43349116633741       -0.83929999681169
C            5.07461749514681        0.73118788372173       -1.04282418261169
C            6.38525319719046        0.84221891480041       -0.60419576133233
C            6.99673272282629       -0.20859605403376        0.05593733651515
O            8.27615204218118       -0.21257280978702        0.52637194400207
C            9.06948671873779        0.92776777126237        0.31922668709844
C            6.26909812013254       -1.40006956156163        0.27974259661937
O            6.95451362039517       -2.38258481762831        0.93014759753673
C            6.31922039655999       -3.61483591578352        1.15317208207680
C            4.96468620531871       -1.49279997419524       -0.16295530005866
C           -0.04924002875055       -1.31325083105027       -0.62581564298788
C           -3.86926350814592        3.07485064545652        0.58059323061958
C           -4.50526288406968        2.77007052770783        1.93574278898451
C           -3.39772623521727        4.52719099863738        0.54691678414289
H           -4.68547734221135        0.98028107137785       -1.27532015926153
H           -6.82787930477795        0.26485775245973       -1.80190937063989
H           -7.15254799415835       -1.17115084470386       -2.80497313017897
H           -5.64007586617119       -0.25859154058337       -3.03333236079922
H           -4.88547831974058       -3.71661908445784        2.41000623943519
H           -5.28809899939463       -4.96951514650626        1.21166127072147
H           -3.60881765377885       -4.40162119474262        1.36449961211825
H           -3.07376606825944       -2.21700947998491        2.10400869981724
H           -2.14846782045301        0.02437389786965        2.01233710709227
H           -3.03133407895859        2.38097904124004       -1.88623309119752
H           -1.64891244282682        3.23989922842180       -1.20843210134281
H           -1.80406000053176        0.22347832247536       -1.61603211172139
H           -1.02993725556301        1.36588873042317       -2.72711770491785
H           -0.68032039289696        1.65151171624487        0.65558003954600
H            0.63998421738798        1.99314871446562       -0.94542557740364
H            2.12372488611635       -0.66401025444504        0.72861439757876
H            2.29199605262806        0.98507362438470        0.10446814070396
H            2.76610412020897        0.06619952065705       -2.17092742372165
H            2.68085485465004       -1.57566461397790       -1.51349701773760
H            4.61943957774556        1.56080148252105       -1.56314900762801
H            6.92369834385841        1.75737842189223       -0.79297834944291
H            8.65097787752996        1.80949399066501        0.81654371627205
H            9.20202078808697        1.14087526550596       -0.74695722027787
H           10.03533880350781        0.69004538837838        0.76160713037941
H            7.05997045046329       -4.23532812713453        1.65528024847724
H            5.44107015149586       -3.50843735679557        1.79958308949307
H            6.02346740524812       -4.09527524088318        0.21407014733170
H            4.40005535670902       -2.39927613486755       -0.00567056319989
H           -0.21969581008404       -1.62849895621688       -1.66203202665867
H           -1.01650820130957       -1.25315265827844       -0.11793878102493
H            0.56070647583579       -2.06249922753830       -0.12820994158582
H           -4.64047949066969        2.95440164607594       -0.18890688127327
H           -3.77276861493413        2.89262075484323        2.72724189983489
H           -4.88616233001284        1.75175156711975        1.96486092549005
H           -5.33320783716843        3.45299982233770        2.11260643234043
H           -2.60810734191216        4.68686409591171        1.27527254349054
H           -3.03663021584140        4.81149416851918       -0.43863151140932
H           -4.23175005542666        5.17913470118234        0.79744655423751
H           -0.59368017067184        2.76941436608861        2.72193718781272
72
 energy: -103.316388598983 gnorm: 0.010759405159 xtb: 6.6.1 (8d0f1dd)
N           -1.51161063980472        2.77958847507150        2.24228100952910
C           -1.55586493275305        2.15505877503858        1.15259639519160
C           -2.74670802772009        2.06115140328788        0.24704050997856
C           -3.31720502972592        0.65250075112558        0.33110148859780
C           -4.30989921837717        0.26340543967848       -0.57119795708150
C           -4.84075172495354       -1.01394967760670       -0.53285162216352
O           -5.80810546117831       -1.48587116401753       -1.36752215115498
C           -6.37578874919247       -0.60119630400308       -2.29764280973356
C           -4.39314702422075       -1.93909643181903        0.44126072489874
O           -4.98424102571977       -3.16807484720585        0.40950230646877
C           -4.65969117153425       -4.10153111519151        1.41025837091207
C           -3.42490700927931       -1.54090867145329        1.34136735633109
C           -2.89079023669659       -0.25864598256579        1.28152640379716
C           -2.19535030777258        2.29753698276223       -1.18296730718258
C           -1.27007455296255        1.16944372411243       -1.66701302260747
C            0.00246969670539        1.12295419785284       -0.90443307120150
N            0.63461493752492       -0.05418912077439       -0.56797095134377
C            2.00449576262747       -0.03649706219272       -0.17002444837341
C            2.94057407610055       -0.54545942332051       -1.28715966997566
C            4.36294936451025       -0.43622761576032       -0.84083168381736
C            5.07950430960510        0.72823401230260       -1.04496778535619
C            6.38993185712774        0.84044654568118       -0.60526295610620
C            7.00053201890882       -0.20978530813992        0.05562479728178
O            8.27850754069514       -0.21117596039463        0.52800993129202
C            9.07152844083500        0.92933000172075        0.32061827292907
C            6.27397641954897       -1.40211960720323        0.27756765306630
O            6.95705388275117       -2.38384062459714        0.93055366007516
C            6.32004728995591       -3.61500782751053        1.15385155844976
C            4.96989448095453       -1.49624644233502       -0.16649567515108
C           -0.05007770415167       -1.31120434162580       -0.62706529131521
C           -3.87232599402563        3.07622870605674        0.58078071611382
C           -4.50812102036910        2.77205894141911        1.93608580402922
C           -3.39812686715311        4.52762148209586        0.54644335187753
H           -4.68599828679549        0.98904617888623       -1.28004732907596
H           -6.83016642101036        0.26375982273956       -1.80291810600500
H           -7.14988293883099       -1.17205923318144       -2.80660587735593
H           -5.63817598906602       -0.25966652265818       -3.03202667859878
H           -4.88386031625246       -3.71951071627745        2.41204512049812
H           -5.28456198359415       -4.97160836661151        1.21231616353023
H           -3.60664528686795       -4.40021742770359        1.36378723241600
H           -3.07572955610041       -2.21734408374130        2.10686697345053
H           -2.15380040084691        0.02375694140367        2.01749286030961
H           -3.02779003791100        2.38071925506836       -1.88197475638467
H           -1.64846982051549        3.24237094285432       -1.20179537107134
H           -1.80973140532667        0.22183987130935       -1.61750959848189
H           -1.01974405495565        1.36867026925939       -2.71621736318359
H           -0.68617481821832        1.65366010222572        0.66069224087782
H            0.64489605113851        1.98428861147913       -0.95248872526856
H            2.12240340996399       -0.66753501109889        0.71693935481137
H            2.30141839310790        0.98173859976290        0.09731636495017
H            2.77500093639855        0.06024537145871       -2.17991906642326
H            2.68780746261289       -1.58067824094618       -1.52130706200169
H            4.62571704463781        1.55756074319544       -1.56686259514066
H            6.92728469608324        1.75676816166124       -0.79102518545366
H            8.65329198123183        1.81164901232646        0.81715957431712
H            9.20533130636642        1.14172204489776       -0.74554216391584
H           10.03763310026342        0.69287488154993        0.76327318737867
H            7.05878369103990       -4.23617354815579        1.65786079711756
H            5.44107420544280       -3.50699142006817        1.79883171771414
H            6.02600882979474       -4.09595785334228        0.21456921159054
H            4.40766342993724       -2.40466295033467       -0.01186291453340
H           -0.22218911136420       -1.63412063785816       -1.65991810469969
H           -1.01534415983193       -1.24919824907960       -0.11588858729658
H            0.56141989475443       -2.05704455427144       -0.12624349648017
H           -4.64371723237563        2.95492113430753       -0.18909226650657
H           -3.77631301716193        2.89440669309862        2.72767026991567
H           -4.89184953686783        1.75481123886068        1.96597035473026
H           -5.33373976973901        3.45695658218289        2.11331101850036
H           -2.61011234742936        4.68715300197441        1.27585456229387
H           -3.03768791572103        4.81276191894269       -0.43907348683196
H           -4.23099742270091        5.17969954567491        0.79774586490368
H           -0.62246666006873        2.78160039070044        2.73661270047712
72
 energy: -103.316441379550 gnorm: 0.009594956911 xtb: 6.6.1 (8d0f1dd)
N           -1.49942270637933        2.78499521905528        2.23996118803949
C           -1.55054057000822        2.15690897879280        1.15442878369515
C           -2.74384517557014        2.06013655294466        0.24989732005452
C           -3.31759407506850        0.65264724503497        0.33398648094679
C           -4.30972299584901        0.26399414976062       -0.57068895170114
C           -4.84159496383818       -1.01411765328119       -0.53167190147189
O           -5.80859775979231       -1.48575922231455       -1.36615184506629
C           -6.37609790377024       -0.60092042218722       -2.29645173773273
C           -4.39142680416250       -1.94012904966046        0.44090236575322
O           -4.98250200186494       -3.16811291332408        0.40799322645893
C           -4.66048494427787       -4.10088338431749        1.40932126856944
C           -3.42128641583410       -1.54255531939804        1.34025777575182
C           -2.88822503550091       -0.25946856142320        1.28176117331815
C           -2.19616212147671        2.29465324035293       -1.18273367664332
C           -1.26958962755256        1.17126609189974       -1.67617484677473
C            0.00438180776412        1.12026971646393       -0.91536354179350
N            0.63257684969034       -0.05144440079148       -0.57057784566354
C            2.00103072775330       -0.03611581873469       -0.16221061461613
C            2.93640886878059       -0.54320750727590       -1.28059764124793
C            4.36105856248312       -0.43462754588972       -0.83897539027074
C            5.07769365479859        0.72974833747404       -1.04363419556767
C            6.38825254783986        0.84201586534249       -0.60350212693256
C            6.99886388824070       -0.20876810099741        0.05691440946219
O            8.27635504678062       -0.21087052826315        0.52756598380077
C            9.07004504303948        0.92884926720830        0.31900113371345
C            6.27228451849528       -1.40102323295247        0.27913850697554
O            6.95450344322187       -2.38273921160747        0.93150472993668
C            6.31807128560686       -3.61441170697664        1.15332597025902
C            4.96790023943309       -1.49472962882580       -0.16477057930121
C           -0.04929186529218       -1.31117129696132       -0.62576972788828
C           -3.87119485427858        3.07563427523276        0.58055414015303
C           -4.50585669092661        2.77058486822651        1.93562450999070
C           -3.39741154273443        4.52647162720921        0.54697179946542
H           -4.68072971729902        0.98648904806203       -1.28606901663837
H           -6.82965394359414        0.26452185253430       -1.80208313534177
H           -7.15065129674685       -1.17021301789028       -2.80596756829116
H           -5.63846863692044       -0.25937111683592       -3.03079212519783
H           -4.88516031314976       -3.71560903519621        2.40957426656169
H           -5.28699069201423       -4.96976468829198        1.21147765290135
H           -3.60763385031195       -4.40008503541195        1.36339153180696
H           -3.06960862303153       -2.21943865436065        2.10378853710075
H           -2.14577970247661        0.02193705477341        2.01298381045650
H           -3.03120680260877        2.37894424085068       -1.87822642530592
H           -1.65037148413820        3.23945697157564       -1.20325104488948
H           -1.80867978893753        0.22410876475666       -1.62552951294354
H           -1.02978647052851        1.37315522734418       -2.72817529318439
H           -0.68541837145279        1.64094911641400        0.66545331095871
H            0.64867747034286        1.98097192677015       -0.96782023926405
H            2.11997402648664       -0.66889929407755        0.72428406689263
H            2.29805131751390        0.98108424601927        0.10642813862380
H            2.76708755373501        0.06432207957903       -2.17157024417053
H            2.68391271867023       -1.57841805587856       -1.51566895795386
H            4.62286066400992        1.56064942422495       -1.56232148117344
H            6.92528793499062        1.75841414214046       -0.78890016214677
H            8.65209692061509        1.81081053577566        0.81625911394495
H            9.20159714413328        1.14113395564785       -0.74742639752995
H           10.03709963284725        0.69255341069113        0.76001919097766
H            7.05725156092323       -4.23670130087394        1.65533456140619
H            5.43976828231683       -3.50740863115792        1.79922212093808
H            6.02305780744285       -4.09333080798598        0.21342041710264
H            4.40407557441272       -2.40124445172753       -0.00581005281012
H           -0.21723929138965       -1.63489253661801       -1.65847064466869
H           -1.01593018122151       -1.25182641964869       -0.11753362367635
H            0.56038419978347       -2.05900234627610       -0.12412945969473
H           -4.64351349494114        2.95493247038363       -0.18956752177002
H           -3.77232207190937        2.89341139338437        2.72502141708181
H           -4.88723936683434        1.75253562636012        1.96486051121943
H           -5.33242789792975        3.45376556652693        2.11537361094168
H           -2.60951807427137        4.68357325767382        1.27642957661567
H           -3.03698185581310        4.81096974094553       -0.43848669553487
H           -4.22939298625674        5.17960385607703        0.79880701419855
H           -0.61117700071538        2.78553596488485        2.73689535211329
72
 energy: -103.316593504089 gnorm: 0.004759655561 xtb: 6.6.1 (8d0f1dd)
N           -1.50002895565540        2.78342026834951        2.24100179824290
C           -1.55261828125436        2.15406009089378        1.15594946733189
C           -2.74563435437685        2.06079237820866        0.24927623732552
C           -3.31837069787736        0.65249747118707        0.33253570326669
C           -4.31167998534974        0.26181439916922       -0.56942062105732
C           -4.84219581579913       -1.01589277911892       -0.53202349851178
O           -5.80885586303068       -1.48736729572581       -1.36769698751229
C           -6.37623204155259       -0.60207112684672       -2.29777164953418
C           -4.39177160527802       -1.94083214486864        0.44016945001513
O           -4.98300751281363       -3.16907978083409        0.40760349857973
C           -4.66035344396552       -4.10112542304734        1.40923219764393
C           -3.42335216467322       -1.54130598074322        1.34046379273784
C           -2.88970478089348       -0.25836399609645        1.28102400229166
C           -2.19674911373170        2.29592944063211       -1.18332285744934
C           -1.26767970516563        1.17256472504011       -1.67202660316843
C            0.00439308335638        1.12273178032075       -0.90697525373752
N            0.63408571728650       -0.05177396872724       -0.56489426438174
C            2.00390105110094       -0.03712467431308       -0.16335299765291
C            2.93799636652858       -0.54383892539640       -1.28374529761331