72
 energy: 0.000000000000 xtb: 6.6.1 (8d0f1dd)
N           -1.47310921155849        2.74401293103706        2.22063921685122
C           -1.55658879776851        2.16490285539332        1.13274273951491
C           -2.74549199786261        2.05621232186130        0.23826248438941
C           -3.31377553111525        0.64333411542669        0.32332512650568
C           -4.30230156009016        0.24487110156316       -0.58026161703006
C           -4.85238763031941       -1.02286490450319       -0.53363588718165
O           -5.81419972815119       -1.48606034185536       -1.36157882725342
C           -6.39655633239252       -0.60827000183299       -2.29568474302620
C           -4.39972501531283       -1.94646102182611        0.44396929121966
O           -4.98748311285188       -3.16145997157803        0.41085992006324
C           -4.66362127904578       -4.10093827755394        1.40909127743729
C           -3.42072513477031       -1.54561384810496        1.33436546260297
C           -2.88302799614223       -0.26315800396994        1.27400150770375
C           -2.19303798107274        2.30467000305896       -1.18742977106749
C           -1.26651538239283        1.17243369445008       -1.65249429687285
C            0.01082524939134        1.09745454476277       -0.89354803499847
N            0.61779393476578       -0.02034948052406       -0.57705522512502
C            2.00145210352228       -0.02376006389122       -0.15611399603240
C            2.92554934655222       -0.53865282675074       -1.27700088804721
C            4.35756843073516       -0.43050757231754       -0.83075544324989
C            5.07346135469827        0.73206409086248       -1.03980965825901
C            6.38627986649936        0.84224441421807       -0.60344822702769
C            7.00047264773336       -0.20824756335880        0.05722314418200
O            8.26703657141718       -0.21011313101264        0.52410943644933
C            9.06912227848686        0.92943601033931        0.31863058007678
C            6.27039964270142       -1.40439753960823        0.28033466008274
O            6.94829939911432       -2.38012925705718        0.92751999079483
C            6.31537317745639       -3.61583200086742        1.15217711710877
C            4.96302794628964       -1.49347471867959       -0.16064430359178
C           -0.05511211367372       -1.29906247805359       -0.62085686319744
C           -3.86758037025447        3.07992600430699        0.58498060215443
C           -4.49286159663096        2.77383493050346        1.94313289484366
C           -3.39165179876499        4.52917666589254        0.54797523472093
H           -4.66030026466202        0.94509067363451       -1.31640568823548
H           -6.85037928558380        0.25803162192116       -1.80468845313260
H           -7.17287442604349       -1.18600110843259       -2.79318157561361
H           -5.66836817451085       -0.26952966318766       -3.04040255244073
H           -4.88416720672258       -3.71589460520039        2.40913542187496
H           -5.29223570620378       -4.96637458756866        1.20969236903657
H           -3.61139813139015       -4.39919835331056        1.35529357841967
H           -3.07077796610445       -2.21868765711333        2.10002662693138
H           -2.14562754426994        0.02067850696302        2.01001344383370
H           -3.02188875377605        2.38238012313952       -1.88813545054866
H           -1.65198530896729        3.25146700677685       -1.20556284570283
H           -1.81103374245520        0.23006524641044       -1.62116301628650
H           -0.99335688527853        1.37490212198123       -2.69443256973690
H           -0.67628064361333        1.65183887049447        0.61785727145403
H            0.63525841192517        1.98466369793744       -0.92314021190751
H            2.11132552493482       -0.65949692842762        0.72532613231274
H            2.30680473056284        0.98978251704176        0.11078972794250
H            2.76694198818247        0.06750735147374       -2.17075252200790
H            2.67954581369920       -1.57455627803457       -1.51167743520200
H            4.62169998552446        1.56295612048703       -1.56123579000624
H            6.92357674630170        1.75715815945204       -0.79119596719031
H            8.65159112996149        1.81001823324363        0.81701555159939
H            9.20136171144928        1.14042857828877       -0.74698991949293
H           10.03428838009630        0.69003240176163        0.76064937965836
H            7.05567174969094       -4.23621171795340        1.65347565939075
H            5.43848001056755       -3.50813558175093        1.79970565785717
H            6.02060041905269       -4.09420497120334        0.21253282636366
H            4.40102758497114       -2.40127266373392       -0.00490198249042
H           -0.22071299714579       -1.61775583601871       -1.65116008982042
H           -1.01972258008625       -1.24102717432227       -0.10935206830928
H            0.55899954147532       -2.04486085926761       -0.12333730421426
H           -4.63991875734388        2.95501092798550       -0.18098088071825
H           -3.76095216473977        2.90314704960906        2.73380821053058
H           -4.87457614030224        1.75695641518947        1.97884603101694
H           -5.31925552549014        3.45579210326349        2.12325564252114
H           -2.60025590131176        4.69225046143352        1.27368918226171
H           -3.03987406413880        4.81897652321898       -0.43870975059559
H           -4.22191740670577        5.18069648090034        0.80616693961239
H           -0.59832433787845        2.77744694953323        2.72958984441332
72
 energy: -5.931598076784 xtb: 6.6.1 (8d0f1dd)
N           -1.50292970926843        2.78328843609805        2.23951981378013
C           -1.55224364742118        2.15432374815146        1.15363437403206
C           -2.74575192617541        2.06078151382576        0.24811294153626
C           -3.31721057536896        0.65252135435257        0.33216486383842
C           -4.31011753839637        0.26278032854606       -0.57011368818085
C           -4.84121657120154       -1.01458587786749       -0.53221404343587
O           -5.80858206363962       -1.48611148196087       -1.36727265786104
C           -6.37659156428731       -0.60155343910278       -2.29710227012938
C           -4.39198604990202       -1.93970415428280        0.44030456157237
O           -4.98327475642997       -3.16830552223696        0.40817215985689
C           -4.65991454448974       -4.10070103169709        1.40939494314202
C           -3.42321599986284       -1.54132891837055        1.34023858852910
C           -2.88939751092211       -0.25868896127929        1.28106479636940
C           -2.19658680148633        2.29623956784395       -1.18359911474172
C           -1.26885526409011        1.17114670728714       -1.67138724600200
C            0.00352049170983        1.12243467901001       -0.90827550310391
N            0.63366444744666       -0.05249440709112       -0.56698444800784
C            2.00254895500437       -0.03685264576486       -0.16495060397913
C            2.93815289137014       -0.54396967190770       -1.28398148530711
C            4.36172588415739       -0.43554576021943       -0.84092478802288
C            5.07802450959918        0.72911294157759       -1.04481260220927
C            6.38841448351954        0.84144076042580       -0.60457269769278
C            6.99883470125517       -0.20927519451961        0.05622512245586
O            8.27688025473947       -0.21115767912911        0.52813162610137
C            9.07041298059825        0.92835635300160        0.32056627741081
C            6.27245437746440       -1.40123910080186        0.27854842969180
O            6.95549575093970       -2.38292215697494        0.93119329388799
C            6.31984485656877       -3.61453770926281        1.15409986810721
C            4.96820567258871       -1.49529373547703       -0.16585374378584
C           -0.04873507999667       -1.31125580459257       -0.62687239587578
C           -3.87177473807503        3.07614726067029        0.58084435004352
C           -4.50640587314579        2.77131904898845        1.93634746247937
C           -3.39792736744830        4.52739313966139        0.54683454816253
H           -4.68378897565072        0.98579456308562       -1.28180796939860
H           -6.83002126863671        0.26406990956248       -1.80261939400461
H           -7.15156844595359       -1.17184373374872       -2.80550342299005
H           -5.63967283332416       -0.25983327580528       -3.03225354976315
H           -4.88394346858507       -3.71713753528776        2.41058377642594
H           -5.28570274395105       -4.97021722292389        1.21202246291744
H           -3.60703303835660       -4.40015821683217        1.36360070277491
H           -3.07323136279139       -2.21765586817233        2.10480471338024
H           -2.15003419984724        0.02407220940911        2.01454659094854
H           -3.03031979729741        2.37996856282281       -1.88113561712924
H           -1.65009321865460        3.24095469664261       -1.20304043545035
H           -1.80729749865942        0.22359959708651       -1.62020962769325
H           -1.02606727501597        1.37040513885326       -2.72323955236458
H           -0.68588150623096        1.64854317651932        0.66218928515411
H            0.64589939705779        1.98477312942815       -0.95796714464834
H            2.12209797677829       -0.66893759393213        0.72170680485565
H            2.29846960474427        0.98106324279228        0.10268587210378
H            2.76990969976029        0.06330475869790       -2.17524608133505
H            2.68457731459970       -1.57894902062400       -1.51828960759871
H            4.62345766443377        1.55903940406637       -1.56533153198451
H            6.92549131033403        1.75764271729097       -0.79050474837571
H            8.65249455485288        1.81090231105317        0.81712125258785
H            9.20372488420602        1.14073337255422       -0.74572651194073
H           10.03675214299398        0.69164120106747        0.76298332331743
H            7.05947159940764       -4.23542125198938        1.65735235590821
H            5.44111799390625       -3.50756592806045        1.79956326486808
H            6.02545752466642       -4.09519116479118        0.21478811079225
H            4.40487409235093       -2.40255197882954       -0.00920982013425
H           -0.22006656364642       -1.63282453316359       -1.66042475363049
H           -1.01458867227092       -1.25181299562409       -0.11664189232465
H            0.56223361911008       -2.05966798847251       -0.12767041571735
H           -4.64401823071728        2.95535551183870       -0.18890894811839
H           -3.77310022748647        2.89345757967075        2.72643004498609
H           -4.88867354370044        1.75356924917433        1.96579430596200
H           -5.33269828658969        3.45518729870799        2.11509708919477
H           -2.60915075689726        4.68555966470369        1.27548208646712
H           -3.03773820143161        4.81210209476050       -0.43873434266448
H           -4.23043973192707        5.18004003489658        0.79863767568363
H           -0.61248288345247        2.78097070765143        2.73365565960596
72
 energy: -6.078995074045 xtb: 6.6.1 (8d0f1dd)
N           -1.51420729286005        2.79553802661969        2.24610047836781
C           -1.55552512657923        2.15603351021599        1.16544679545784
C           -2.74494070735292        2.06133913830497        0.25371494635634
C           -3.32013809129822        0.65654914928444        0.34046551158286
C           -4.31836347045912        0.27881858889548       -0.56195139740231
C           -4.83557564061993       -1.00704860180736       -0.53211847132883
O           -5.79795708265598       -1.48315491483253       -1.37035548821610
C           -6.35651621314732       -0.59346218225397       -2.29967452000702
C           -4.38629343277287       -1.93722940255101        0.43866459113111
O           -4.97529951273219       -3.16906694703169        0.40635980803498
C           -4.65689500278009       -4.10146038694919        1.41094204024084
C           -3.42370067599010       -1.53974395622871        1.34544171585245
C           -2.89133496040270       -0.25671733304235        1.28689569954878
C           -2.19713922049769        2.28993651512080       -1.18068438253919
C           -1.27374490361709        1.16380039151377       -1.67684386264519
C            0.00404771689041        1.11560877020476       -0.92310853986540
N            0.63389313757408       -0.05941746463385       -0.57141314992229
C            2.00379798726646       -0.04262700820807       -0.17149989688139
C            2.94238854637109       -0.54811101816718       -1.28943181944252
C            4.36529087069798       -0.43815950248204       -0.84489607101942
C            5.08095032335876        0.72701698076634       -1.04789988061548
C            6.39082493530456        0.84045409339930       -0.60610147343071
C            7.00162404916399       -0.20980507355477        0.05520894474976
O            8.27948935849778       -0.21110334235835        0.52794956119896
C            9.07240405473039        0.92897035787036        0.32082029062361
C            6.27572709145308       -1.40200282672505        0.27737636465018
O            6.95868259122461       -2.38321246349335        0.93132331946489
C            6.32311369583046       -3.61472978896007        1.15475310839724
C            4.97201856813007       -1.49706950663725       -0.16864856242656
C           -0.04600921341838       -1.32028271742428       -0.63193621667386
C           -3.87502089957049        3.07476621428898        0.57776898131364
C           -4.51933454299950        2.76797861665465        1.92819167269040
C           -3.40276164965115        4.52556339818488        0.54500115784939
H           -4.70848183218993        1.02475422445549       -1.24629558253074
H           -6.80989841725427        0.26977774306890       -1.80123249459018
H           -7.12846611890999       -1.15712166083030       -2.81865831637632
H           -5.61026633558671       -0.24941472090899       -3.02426289411704
H           -4.88600438676114       -3.71959793386029        2.41181030608202
H           -5.28001523792666       -4.97312893384257        1.21229288509389
H           -3.60389388926383       -4.40151858780324        1.37176060873809
H           -3.07627230664220       -2.21677230693535        2.11092016820400
H           -2.15391285478468        0.02610212915896        2.02203256552858
H           -3.03332914027624        2.37593470724731       -1.87538715005874
H           -1.64730432571978        3.23241384645908       -1.20298812855852
H           -1.81040497752374        0.21515557185683       -1.61654201907480
H           -1.04584118110949        1.36179946489183       -2.73378229931270
H           -0.68760467243580        1.64472814567775        0.68849473465865
H            0.64461969736572        1.98014242403753       -0.97296451568359
H            2.12629563688565       -0.67317666747003        0.71614592793112
H            2.29511935972476        0.97677864409852        0.09433415593636
H            2.77475618586024        0.05851649241300       -2.18126498925231
H            2.69072686197487       -1.58353401869229       -1.52427098281362
H            4.62590599793838        1.55638850276407       -1.56880402503320
H            6.92744343372045        1.75701495717612       -0.79186649602272
H            8.65342874516029        1.81119742093932        0.81708847466392
H            9.20612610799710        1.14183751507241       -0.74535466321135
H           10.03880267670993        0.69320094964334        0.76372107888103
H            7.06222519851524       -4.23521075021403        1.65932961894516
H            5.44375967878222       -3.50711394288327        1.79913011886325
H            6.02945011100799       -4.09647410132438        0.21579647654902
H            4.40911867839898       -2.40459485116363       -0.01213915205877
H           -0.21678059929837       -1.64370961533300       -1.66542683942880
H           -1.01254472385828       -1.26156753958850       -0.12338434258337
H            0.56407350836412       -2.06862045568844       -0.13087912148988
H           -4.64342503664073        2.95433428735848       -0.19693177463845
H           -3.79008405665886        2.88527837100715        2.72232795625862
H           -4.90395950279204        1.75077029624789        1.95203151535048
H           -5.34526268130840        3.45329666613095        2.10367419313965
H           -2.61958666657548        4.68417119445061        1.27886284326249
H           -3.03539023156280        4.80661590191008       -0.43890064514404
H           -4.23790333156321        5.17770265199089        0.78924535365838
H           -0.62836476337026        2.79304711677474        2.74820957638832
72
 energy: -5.922954052922 xtb: 6.6.1 (8d0f1dd)
N           -1.52605087247820        2.80817277508228        2.25150169011309
C           -1.55898020734300        2.15841522285573        1.17622013924407
C           -2.74486181766347        2.06188694716810        0.25942230441969
C           -3.32471215203080        0.66065403924743        0.34931678572661
C           -4.32940996119702        0.29503946720263       -0.55200755224351
C           -4.83281161286224       -0.99867459430331       -0.53012877126952
O           -5.78815813180779       -1.48032669799551       -1.37314687902295
C           -6.33706870822362       -0.58569528493770       -2.30221602004712
C           -4.38083091530158       -1.93430723861142        0.43720804132542
O           -4.96661379200942       -3.16963752897360        0.40394545253993
C           -4.65314517307640       -4.10173573582520        1.41203427735668
C           -3.42422394900750       -1.53787782775225        1.35066151546044
C           -2.89356741932975       -0.25442514519700        1.29296908194968
C           -2.19802734375943        2.28348459974365       -1.17701471625400
C           -1.27954964627526        1.15531067848624       -1.67990466190737
C            0.00465198273802        1.10720245500112       -0.93798559533454
N            0.63428920131766       -0.06725831782296       -0.57693431433658
C            2.00478742667268       -0.04834243155283       -0.17853414462292
C            2.94635177973677       -0.55224288173204       -1.29521556892494
C            4.36867346228731       -0.44089369737329       -0.84925129014718
C            5.08381392450419        0.72477979330316       -1.05131531978541
C            6.39306613190395        0.83948407354152       -0.60771245305785
C            7.00405956064660       -0.21023785437202        0.05429247980242
O            8.28159562292156       -0.21094896647346        0.52841342962294
C            9.07426209177133        0.92935468786351        0.32161549588440
C            6.27872350199405       -1.40271992598464        0.27601607120259
O            6.96175210610072       -2.38306979278680        0.93166612646635
C            6.32681054024441       -3.61468740707208        1.15581378398531
C            4.97568191786744       -1.49899289888783       -0.17191671528086
C           -0.04353212614720       -1.32948265462663       -0.63832879889833
C           -3.87829873565660        3.07377008081987        0.57495346057947
C           -4.53172799310568        2.76456056948852        1.92038951818762
C           -3.40744086750306        4.52414740172904        0.54328109616279
H           -4.73281172077927        1.06321821641571       -1.21056219839647
H           -6.79002948018054        0.27539619442381       -1.80004158135007
H           -7.10611312060847       -1.14241940101868       -2.83186852306751
H           -5.58146495464217       -0.23949742597237       -3.01599657639814
H           -4.88770883169528       -3.72141638841713        2.41243319262440
H           -5.27365897316906       -4.97536402708089        1.21182352791592
H           -3.60013803566964       -4.40279935196600        1.37989893356625
H           -3.07939786594971       -2.21555007467506        2.11698583220707
H           -2.15745576575959        0.02837196559605        2.02906803779012
H           -3.03691446421116        2.37145354206677       -1.86854684872641
H           -1.64503677253008        3.22396223232853       -1.20248885236005
H           -1.81477591350223        0.20604512988124       -1.61231697396066
H           -1.06566393057141        1.35285113189327       -2.74111119165014
H           -0.68975326999339        1.64059936246637        0.71406510517922
H            0.64395726008453        1.97359945107178       -0.98904070570330
H            2.13014061812247       -0.67766131476454        0.70974300214445
H            2.29227202583673        0.97226097489061        0.08631260581389
H            2.77893346023005        0.05405489082672       -2.18728626507078
H            2.69609810781345       -1.58796423600320       -1.53059459430055
H            4.62826887414904        1.55367131172018       -1.57243371282180
H            6.92908040300456        1.75666108248774       -0.79247828353468
H            8.65464498065665        1.81158435166786        0.81738562660335
H            9.20861896329000        1.14228055405737       -0.74449833315238
H           10.04055643450051        0.69416334424027        0.76511466232647
H            7.06579159527359       -4.23424706414580        1.66175748904058
H            5.44678409125915       -3.50695095137891        1.79917250592389
H            6.03428446347552       -4.09774795982808        0.21719396974496
H            4.41313552007361       -2.40672721946829       -0.01556159835465
H           -0.21471900330627       -1.65409078610073       -1.67171986780961
H           -1.01017297696208       -1.27176699351639       -0.13007394430888
H            0.56676228872123       -2.07748385594817       -0.13667279023466
H           -4.64236146970088        2.95429443713087       -0.20490127246799
H           -3.80626823490700        2.87695270962146        2.71834306285531
H           -4.91891527372189        1.74798158366762        1.93870495225730
H           -5.35700160754155        3.45138532595696        2.09313572859751
H           -2.62983344797715        4.68311557640882        1.28229708330633
H           -3.03311740112105        4.80143115387545       -0.43905830238806
H           -4.24494813755553        5.17586178523367        0.78026808981391
H           -0.64488751597825        2.80521796313590        2.76108321808322
72
 energy: -5.498956804715 xtb: 6.6.1 (8d0f1dd)
N           -1.53842805127834        2.82176017641812        2.25586335678255
C           -1.56252195750320        2.16156768758557        1.18650230312443
C           -2.74492210989642        2.06249492837770        0.26506882696416
C           -3.32982919049370        0.66497100674773        0.35863660747976
C           -4.34254852858033        0.31169827769869       -0.53969930655481
C           -4.83161262129870       -0.98944257746655       -0.52632802776004
O           -5.77844779455879       -1.47729268527866       -1.37558839444582
C           -6.31768643669709       -0.57801598234929       -2.30469903417375
C           -4.37547362895932       -1.93117469546473        0.43598278481653
O           -4.95750285592793       -3.17014914004019        0.40115053486680
C           -4.64903433034188       -4.10179019210457        1.41299237416036
C           -3.42481855121983       -1.53580851292278        1.35593574812578
C           -2.89588779198058       -0.25192617750608        1.29921751346940
C           -2.19892460073107        2.27697450622626       -1.17314968059287
C           -1.28599964986415        1.14593465056277       -1.68200759835280
C            0.00474653945332        1.09796825475930       -0.95208894906584
N            0.63495746778179       -0.07578217764536       -0.58452372068946
C            2.00557536489009       -0.05391322704922       -0.18626763272778
C            2.95037469766163       -0.55637052267842       -1.30126284861124
C            4.37205035312493       -0.44368391116721       -0.85356760382586
C            5.08664941312271        0.72250056347535       -1.05460639078801
C            6.39526320685185        0.83854822706519       -0.60922749556485
C            7.00645704082536       -0.21062621929369        0.05345455016145
O            8.28367277305767       -0.21073523111275        0.52894787284677
C            9.07608680217261        0.92978092744102        0.32247023674087
C            6.28168351474273       -1.40340852738922        0.27466766797621
O            6.96482631717958       -2.38287173272611        0.93202070909511
C            6.33050918373717       -3.61457654408746        1.15687033781582
C            4.97931603358080       -1.50094543918644       -0.17517558434344
C           -0.04131739140357       -1.33880961906234       -0.64555951557505
C           -3.88136585493399        3.07292931776007        0.57225238341057
C           -4.54399324825698        2.76112568150421        1.91263570345143
C           -3.41191667614182        4.52292404348392        0.54165479353933
H           -4.75638087424890        1.10142342197531       -1.17381165114826
H           -6.77022076241727        0.28092419471031       -1.79890675627588
H           -7.08367901341180       -1.12778979776800       -2.84518086929968
H           -5.55275289805841       -0.22961297576721       -3.00739836861827
H           -4.88956869962095       -3.72301201325614        2.41283039629790
H           -5.26686263848125       -4.97733858084863        1.21121013907705
H           -3.59614348909931       -4.40412745178397        1.38816909733469
H           -3.08260807053372       -2.21410325660228        2.12300454017844
H           -2.16092992236793        0.03076951539753        2.03610064710340
H           -3.04048826532628        2.36717972416154       -1.86148713906507
H           -1.64244479943624        3.21535915335539       -1.20187666463862
H           -1.82005471565303        0.19664521049152       -1.60749581847824
H           -1.08608662669434        1.34282582639209       -2.74709731912596
H           -0.69222075531475        1.63582447089040        0.73966444542858
H            0.64388189787964        1.96517982040320       -1.00541167873497
H            2.13367524195182       -0.68186890541677        0.70278510211755
H            2.28926607312609        0.96788241969664        0.07779700625583
H            2.78326881595593        0.04971150725872       -2.19350317416811
H            2.70136627941928       -1.59232303059165       -1.53717966856997
H            4.63059530652539        1.55089857375185       -1.57596678553493
H            6.93065609229181        1.75635894792811       -0.79289876357223
H            8.65587764763337        1.81203765294008        0.81773177676162
H            9.21108775095743        1.14270567728292       -0.74359350543955
H           10.04226265856687        0.69516251009992        0.76656791802913
H            7.06936537034594       -4.23315628843377        1.66422614205099
H            5.44978679215260       -3.50676946244051        1.79920304333137
H            6.03917082214852       -4.09899385457173        0.21857354593484
H            4.41709889676189       -2.40889242552535       -0.01908322387214
H           -0.21305319073063       -1.66475301538904       -1.67860242013859
H           -1.00792004638865       -1.28189194005470       -0.13714213188410
H            0.56936215690918       -2.08624187989521       -0.14332152342345
H           -4.64048340775854        2.95461663997806       -0.21313003066578
H           -3.82260983316669        2.86863571888923        2.71467865011256
H           -4.93389305765851        1.74528319118902        1.92549663818771
H           -5.36855733039302        3.44945598183539        2.08257336843051
H           -2.64001331716119        4.68256195935088        1.28598607391706
H           -3.03053241261422        4.79632963258212       -0.43906789097422
H           -4.25177872454117        5.17415139902987        0.77130138838282
H           -0.66235569591630        2.81751276641042        2.77319945567323
72
 energy: -4.826682401007 xtb: 6.6.1 (8d0f1dd)
N           -1.55104023936422        2.83574966098679        2.25995501086652
C           -1.56625571712694        2.16543510883977        1.19663062181801
C           -2.74514706132476        2.06332330744250        0.27069788538728
C           -3.33517269796730        0.66952087608610        0.36796163769547
C           -4.35647221001085        0.32807396486556       -0.52626142621777
C           -4.83173910606573       -0.98005875910369       -0.52149413158156
O           -5.76927292408638       -1.47383779152433       -1.37760518742239
C           -6.29841872838195       -0.57010928777046       -2.30727585877986
C           -4.37092460390511       -1.92757804649598        0.43549676991969
O           -4.94853720474281       -3.17024920535610        0.39845715519979
C           -4.64482925934239       -4.10154018072041        1.41375194843496
C           -3.42582474167377       -1.53325790312061        1.36132623821662
C           -2.89844929456980       -0.24896616886117        1.30544605531392
C           -2.19989406933447        2.27064939753064       -1.16907347288584
C           -1.29280699421626        1.13644620418414       -1.68300840705781
C            0.00449490991795        1.08800246472600       -0.96573624228268
N            0.63535677250140       -0.08461496740764       -0.59277215764141
C            2.00609858033966       -0.05942410817834       -0.19432495896827
C            2.95432548824544       -0.56045953305092       -1.30743623998307
C            4.37537278135066       -0.44646982638089       -0.85777645000687