72
 energy: 0.000000000000 xtb: 6.6.1 (8d0f1dd)
N           -1.47310921155849        2.74401293103706        2.22063921685122
C           -1.55658879776851        2.16490285539332        1.13274273951491
C           -2.74549199786261        2.05621232186130        0.23826248438941
C           -3.31377553111525        0.64333411542669        0.32332512650568
C           -4.30230156009016        0.24487110156316       -0.58026161703006
C           -4.85238763031941       -1.02286490450319       -0.53363588718165
O           -5.81419972815119       -1.48606034185536       -1.36157882725342
C           -6.39655633239252       -0.60827000183299       -2.29568474302620
C           -4.39972501531283       -1.94646102182611        0.44396929121966
O           -4.98748311285188       -3.16145997157803        0.41085992006324
C           -4.66362127904578       -4.10093827755394        1.40909127743729
C           -3.42072513477031       -1.54561384810496        1.33436546260297
C           -2.88302799614223       -0.26315800396994        1.27400150770375
C           -2.19303798107274        2.30467000305896       -1.18742977106749
C           -1.26651538239283        1.17243369445008       -1.65249429687285
C            0.01082524939134        1.09745454476277       -0.89354803499847
N            0.61779393476578       -0.02034948052406       -0.57705522512502
C            2.00145210352228       -0.02376006389122       -0.15611399603240
C            2.92554934655222       -0.53865282675074       -1.27700088804721
C            4.35756843073516       -0.43050757231754       -0.83075544324989
C            5.07346135469827        0.73206409086248       -1.03980965825901
C            6.38627986649936        0.84224441421807       -0.60344822702769
C            7.00047264773336       -0.20824756335880        0.05722314418200
O            8.26703657141718       -0.21011313101264        0.52410943644933
C            9.06912227848686        0.92943601033931        0.31863058007678
C            6.27039964270142       -1.40439753960823        0.28033466008274
O            6.94829939911432       -2.38012925705718        0.92751999079483
C            6.31537317745639       -3.61583200086742        1.15217711710877
C            4.96302794628964       -1.49347471867959       -0.16064430359178
C           -0.05511211367372       -1.29906247805359       -0.62085686319744
C           -3.86758037025447        3.07992600430699        0.58498060215443
C           -4.49286159663096        2.77383493050346        1.94313289484366
C           -3.39165179876499        4.52917666589254        0.54797523472093
H           -4.66030026466202        0.94509067363451       -1.31640568823548
H           -6.85037928558380        0.25803162192116       -1.80468845313260
H           -7.17287442604349       -1.18600110843259       -2.79318157561361
H           -5.66836817451085       -0.26952966318766       -3.04040255244073
H           -4.88416720672258       -3.71589460520039        2.40913542187496
H           -5.29223570620378       -4.96637458756866        1.20969236903657
H           -3.61139813139015       -4.39919835331056        1.35529357841967
H           -3.07077796610445       -2.21868765711333        2.10002662693138
H           -2.14562754426994        0.02067850696302        2.01001344383370
H           -3.02188875377605        2.38238012313952       -1.88813545054866
H           -1.65198530896729        3.25146700677685       -1.20556284570283
H           -1.81103374245520        0.23006524641044       -1.62116301628650
H           -0.99335688527853        1.37490212198123       -2.69443256973690
H           -0.67628064361333        1.65183887049447        0.61785727145403
H            0.63525841192517        1.98466369793744       -0.92314021190751
H            2.11132552493482       -0.65949692842762        0.72532613231274
H            2.30680473056284        0.98978251704176        0.11078972794250
H            2.76694198818247        0.06750735147374       -2.17075252200790
H            2.67954581369920       -1.57455627803457       -1.51167743520200
H            4.62169998552446        1.56295612048703       -1.56123579000624
H            6.92357674630170        1.75715815945204       -0.79119596719031
H            8.65159112996149        1.81001823324363        0.81701555159939
H            9.20136171144928        1.14042857828877       -0.74698991949293
H           10.03428838009630        0.69003240176163        0.76064937965836
H            7.05567174969094       -4.23621171795340        1.65347565939075
H            5.43848001056755       -3.50813558175093        1.79970565785717
H            6.02060041905269       -4.09420497120334        0.21253282636366
H            4.40102758497114       -2.40127266373392       -0.00490198249042
H           -0.22071299714579       -1.61775583601871       -1.65116008982042
H           -1.01972258008625       -1.24102717432227       -0.10935206830928
H            0.55899954147532       -2.04486085926761       -0.12333730421426
H           -4.63991875734388        2.95501092798550       -0.18098088071825
H           -3.76095216473977        2.90314704960906        2.73380821053058
H           -4.87457614030224        1.75695641518947        1.97884603101694
H           -5.31925552549014        3.45579210326349        2.12325564252114
H           -2.60025590131176        4.69225046143352        1.27368918226171
H           -3.03987406413880        4.81897652321898       -0.43870975059559
H           -4.22191740670577        5.18069648090034        0.80616693961239
H           -0.59832433787845        2.77744694953323        2.72958984441332
72
 energy: -5.063337984088 xtb: 6.6.1 (8d0f1dd)
N           -1.51749399045820        2.80289450939759        2.24354054534918
C           -1.56369459689468        2.15482046636893        1.16802717046443
C           -2.75128591949711        2.06217978068857        0.25040526379762
C           -3.31920544203238        0.65125267816289        0.32743673704705
C           -4.29993415471054        0.24359173501927       -0.57858525106589
C           -4.83999451110139       -1.02740280002820       -0.53509843782661
O           -5.80343822541331       -1.50223528801546       -1.37687326779784
C           -6.36808420226253       -0.62363536290464       -2.31491998195292
C           -4.39524994662947       -1.94317091691640        0.44368628223627
O           -4.98609990742430       -3.17221128842093        0.40926791305597
C           -4.65619884714161       -4.09876392072086        1.41119878536576
C           -3.42759878032621       -1.53725739564100        1.34169192409773
C           -2.89691634220202       -0.25358713792733        1.28297658116706
C           -2.19371361303734        2.30264060318275       -1.17731615462837
C           -1.25956317632347        1.18400939700443       -1.67447739864294
C            0.01110716284819        1.13430365247017       -0.90154941526810
N            0.63614009028368       -0.04770491076047       -0.55012582427490
C            2.00427063424504       -0.03634407497748       -0.14496142407400
C            2.94941592474160       -0.51947869659179       -1.26646674436791
C            4.36459503053407       -0.40318366799968       -0.80942196209345
C            5.06945933822382        0.77451404891272       -0.96761121396714
C            6.37963758625019        0.87657432592094       -0.52373148790860
C            6.98432438108394       -0.20780227616881        0.09006012492248
O            8.30440439983834       -0.33449274503435        0.40363192315712
C            9.10797229260307        0.78563988654011        0.18640520976697
C            6.25081240640618       -1.38280935742923        0.32604684572567
O            6.96856579074435       -2.35891284647892        0.95065390089085
C            6.35418873745643       -3.60474242740866        1.14276993399436
C            4.95225913828759       -1.46591695102316       -0.12506477887600
C           -0.04471681748865       -1.30764208703412       -0.61792122158220
C           -3.88419571275141        3.07605356485948        0.57619244406714
C           -4.51778378073307        2.77687290660756        1.93323944602448
C           -3.41501270798830        4.52821782588882        0.54041555135676
H           -4.64383141229861        0.93831020789316       -1.32658953825996
H           -6.82391719128755        0.24598247160972       -1.82942351188920
H           -7.14060796964142       -1.19863589230457       -2.82374454102797
H           -5.63067297474928       -0.28227414989200       -3.04955117395569
H           -4.88235948557119       -3.70908826727615        2.40999045616828
H           -5.27758395858237       -4.97199220791639        1.21586204879584
H           -3.60097385741652       -4.38919782757925        1.36567352897737
H           -3.07478127056442       -2.20880181730698        2.10733931162171
H           -2.15917593914149        0.03881798616983        2.01322881557830
H           -3.02698808469809        2.39847220263012       -1.87466901112078
H           -1.64545713174167        3.24601400154290       -1.18590508866901
H           -1.79404096734297        0.23678293953276       -1.62935923685428
H           -1.02172133499107        1.38479156181661       -2.72973582639179
H           -0.69634406367126        1.64214276236853        0.69008627520766
H            0.66183740649142        1.99097918788502       -0.98011968971477
H            2.13330899602402       -0.67530041774106        0.73615343798980
H            2.28888118567928        0.98112728574047        0.13105936605990
H            2.77161448545742        0.10535777302543       -2.14186298888713
H            2.70702834834014       -1.55198983560808       -1.51651025450939
H            4.60664022153845        1.60987158763741       -1.47203395926920
H            6.91592040445150        1.79553434490322       -0.69700415882349
H            8.74846102691715        1.62895927390780        0.75424210186615
H            9.15758431002091        1.05815302600934       -0.86885340041535
H           10.08867977114581        0.52652885807875        0.56804180905030
H            7.09934423955355       -4.22709606666138        1.63502246770188
H            5.47360709274376       -3.51840242052112        1.78451924598593
H            6.06292564426144       -4.06408236335770        0.19179797972681
H            4.38035252009893       -2.36879287831310       -0.00099383295088
H           -0.20578989147362       -1.63002168368575       -1.65327997199757
H           -1.01312161968961       -1.24699907126920       -0.11251540786460
H            0.56105479412732       -2.05989859302739       -0.11614119897840
H           -4.65591824912112        2.95548821923465       -0.19241169504372
H           -3.77051884163190        2.90551228383152        2.70942377306203
H           -4.89363994286196        1.75679974557883        1.96751109717300
H           -5.34927391296732        3.45577986066887        2.11910313334094
H           -2.62129575028214        4.67879051814905        1.26549548149528
H           -3.05424658494655        4.80845180654172       -0.44609884743077
H           -4.24762422240803        5.18333094671748        0.79188883372578
H           -0.63440056625285        2.79502429446758        2.74727624217511
72
 energy: -1.722107257196 xtb: 6.6.1 (8d0f1dd)
N           -1.54665443597134        2.83374084942714        2.25230741284864
C           -1.58030122510086        2.16177896080451        1.19108277341642
C           -2.75764453874973        2.06525463219044        0.25844710224899
C           -3.32244590618204        0.65363319156066        0.33110595438200
C           -4.29013727956739        0.23761444532836       -0.58451804826870
C           -4.82751548520488       -1.03478067497454       -0.54099610383248
O           -5.78327682713081       -1.51494803684949       -1.39084260483842
C           -6.33799599739383       -0.63755455714962       -2.33569604876736
C           -4.38996305547955       -1.94522869189582        0.44565457062004
O           -4.97617429173000       -3.17807237041173        0.40878892774605
C           -4.64891640614225       -4.09781035215192        1.41686142972665
C           -3.43277643214697       -1.53249587708484        1.35082385275397
C           -2.90748448731768       -0.24691736605556        1.29320037777107
C           -2.19040068041162        2.30786182730420       -1.16507382361866
C           -1.25523538887651        1.19251345985760       -1.67532165625072
C            0.02208740722041        1.14204043467069       -0.91061038824753
N            0.63471711266744       -0.04470157749588       -0.52434233003244
C            2.00369508434260       -0.03312895917327       -0.12033956764213
C            2.96073813438673       -0.48637550771193       -1.24520606789856
C            4.36367346130030       -0.36474406909521       -0.75655749303883
C            5.06366893907069        0.81755796156169       -0.88393329631140
C            6.37785004900037        0.90976036223808       -0.44412314257080
C            6.98426032135446       -0.19465936385063        0.13580822988656
O            8.32198456212506       -0.44106313201211        0.28138156380312
C            9.15733357592853        0.64804141243594        0.04344372654857
C            6.23531530203081       -1.35961275327157        0.37769682730441
O            6.97835673789737       -2.33298438108688        0.97598926833735
C            6.39080076109614       -3.59643136957797        1.13004794116838
C            4.93810864201785       -1.43512438682849       -0.07384379812046
C           -0.03705297985699       -1.30931303652594       -0.61201342347127
C           -3.90099151408581        3.07429115667077        0.56774789174334
C           -4.54398685287701        2.77847989695412        1.92105347277336
C           -3.43841593057319        4.52778499098718        0.52854318392775
H           -4.62865813367355        0.92982810131425       -1.33739073219667
H           -6.79821637117456        0.23323988039143       -1.85634044074784
H           -7.10505548793445       -1.21169954191910       -2.85387789341197
H           -5.59188918486413       -0.29609262928313       -3.06105521500903
H           -4.88378674679501       -3.70340284796289        2.41283856901168
H           -5.26385380061787       -4.97610200610079        1.22152423102354
H           -3.59164848033110       -4.38141841707413        1.37842159868432
H           -3.08358898886367       -2.19994359547068        2.12144558119193
H           -2.17737415672943        0.05243926138335        2.02756723682102
H           -3.02351489026850        2.41506728803827       -1.86177806089847
H           -1.63753653585567        3.24850441686500       -1.16533779680585
H           -1.78050674235179        0.24129051704465       -1.62842441605271
H           -1.04154352978943        1.39734481615466       -2.73674028634257
H           -0.71038309718986        1.63660670861272        0.74192590349382
H            0.68540634104970        1.98670690510984       -1.01684159377017
H            2.14983262165545       -0.68512786042494        0.74824246506569
H            2.27822855206978        0.98277328065500        0.16680668097817
H            2.78431479006896        0.14754706539227       -2.11418455786088
H            2.73229249189604       -1.51697000351461       -1.51841411448411
H            4.59484061544863        1.65589244845100       -1.37870729034248
H            6.90975715445761        1.83308098609972       -0.60310857567306
H            8.89272080909377        1.47068376402905        0.66352805595167
H            9.11725064265571        0.97261946702535       -0.99333980016688
H           10.15100181138217        0.36614312971242        0.36138435045887
H            7.14285727403264       -4.21738863861922        1.61236809007519
H            5.50728723684364       -3.54155862902988        1.76830516516191
H            6.11072751714662       -4.03611915652549        0.16643568916784
H            4.36108630859059       -2.33654780054712        0.01905188439224
H           -0.18256173390587       -1.63261676401318       -1.65087037801830
H           -1.01316444551433       -1.25489998036152       -0.12024816941369
H            0.55905636849234       -2.06702523812566       -0.10317562558966
H           -4.66681954645341        2.94923491516843       -0.20594645505717
H           -3.79723817881898        2.91331746634198        2.69532124955473
H           -4.91531872219574        1.75670126225772        1.95786685434500
H           -5.38037469735566        3.45410124984745        2.10280488115654
H           -2.64884295447805        4.67685509512246        1.25715985339962
H           -3.07149882023507        4.80261129389406       -0.45724620269088
H           -4.27411358582274        5.18323289604264        0.77136208756170
H           -0.67316385965876        2.82467901438056        2.76752752023572
72
 energy: 2.856371914024 xtb: 6.6.1 (8d0f1dd)
N           -1.57826452427474        2.86623760516828        2.25864690590541
C           -1.59816491184389        2.17053164339697        1.21279140240296
C           -2.76487693064920        2.06836948302110        0.26600195888809
C           -3.32551888076503        0.65569822674160        0.33489363188150
C           -4.27909436212651        0.23117765960614       -0.59100953158682
C           -4.81395182070708       -1.04255174823990       -0.54753839981721
O           -5.76119677559911       -1.52735575490066       -1.40558684240019
C           -6.30782347465553       -0.65128985115906       -2.35652596113079
C           -4.38328802382213       -1.94785459819635        0.44658315864764
O           -4.96416469239837       -3.18432253857476        0.40804676103161
C           -4.64088582566597       -4.09677502530818        1.42302619912210
C           -3.43816720793991       -1.52800946904222        1.36064348327737
C           -2.91837292332538       -0.24040485546300        1.30433303192296
C           -2.18714559830574        2.31474977937838       -1.15224253839226
C           -1.24994596363427        1.20342526851387       -1.67426312306163
C            0.03575659738976        1.15085646767454       -0.92131974067264
N            0.63213699788790       -0.03974563738559       -0.49502025414069
C            2.00229349491658       -0.02904188395972       -0.09330810645045
C            2.96921366911687       -0.45111281025590       -1.22232082992798
C            4.36085437964031       -0.32781013553541       -0.70690686909977
C            5.05220603095866        0.85995060146607       -0.80461382309010
C            6.37174381160539        0.94624749622884       -0.37711774643953
C            6.97565030561229       -0.18596045982800        0.13128478655520
O            8.30296296983554       -0.53375180596600        0.15674910765660
C            9.18754058357694        0.51350975759592       -0.11111176316043
C            6.21818956896028       -1.33722706529230        0.42254662749455
O            6.97335232179420       -2.30583833423717        1.01238544787564
C            6.42360986159406       -3.58935249976743        1.11831514479129
C            4.92321397167498       -1.40622001584711       -0.02639146216510
C           -0.02857398952589       -1.30914420478919       -0.60756250354226
C           -3.91779589958111        3.07227216146660        0.55910532885567
C           -4.57119611113435        2.77961431574417        1.90792418807156
C           -3.46225145309024        4.52732827105312        0.51560939838345
H           -4.61315175754423        0.92066550557724       -1.34890161871364
H           -6.77306597290212        0.22033639109621       -1.88347960541767
H           -7.06965604673519       -1.22502265601489       -2.88290534048908
H           -5.55433354894833       -0.31001269413842       -3.07391895554411
H           -4.88509739827241       -3.69800994393095        2.41599561440384
H           -5.24947457338600       -4.97974356823451        1.22713991146557
H           -3.58175084346678       -4.37402636667324        1.39169694473138
H           -3.09439761238711       -2.19115883317766        2.13791442952899
H           -2.19834925164707        0.06509713354498        2.04604952443019
H           -3.01988736913812        2.43133264209633       -1.84894054288221
H           -1.63059284461668        3.25302276176776       -1.14383190262803
H           -1.76585286717507        0.24698974515066       -1.62740143701333
H           -1.06142940503656        1.41422225379127       -2.74094671729068
H           -0.72659648318359        1.62806447748283        0.79557050267599
H            0.71360190721801        1.97995472674102       -1.05439363275886
H            2.16413299647629       -0.69582380323305        0.76074212374107
H            2.26863055115845        0.98368108063945        0.20941431850162
H            2.79697919418093        0.19184784531149       -2.08544269997298
H            2.75369247835776       -1.47908371115537       -1.51884639494595
H            4.57819763568508        1.70256405518578       -1.28515813271189
H            6.90329868335070        1.87159075609673       -0.51236903886991
H            8.98902609631250        1.34796593232657        0.49853913332266
H            9.08417276099418        0.87616415375485       -1.12739176428653
H           10.18963242472116        0.21094218006670        0.16114051508797
H            7.18642527198661       -4.20618339283980        1.58868399285943
H            5.53724328760795       -3.57119426069775        1.75226719160813
H            6.15851921664695       -4.00790592949882        0.14103116833193
H            4.34439987544065       -2.30579442993804        0.05147230353487
H           -0.15626580188594       -1.63221765343587       -1.65021779764083
H           -1.01341220388357       -1.26354670109387       -0.13201947556172
H            0.55876763531035       -2.06932268407035       -0.08990072882641
H           -4.67724592964281        2.94104349394037       -0.21981920171302
H           -3.82988495850804        2.92225483933862        2.68343307958880
H           -4.93761352358612        1.75611848674194        1.94825728785104
H           -5.41214206110655        3.45223077694347        2.08218076327482
H           -2.67810686478246        4.67529901797695        1.24853186372630
H           -3.09018297605312        4.79779116353660       -0.46951992569719
H           -4.30064186673975        5.18306209043221        0.75026554725887
H           -0.71411199582412        2.85904993458018        2.78434874254557
72
 energy: 10.089271717765 xtb: 6.6.1 (8d0f1dd)
N           -1.61128220029871        2.89911328658379        2.26429768328297
C           -1.61673282694075        2.18070218080037        1.23416525501790
C           -2.77247440338408        2.07154987722923        0.27377950965739
C           -3.32885314351313        0.65777719841561        0.33923945346700
C           -4.26927094917218        0.22585375007576       -0.59628412885461
C           -4.80044659984186       -1.04985283608351       -0.55400246823273
O           -5.73847295888271       -1.53910323460654       -1.42046240707135
C           -6.27777605113874       -0.66478985624534       -2.37752694590843
C           -4.37637278981737       -1.95105591283924        0.44650579807799
O           -4.95260528254935       -3.19038863628216        0.40676439689616
C           -4.63341438569534       -4.09642771792508        1.42801785380340
C           -3.44402752731041       -1.52390649568198        1.37052951178981
C           -2.92967225758342       -0.23418760429868        1.31598390804525
C           -2.18379619410732        2.32250011499211       -1.13878976515508
C           -1.24428153314853        1.21609160286271       -1.67295019951202
C            0.05052734549384        1.16158151015022       -0.93281952381589
N            0.63030549643483       -0.03077164858331       -0.46842595336356
C            2.00143904832173       -0.02063479694334       -0.06898371133404
C            2.97726289995576       -0.41765046130286       -1.19998290960318
C            4.35806946129129       -0.29202517882251       -0.65911536256080
C            5.04298306539950        0.90047826485109       -0.72379101347737
C            6.36726598922926        0.98174383676214       -0.30424484842860
C            6.97010533223670       -0.16568038467111        0.15864563135614
O            8.25933602673333       -0.61244553060275        0.03242526191322
C            9.19534711440112        0.38328031920755       -0.27030116848296
C            6.20047464780315       -1.31041898767660        0.47614869914344
O            6.96173971947177       -2.28121433216090        1.05478832054133
C            6.45369201684414       -3.58406734099605        1.10662489035789
C            4.90992937732638       -1.37549883827600        0.02292543385112
C           -0.01883260353089       -1.30527906188023       -0.60597154563383
C           -3.93448543896968        3.07011865464379        0.55059071762863
C           -4.59825552204253        2.78079366099708        1.89495453215350
C           -3.48598246123296        4.52692616482465        0.50238540149154
H           -4.59772655375925        0.91174820246062       -1.36025399575921
H           -6.74843236390424        0.20751993088775       -1.91110210070368
H           -7.03437661423416       -1.23853587167719       -2.91139461356828
H           -5.51757542845040       -0.32394679995405       -3.08770629114612
H           -4.89049856105323       -3.69640775785239        2.41696913086891
H           -5.23524408457636       -4.98388218072012        1.23134788539425
H           -3.57224224356212       -4.36654288383650        1.40498144266330
H           -3.10588849518250       -2.18281547521910        2.15454626319210
H           -2.22055167094227        0.07670308800956        2.06631217383208
H           -3.01609256378464        2.44827371480013       -1.83550769185725
H           -1.62332929990602        3.25810966657252       -1.12122953875083
H           -1.74980114253538        0.25319034937723       -1.62711315646298
H           -1.08195734468540        1.43478462053375       -2.74384668078673
H           -0.74443393846820        1.61841769518383        0.85014068056723
H            0.74439375559610        1.97201107564055       -1.09382161356309
H            2.17699892485991       -0.70244399197931        0.77211584015940
H            2.25961506543259        0.98729856419790        0.25065895693240
H            2.80952595477051        0.23410381921156       -2.05746535745735
H            2.77415288703457       -1.44309806716263       -1.51493352040074
H            4.56512940683521        1.74661447158909       -1.19373532189634
H            6.89884482151617        1.90787177288807       -0.42070179453723
H            9.05780553914004        1.24767593871070        0.29691611343125
H            9.05594409083579        0.77051671069484       -1.26732231019968
H           10.20082005180466        0.05569023792293       -0.03191833910942
H            7.22912663566156       -4.19423416654557        1.56536797908549
H            5.56169703259844       -3.60882363104859        1.73327949646716
H            6.20667818954454       -3.97986673490612        0.11520194771732
H            4.33251251218890       -2.27524309030816        0.08304816914056
H           -0.13187250895795       -1.62714919130534       -1.65153439854170
H           -1.01108668167882       -1.27161696851647       -0.14378031773506
H            0.56858912897758       -2.06457176715781       -0.08611428783268
H           -4.68702984842403        2.93086649425062       -0.23389100631534
H           -3.86497718860646        2.93175212435502        2.67402695259901
H           -4.96019567922662        1.75586207817739        1.93921511257561
H           -5.44362300653303        3.45046166636283        2.05941154215343
H           -2.70774675849515        4.67562937055216        1.23977847913172
H           -3.10957320992489        4.79363931174283       -0.48208275702872
H           -4.32723732654813        5.18234743832371        0.72886846988942
H           -0.75627780400798        2.89491048723905        2.80043514289185
72
 energy: 19.150656622536 xtb: 6.6.1 (8d0f1dd)
N           -1.64483816720803        2.93221300090826        2.26970602395415
C           -1.63589884519335        2.19144149022436        1.25606585256217
C           -2.78007067197983        2.07494702414410        0.28165950352472
C           -3.33195080999556        0.65991478259057        0.34359707678010
C           -4.25914462537326        0.22098180989749       -0.60153429133379
C           -4.78695759962805       -1.05656819149728       -0.56053662635645
O           -5.71633055547788       -1.55051058833699       -1.43481954522155
C           -6.24775433511157       -0.67834687793455       -2.39846856434458
C           -4.36925580841724       -1.95399549950066        0.44595326202199
O           -4.94098227411479       -3.19554011672027        0.40536145738833
C           -4.62608906841606       -4.09621548253258        1.43238866248021
C           -3.44984330860302       -1.51980668023406        1.37992282053556
C           -2.94088298485773       -0.22805745974046        1.32744711971524
C           -2.18087509909673        2.33137302575448       -1.12532548559149
C           -1.23969439684229        1.23074608014828       -1.67222314273792
C            0.06286142267535        1.17802581139478       -0.94339464720492
N            0.62927042828058       -0.01413817172644       -0.45307254481034
C            1.99935268023890       -0.00763119363569       -0.04581649871597
C            2.98477248326571       -0.38413657433425       -1.17519868187452
C            4.35732095435631       -0.25718404573454       -0.61212189803270