72
 energy: 0.000000000000 xtb: 6.6.1 (8d0f1dd)
N           -1.47310934822924        2.74401318561852        2.22063942287560
C           -1.55658894218425        2.16490305624665        1.13274284460745
C           -2.74549225258129        2.05621251263064        0.23826250649470
C           -3.31377583855761        0.64333417511334        0.32332515650284
C           -4.30230195924506        0.24487112428158       -0.58026167086503
C           -4.85238808050968       -1.02286499940159       -0.53363593669082
O           -5.81420026757557       -1.48606047972767       -1.36157895357670
C           -6.39655692584623       -0.60827005826649       -2.29568495601309
C           -4.39972542350640       -1.94646120241305        0.44396933240983
O           -4.98748357557592       -3.16146026488900        0.41085995818162
C           -4.66362171172287       -4.10093865802695        1.40909140816864
C           -3.42072545213514       -1.54561399150247        1.33436558640148
C           -2.88302826362110       -0.26315802838497        1.27400162590187
C           -2.19303818453636        2.30467021687947       -1.18742988123374
C           -1.26651549989641        1.17243380322503       -1.65249445018642
C            0.01082525039567        1.09745464658138       -0.89354811789923
N            0.61779399208289       -0.02034948241203       -0.57705527866251
C            2.00145228921113       -0.02376006609561       -0.15611401051620
C            2.92554961797610       -0.53865287672537       -1.27700100652360
C            4.35756883501756       -0.43050761225877       -0.83075552032494
C            5.07346182539911        0.73206415878124       -1.03980975472950
C            6.38628045899965        0.84224449235903       -0.60344828301384
C            7.00047329721665       -0.20824758267940        0.05722314949100
O            8.26703733840855       -0.21011315050632        0.52410948507466
C            9.06912311989339        0.92943609656965        0.31863060963839
C            6.27040022445068       -1.40439766990411        0.28033468609137
O            6.94830004375713       -2.38012947787858        0.92752007684741
C            6.31537376337817       -3.61583233633369        1.15217722400438
C            4.96302840674480       -1.49347485723979       -0.16064431849589
C           -0.05511211878686       -1.29906259857679       -0.62085692079872
C           -3.86758072907722        3.07992629005348        0.58498065642721
C           -4.49286201346546        2.77383518785172        1.94313307512182
C           -3.39165211343248        4.52917708609625        0.54797528556046
H           -4.66030069703099        0.94509076131725       -1.31640581036773
H           -6.85037992114187        0.25803164586058       -1.80468862056629
H           -7.17287509152171       -1.18600121846629       -2.79318183475679
H           -5.66836870040540       -0.26952968819383       -3.04040283452035
H           -4.88416765986127       -3.71589494995018        2.40913564538747
H           -5.29223619720187       -4.96637504833431        1.20969248126828
H           -3.61139846644506       -4.39919876145526        1.35529370415983
H           -3.07077825100221       -2.21868786295666        2.10002682176568
H           -2.14562774333496        0.02067850888151        2.01001363031684
H           -3.02188903413801        2.38238034416975       -1.88813562572432
H           -1.65198546223364        3.25146730843841       -1.20556295755141
H           -1.81103391047759        0.23006526775522       -1.62116316669324
H           -0.99335697743926        1.37490224954061       -2.69443281971844
H           -0.67628070635666        1.65183902374723        0.61785732877701
H            0.63525847086258        1.98466388206871       -0.92314029755375
H            2.11132572081740       -0.65949698961381        0.72532619960637
H            2.30680494458141        0.98978260887088        0.11078973822125
H            2.76694224489122        0.06750735773687       -2.17075272340394
H            2.67954606229959       -1.57455642411728       -1.51167757545099
H            4.62170041431221        1.56295626549351       -1.56123593485311
H            6.92357738865082        1.75715832247601       -0.79119604059515
H            8.65159193263071        1.81001840117181        0.81701562739969
H            9.20136256512460        1.14042868409438       -0.74698998879646
H           10.03428931104811        0.69003246578081        0.76064945022918
H            7.05567240429544       -4.23621211097668        1.65347581279537
H            5.43848051513375       -3.50813590722545        1.79970582482858
H            6.02060097762632       -4.09420535105165        0.21253284608183
H            4.40102799328555       -2.40127288651695       -0.00490198294521
H           -0.22071301762289       -1.61775598610935       -1.65116024301020
H           -1.01972267469312       -1.24102728946113       -0.10935207845464
H            0.55899959333766       -2.04486104898380       -0.12333731565713
H           -4.63991918782192        2.95501120214274       -0.18098089750912
H           -3.76095251366987        2.90314731895452        2.73380846416528
H           -4.87457659255110        1.75695657819473        1.97884621460846
H           -5.31925601899505        3.45579242388173        2.12325583951056
H           -2.60025614255587        4.69225089676674        1.27368930043085
H           -3.03987434616939        4.81897697030947       -0.43870979129779
H           -4.22191779840287        5.18069696155015        0.80616701440619
H           -0.59832439338922        2.77744720721660        2.72959009765665
72
 energy: -5.400511639188 xtb: 6.6.1 (8d0f1dd)
N           -1.49434094599090        2.78316775488961        2.23973270342401
C           -1.56543236183512        2.15613779622293        1.15890065619058
C           -2.74803512418160        2.06070230128174        0.24637468265414
C           -3.31847830202926        0.64995469436519        0.32838634940840
C           -4.30260180577716        0.24591019829347       -0.57673844847525
C           -4.84826609519532       -1.02334218617167       -0.53310098700312
O           -5.81296145894839       -1.49135113557663       -1.36600832741749
C           -6.38992769286526       -0.61226550986175       -2.30001226274369
C           -4.39821129253920       -1.94430584571727        0.44358784824068
O           -4.98849165127373       -3.16613460567228        0.40957283032360
C           -4.66234013437236       -4.10076429166603        1.40916019746010
C           -3.42460844666820       -1.54084034947159        1.33722417109684
C           -2.89086047250118       -0.25681572934081        1.27943845043471
C           -2.19436902738184        2.30041114698305       -1.18302252219062
C           -1.26029277187044        1.18447480920578       -1.67571104005105
C            0.01044950752811        1.12261436804141       -0.89673856890696
N            0.63205592175864       -0.03900019912942       -0.56252321445972
C            2.00683667993592       -0.03539432219592       -0.15296330461903
C            2.93601311513372       -0.53759506910583       -1.27547847054898
C            4.36236959998912       -0.42908262501941       -0.83481268604634
C            5.07405886578709        0.73914423322304       -1.03084848202856
C            6.38349671322222        0.84984933232552       -0.58885795130960
C            6.99611242051420       -0.20735836884321        0.06136215834543
O            8.27454533736705       -0.22659263153557        0.51149499788052
C            9.06974896590336        0.91101672842584        0.30104323558952
C            6.26930190482046       -1.39964352655836        0.28498391822029
O            6.95468511563030       -2.37799127020855        0.93220621553080
C            6.32187895381466       -3.61265439508468        1.15113306949006
C            4.96619287859133       -1.49076737502481       -0.16018413149291
C           -0.04815802458665       -1.30651513108872       -0.61737695672904
C           -3.87639632802141        3.07812409958522        0.57997269659917
C           -4.50090418442433        2.77595270920084        1.93989614563841
C           -3.39953238795378        4.52790294813773        0.54612403723978
H           -4.65467749211495        0.94310127631948       -1.31888802909636
H           -6.84344341156542        0.25532301674171       -1.80995983052409
H           -7.16588961479350       -1.18913927386516       -2.80025408456759
H           -5.65928116936932       -0.27223513690460       -3.04184654896497
H           -4.88361196183703       -3.71413871308697        2.40906355223138
H           -5.28897710449447       -4.96856820627902        1.21111795121410
H           -3.60898312106323       -4.39624485321680        1.35809503358194
H           -3.07106232300166       -2.21628268679111        2.10024720902645
H           -2.14790834549210        0.02638780616099        2.00887645521452
H           -3.02510406560532        2.38673772762237       -1.88393039686258
H           -1.64980749209005        3.24557882600856       -1.19843800775291
H           -1.79778972755231        0.23821563238390       -1.62826777848451
H           -1.01931930094332        1.38466780055334       -2.72928509164814
H           -0.68797497380724        1.64918887848213        0.65797634992219
H            0.64841114901457        1.99474147766868       -0.95795454779364
H            2.12285104796864       -0.66723460245223        0.73199215734463
H            2.29901532903421        0.98286823645414        0.11381893724280
H            2.76729683215729        0.07360857661002       -2.16355792241139
H            2.68567511773551       -1.57205488354063       -1.51112043535861
H            4.61875267621160        1.57189492667586       -1.54577875633295
H            6.92138773004984        1.76649307397954       -0.77060343670596
H            8.65455569286747        1.78800864223240        0.81249584434176
H            9.19121610275928        1.12582638981012       -0.76563307989944
H           10.03755940487314        0.66239287736511        0.73071045919401
H            7.06268895663819       -4.23418318649839        1.65107660095638
H            5.44319728141096       -3.50731834406829        1.79653935148712
H            6.02728143097899       -4.08650356515547        0.20889678946132
H            4.40332669517459       -2.39784443196797       -0.00504756229577
H           -0.21759052967738       -1.62305739046200       -1.65125237968168
H           -1.01438575967232       -1.24241687392112       -0.10878703620262
H            0.56066160298242       -2.05588043074163       -0.11877751027358
H           -4.65029460855968        2.95706552017446       -0.18668839767030
H           -3.76157116069313        2.90362495291732        2.72435634967811
H           -4.87799006155070        1.75685872872966        1.97575886479961
H           -5.32897519632148        3.45715778032843        2.12303054080121
H           -2.60569888476551        4.68379538304265        1.27082354497819
H           -3.04274743664317        4.81391889401727       -0.44016833764808
H           -4.22890689080952        5.18336266756735        0.80312428424009
H           -0.61352509213315        2.78462670627076        2.74450841717488
72
 energy: -6.691493929707 xtb: 6.6.1 (8d0f1dd)
N           -1.53189100469882        2.84092399754726        2.25176493601978
C           -1.57809861100541        2.16042012557145        1.18775587189334
C           -2.75300364575016        2.06519101969448        0.25487118058230
C           -3.32300836640686        0.65503074959088        0.33256853976677
C           -4.30175660343217        0.24519979432543       -0.57499170845851
C           -4.84239964291698       -1.02545638572386       -0.53314062844791
O           -5.80660248666957       -1.49959806758936       -1.37407992390090
C           -6.37459448333230       -0.61996376796699       -2.31009614501643
C           -4.39677127251038       -1.94233283227361        0.44429925829571
O           -4.98736731261778       -3.17199878667904        0.40846599856010
C           -4.65855928208531       -4.09985019518303        1.41032744940765
C           -3.43041865450047       -1.53584001601965        1.34332045910565
C           -2.90160264116289       -0.25066703495212        1.28756434180097
C           -2.19332931129590        2.30283990749142       -1.17491580896242
C           -1.25461400014193        1.19455216018186       -1.68610001304205
C            0.01456646165603        1.14524514641512       -0.90046395644547
N            0.64132570163295       -0.05003812643466       -0.54706859410846
C            2.00899986533274       -0.04113754855477       -0.14690951784515
C            2.94637914608626       -0.53123167321042       -1.27046278428450
C            4.36599338025041       -0.42142316097450       -0.82845584945470
C            5.07238565381316        0.75363826924545       -1.00551423818876
C            6.38047143039105        0.86315755004820       -0.56076064273746
C            6.99098996067577       -0.20753742731161        0.06629741147075
O            8.28553986104621       -0.25861721275109        0.48228881287656
C            9.07674692423962        0.87296964469889        0.26383119643287
C            6.26725218457193       -1.39379902250815        0.29155993593472
O            6.96312433564708       -2.37247707480944        0.93775894898709
C            6.33397801953910       -3.60764328261301        1.14805652996934
C            4.96722202570865       -1.48532846814434       -0.15640164838052
C           -0.04308811443236       -1.30876866510390       -0.61560199144849
C           -3.88847955178767        3.07618822836449        0.57259251095107
C           -4.51628302826557        2.77718333469949        1.93261570658353
C           -3.41362370605208        4.52722211347502        0.53976700705024
H           -4.64589226486142        0.93876520047752       -1.32468300946619
H           -6.82966260372792        0.24903279955848       -1.82287155662572
H           -7.14874780423365       -1.19532338020875       -2.81591372708241
H           -5.63911783182645       -0.27907735338373       -3.04700519739585
H           -4.88323702184037       -3.71152696557326        2.40948653494513
H           -5.28069391323056       -4.97197741530841        1.21433097130079
H           -3.60342695904295       -4.39097484290339        1.36419129955368
H           -3.07375730130461       -2.21226236075554        2.10454830533553
H           -2.15708314077574        0.03498649233103        2.01381298325997
H           -3.02819856419728        2.39892486538362       -1.87274545669386
H           -1.64538376603151        3.24660386392264       -1.18420324976917
H           -1.77976354973395        0.24136358008656       -1.63330400077080
H           -1.05031837825571        1.40027785876097       -2.75067076906749
H           -0.70783103311256        1.63002491265283        0.72821948204728
H            0.67609669025762        1.99440219716669       -1.00339653467563
H            2.13994814165107       -0.67536482417181        0.73817513908658
H            2.29151964228843        0.97866571692751        0.12590119051475
H            2.76948710709433        0.08757671767307       -2.15138909832467
H            2.69599551331905       -1.56455292840688       -1.51298925653089
H            4.61191912465827        1.59019749780022       -1.50960942901272
H            6.91667451783494        1.78464772083904       -0.72635599582293
H            8.67325220791505        1.74381711316841        0.79920911655213
H            9.17143072321432        1.09808637554859       -0.80449336034968
H           10.05259608545217        0.60854483557015        0.66516274315688
H            7.07635708787708       -4.23007171449758        1.64509304353613
H            5.45321877323226       -3.50833656274179        1.79149887930933
H            6.04191433688529       -4.07447540734537        0.20131041148378
H            4.40334872935513       -2.39213220156655       -0.00639182828826
H           -0.21166276321753       -1.62916775836602       -1.65140937419625
H           -1.01152653898160       -1.24627228685324       -0.11133609618870
H            0.56009940120314       -2.06329744301767       -0.11445888124538
H           -4.66113491116601        2.95495195974849       -0.19669587378736
H           -3.77040971580611        2.90637211153559        2.71042850710265
H           -4.88928947922116        1.75624738810549        1.97079056244796
H           -5.34564021281370        3.45709871924564        2.11785204620755
H           -2.61957063579233        4.67412941578491        1.26565593293104
H           -3.05057608376437        4.80873929181220       -0.44567951141601
H           -4.24191572908305        5.18598445798076        0.79448308026447
H           -0.64660231486570        2.79861083254926        2.75719586516874
72
 energy: -5.397515794000 xtb: 6.6.1 (8d0f1dd)
N           -1.58406530566935        2.89967925684804        2.26535269381171
C           -1.59903187783938        2.17198720804553        1.22162660119500
C           -2.76201299672016        2.07057498520989        0.26475752200312
C           -3.32743000005898        0.65915241430077        0.33655841626589
C           -4.29748164561244        0.24250147614910       -0.57677133341411
C           -4.83316723643060       -1.02986327036419       -0.53534266572787
O           -5.79220474860551       -1.51104008853473       -1.38675658553492
C           -6.34794951162131       -0.63253291486333       -2.32835483421995
C           -4.39432792908359       -1.94125897400697        0.44609634222814
O           -4.98222303308630       -3.17845373355135        0.40808874321234
C           -4.65166052449939       -4.09829240490080        1.41373809678314
C           -3.43747743448567       -1.53036820289172        1.35306594920939
C           -2.91451672919295       -0.24375576003578        1.29881949595661
C           -2.19115862620782        2.31000147365349       -1.16163583410774
C           -1.25033721924978        1.20598806520058       -1.68732568020154
C            0.02102726042541        1.16537063516111       -0.90720277433920
N            0.64583405331676       -0.05575694236042       -0.52964689245371
C            2.00878222821299       -0.04242065461610       -0.13480586311928
C            2.95528628768347       -0.51610777765321       -1.26131906205992
C            4.36731112603020       -0.40538545652391       -0.80897650537447
C            5.06684678597651        0.77898586808008       -0.95774059432642
C            6.37603454702523        0.88371548659972       -0.51586589055111
C            6.98605834852017       -0.20948213526275        0.07161004430270
O            8.30022722687114       -0.30775151518482        0.43371277588767
C            9.09457712717587        0.81130255753411        0.20030259466005
C            6.26286730561817       -1.38825812348513        0.30069467389769
O            6.97216043841069       -2.36426922859909        0.94328722934247
C            6.35235247148108       -3.60282666093022        1.14209148484955
C            4.96421775327331       -1.47728131708502       -0.14657167721101
C           -0.03857816422877       -1.30912165237284       -0.61381434385699
C           -3.90692360651416        3.07420535078721        0.56282785755550
C           -4.54174300973196        2.77840178389031        1.92102048875029
C           -3.43608989426124        4.52694845897556        0.52823294150781
H           -4.63264111837670        0.93169199909028       -1.33483612356688
H           -6.80716377184623        0.23803060311809       -1.84685812722827
H           -7.11791092332072       -1.20660091401863       -2.84281031186802
H           -5.60453639963607       -0.29178812291419       -3.05777927959869
H           -4.88335402879828       -3.70805602645626        2.41114560928489
H           -5.26638732969483       -4.97663042375615        1.21957517865363
H           -3.59402562108483       -4.38296839175719        1.37521804540014
H           -3.08052099668322       -2.20531489519264        2.11545232434411
H           -2.17471952539569        0.04771115253671        2.02733362022490
H           -3.02768495784783        2.41795074054843       -1.85760745333312
H           -1.63778085581970        3.25078204194271       -1.16147565225848
H           -1.76165591393060        0.24545572586933       -1.63463173199675
H           -1.07849516197552        1.42133110887910       -2.75927591289500
H           -0.73384808279679        1.60930775158149        0.82082733436704
H            0.70973135451939        1.98743559533159       -1.05084960953784
H            2.15648353438965       -0.68398781548276        0.74631769537502
H            2.28399600548862        0.97662546831189        0.14880861277213
H            2.77525169284236        0.11274981669685       -2.13429119390325
H            2.70957319442166       -1.54818694861525       -1.51598889485183
H            4.59959081061468        1.62281178872764       -1.44389908201925
H            6.90839561526527        1.81267051213921       -0.65529961971758
H            8.71917440233146        1.67471496323663        0.77293157511782
H            9.14195371067997        1.05319986851678       -0.87022594628396
H           10.08466271411735        0.52116517164181        0.55154221429622
H            7.09861448347003       -4.22460669326636        1.63440840917015
H            5.46948974548153       -3.51406874030355        1.78416962058289
H            6.06542108740455       -4.06012473894078        0.18901734239032
H            4.39945753138759       -2.38482659149170       -0.00769779339990
H           -0.19980470745234       -1.63340665114530       -1.65166551970756
H           -1.01127094840414       -1.25212607553808       -0.11727187305224
H            0.55893867611818       -2.06826481953189       -0.10862170204895
H           -4.67395597886353        2.94713849298591       -0.21215296438368
H           -3.79344967079537        2.91245907058681        2.69506165913168
H           -4.91055403061551        1.75581562417431        1.96196397388905
H           -5.37301566939283        3.45626003131153        2.10443150537896
H           -2.64475475005772        4.66822053848617        1.25737939480770
H           -3.06628620681729        4.80351753222678       -0.45609247992632
H           -4.26453059560458        5.18738240925811        0.77773670428426
H           -0.69569198336970        2.83123340607819        2.76874356964834
72
 energy: -0.604561607353 xtb: 6.6.1 (8d0f1dd)
N           -1.65799356054330        2.97261971848125        2.28323195369906
C           -1.62893234200704        2.19196395847597        1.26676241323071
C           -2.77526338276982        2.07769644413201        0.27815595887186
C           -3.33249421330144        0.66360149336148        0.34116599883989
C           -4.28984918060156        0.23791756688440       -0.58114691370387
C           -4.81923856017048       -1.03678460544094       -0.53940365446518
O           -5.76958748378950       -1.52729479479459       -1.40532452275336
C           -6.30793305475183       -0.65124165545262       -2.35580581586970
C           -4.39044557069835       -1.94040985062517        0.44871816321408
O           -4.97359401966975       -3.18708605235962        0.40800050883036
C           -4.64133853598632       -4.09587561307098        1.41921833048316
C           -3.44696233100067       -1.52340021604069        1.36730867084668
C           -2.93203225082895       -0.23494465132988        1.31463107185981
C           -2.18770842762356        2.32187586544519       -1.14204947986583
C           -1.24574593623456        1.22102151084638       -1.68414537791442
C            0.03128127683046        1.19020595716057       -0.92046429025393
N            0.64825962064782       -0.05965240093530       -0.50541872909927
C            2.00674420879694       -0.04076205568336       -0.11608669642286
C            2.96598242336608       -0.49162192228308       -1.24707940637383
C            4.36808682781307       -0.38022248414982       -0.77681730588583
C            5.05808020278238        0.81691889806537       -0.88448426627095
C            6.37026719343075        0.91399547735515       -0.44972838961108
C            6.97941438130249       -0.21248510566039        0.07824242740017
O            8.31887638676346       -0.38014092485696        0.36080550319899
C            9.12148317548462        0.71891321184040        0.10474904181610
C            6.25560206685428       -1.38091070450940        0.31430734493596
O            6.98384394891995       -2.35096531957183        0.95181387970179
C            6.37955975330576       -3.59592585555377        1.13305958789313
C            4.95799928224507       -1.46560437864358       -0.13063984339635
C           -0.03304236456296       -1.30819314952183       -0.61164558324035
C           -3.93309515092437        3.07147060649825        0.54958298708746
C           -4.57952215366323        2.77990653122172        1.90413983258185
C           -3.46920508459001        4.52697146285319        0.51079603873418
H           -4.61300764228120        0.92124594471723       -1.35007713337746
H           -6.77393390805295        0.22143331488738       -1.88331001916026
H           -7.07125548322338       -1.22377911433125       -2.88289359599963
H           -5.55292748708679       -0.31120891454124       -3.07446080523134
H           -4.88397167656581       -3.70322577608376        2.41390171244250
H           -5.24502201849113       -4.98317370791761        1.22738184103347
H           -3.58017133823830       -4.37136494220216        1.39196544448075
H           -3.09130001411979       -2.19495755776573        2.13291794404703
H           -2.20181124360114        0.06580212168646        2.04916524262943
H           -3.02507337409153        2.44615305666312       -1.83613485972373
H           -1.62597584563323        3.25768550991215       -1.12803768391927
H           -1.73810713381805        0.25071576945996       -1.63478402788504
H           -1.11356764191495        1.45126199577870       -2.76326776814784
H           -0.77088361596391        1.58429111134451        0.95394085287181
H            0.75649854833216        1.97374299285377       -1.11259579149191
H            2.17711901434418       -0.69475179498433        0.75753735177821
H            2.27419439129439        0.97575063122310        0.18428566800019
H            2.78461826817989        0.15099491790570       -2.10955628105569
H            2.72866566815473       -1.52206994924905       -1.51985657872437
H            4.58082121191507        1.67154352658073       -1.34374835015271
H            6.89622542950586        1.85369394809241       -0.55013210525871
H            8.79171372541783        1.57223884094831        0.73121007578345
H            9.09888875833536        0.98590054687820       -0.96764758290175
H           10.13153476949248        0.39086471110219        0.38029465156635
H            7.13184849272739       -4.21631396877512        1.61823923608020
H            5.49373894531533       -3.52402228989722        1.77346038406685
H            6.10085959204832       -4.03948725439299        0.17076678499450
H            4.39211035555904       -2.37446674662294       -0.00924382829080
H           -0.18107868856729       -1.63758334717064       -1.65218057396022
H           -1.01228243717919       -1.26113492291646       -0.12684775151451
H            0.55734321392114       -2.07306795447580       -0.10045037168699
H           -4.69055871075120        2.93363860733275       -0.23427954998397
H           -3.83083413235232        2.92215730669350        2.67523968267350
H           -4.94289025689018        1.75534702650118        1.94870811958847
H           -5.41359478621888        3.45469103938962        2.08272331794377
H           -2.68300393403666        4.66326072206434        1.24512680896049
H           -3.09073633666531        4.79687103915443       -0.47198579178386
H           -4.29863557173823        5.18834617325997        0.75203572981432
H           -0.76515545501975        2.88071219684259        2.78062669586128
72
 energy: 6.518352870200 xtb: 6.6.1 (8d0f1dd)
N           -1.72281689239274        3.03339235401597        2.30225702116196
C           -1.65781041651651        2.21048716548753        1.30786148814325
C           -2.78758634884331        2.08387073584520        0.29124041139451
C           -3.33736852906282        0.66752268716176        0.34642470524427
C           -4.28137588957924        0.23311709711519       -0.58559953317635
C           -4.80494840781742       -1.04382487390615       -0.54427329379697
O           -5.74694998669039       -1.54255280035504       -1.42299040113401
C           -6.26926682462945       -0.66926270797749       -2.38254695711703
C           -4.38594218241013       -1.94031804101936        0.45076626017204
O           -4.96470839481954       -3.19493924858099        0.40796471204830
C           -4.63165977157614       -4.09391367798071        1.42477464140270
C           -3.45570243414581       -1.51708235418112        1.38045556048080
C           -2.94843212710404       -0.22665044459491        1.32987857674869
C           -2.18433402028913        2.33226894922288       -1.12321233653482
C           -1.24102562049535        1.23590630895565       -1.68219513875251
C            0.04064588960753        1.21305863822852       -0.93101461993747
N            0.65112410704224       -0.06210118984930       -0.48342421132054
C            2.00500620466709       -0.03812589768809       -0.09771959540152
C            2.97571190097893       -0.46657177401802       -1.23202008670988
C            4.36839604077512       -0.35552608171755       -0.74480962419727