25
 energy: 37.796829390480 xtb: 6.6.1 (8d0f1dd)
C            3.19859548848135        1.15985470941815        0.13496967017929
N            2.29853162948237        0.05191146265313       -0.01818207918275
C            2.65361192896363       -1.26554635382478       -0.12815044145294
N            1.50419195836256       -2.01016764521162       -0.20803333841955
C            0.44347446968515       -1.17582957165642       -0.16149507801286
C            0.88896203710043        0.13270537837531       -0.07843735089373
C           -0.06342440552798        1.21131077103785        0.14897052946767
O            0.24740559910205        2.28530754330878        0.68686304430073
N           -1.36276914084652        1.17682346970481       -0.60332431440659
C           -2.27471631746163        2.31701544710168       -0.38703312726730
C           -1.70492916309303       -0.08436753246727        0.06791345187827
O           -2.82507864111535       -0.32063391980109        0.51300293148821
N           -0.89362370425986       -1.33246165519305       -0.09173186750660
C           -1.47316766386759       -2.65674002451001        0.09795467218448
H            3.57937636050860        1.23948121508200        1.15994496989827
H            4.04966970144496        1.06641233946310       -0.54366058430302
H            2.64052964486940        2.06298387083312       -0.09912989573925
H            3.64812486003308       -1.66019226900857       -0.25298955993896
H           -1.96747439797895        3.04835748384653        0.36988674798837
H           -2.37964351129730        2.79035345033962       -1.34910395397829
H           -3.21436045296593        1.95166450295329        0.04056299328010
H           -0.96923881992373       -3.24641676240993        0.88043149302626
H           -1.40210471452580       -3.21579630861757       -0.83584183040972
H           -2.53823989394881       -2.55917527431893        0.27893508206690
H            1.47634204032099       -3.01590126895031       -0.24826533515061
