72
 energy: 91.039308217344 xtb: 6.6.1 (8d0f1dd)
N           -1.45601756046534        1.82704206732487        2.45681824325276
C           -1.48936945647799        2.07915706394701        1.21875963266888
C           -2.71937004480571        1.93362184632497        0.36857390809262
C           -3.51916762244052        0.65165805832006        0.52089053939775
C           -4.24449046681676        0.12990780019916       -0.56643897000714
C           -4.58693050488560       -1.19726445331266       -0.62159387339227
O           -5.25069984454970       -1.77682499349859       -1.66519092549480
C           -5.72825041072330       -0.95708183001838       -2.70608227635525
C           -4.24945089296710       -2.05650529443473        0.44828424632722
O           -4.58591818088311       -3.36476647958739        0.26959301138229
C           -4.42117235007235       -4.24476334528462        1.34851015670930
C           -3.67636594121782       -1.50462104188511        1.57875245701388
C           -3.27497819633334       -0.17869249015334        1.59568667489961
C           -2.34569061697249        2.26533813092121       -1.09231392946824
C           -1.48954471458920        1.17395014319900       -1.76828069338222
C           -0.11132330364960        1.10346648498854       -1.24929050585407
N            0.42557814071413        0.04874081515692       -0.57057731671418
C            1.81735876039664        0.08431495899711       -0.22804925652977
C            2.74201533024471       -0.57176043061707       -1.28940983348985
C            4.18856888285657       -0.46639444520257       -0.88024211716479
C            4.89622699465838        0.69446193450220       -1.11190864031726
C            6.20622317723376        0.81353912256859       -0.68571995181354
C            6.83795351631458       -0.22332925423992       -0.01792283695190
O            8.12081070829165       -0.21433633086858        0.44783899602227
C            8.89709639040670        0.93760700275157        0.24380092187150
C            6.12371300055038       -1.41809147986368        0.22478942920253
O            6.81415730525671       -2.39272354687314        0.87740902074142
C            6.17854268203025       -3.62444370282059        1.11091864725482
C            4.80892137566695       -1.51689054236017       -0.20267655712586
C           -0.30146082427933       -1.16174869628257       -0.33024949767592
C           -3.85922354673981        2.80358507075624        0.82599314733309
C           -4.19219387284873        2.93956235423112        2.26159932052187
C           -2.97398032931772        5.28638937243582        0.44837810235424
H           -4.54658392961701        0.76707412723448       -1.37990662201791
H           -6.41599993125188       -0.18604966064626       -2.36757989642370
H           -6.29333815326038       -1.61619932560398       -3.36320532720428
H           -4.87551957406720       -0.50514709166450       -3.25071563828446
H           -4.99987271028772       -3.94355067006192        2.22003556421362
H           -4.83242147330621       -5.19260740595853        1.00739952625095
H           -3.35608979242060       -4.35070173061688        1.63491227597593
H           -3.44473622758370       -2.12164901993884        2.43014857779496
H           -2.77561720393631        0.20577893606420        2.46736296482176
H           -3.24769865502742        2.43010803379642       -1.68220454146334
H           -1.79048241254786        3.20201306492060       -1.08611043783601
H           -2.00771255149392        0.21819776696643       -1.67439044091244
H           -1.40189092623239        1.42385466229680       -2.83116662680502
H           -0.63500240459344        2.54261727334555        0.70210884485371
H            0.58928339584739        1.90418816950117       -1.43989964739584
H            1.95828549317514       -0.42791620092957        0.72974646312028
H            2.11811786047919        1.12935649932328       -0.10636649449794
H            2.56718828580599       -0.06213235132205       -2.23954741767756
H            2.45788071529450       -1.61759281762691       -1.41409153123459
H            4.44862447014492        1.52573760067610       -1.63009782833754
H            6.71272714746323        1.73712657474392       -0.90010955146285
H            8.46178698860753        1.81224969815297        0.73754806205050
H            9.02857922592936        1.15018019045926       -0.82317580796394
H            9.85206079621401        0.71745274752335        0.69515082346385
H            6.92844924045890       -4.24267765624767        1.60876332029081
H            5.29729392627770       -3.51554833036668        1.75934644342105
H            5.85552233806426       -4.10533200707859        0.17550616770039
H            4.21844669121325       -2.40645514692627       -0.01028529323571
H           -0.66387206695539       -1.65672753514753       -1.22005567170797
H           -1.19597995502479       -0.95087127028600        0.23946066796994
H            0.30360367360566       -1.83693683319268        0.26148924978446
H           -4.68785741312017        2.80404214645899        0.13592963301195
H           -3.38068171162254        2.54894513889428        2.87365903079922
H           -5.08168018221233        2.35310658141278        2.43246787649336
H           -4.46770205274854        3.96649768087712        2.52816732160435
H           -2.19923020870062        5.16906879540820        1.18611434750735
H           -2.58681744515710        5.60299171673827       -0.50021161396335
H           -3.77097449986834        5.91224550003378        0.78855806863648
H           -0.55028806947958        1.95886561240423        2.90232839885294
