25
 energy: -42.134565229028 gnorm: 0.018299582482 xtb: 6.6.1 (8d0f1dd)
C            2.81204143356671        1.21788965036795       -0.04299235674535
N            2.24046746209518       -0.10260543205428       -0.05732852137482
C            2.97910236378162       -1.19939745747555       -0.12708541515332
N            2.19430448231315       -2.27261675239402       -0.12397906831871
C            0.86293979887009       -1.88416828227950       -0.05168238122275
C            0.90343605933399       -0.44094191038719       -0.01082474449902
C           -0.10398584415721        0.64591243094525        0.10477320795191
O            0.27662276503359        1.79964625956223        0.25913680379461
N           -1.39365652638087        0.27332215510528        0.04011856369101
C           -2.50822701163752        2.55759755722949        0.04248196865109
C           -2.52892524846830        1.00850772073420        0.11897838971507
O           -3.60450565762635        0.46900652199477        0.21766953237923
N           -0.03069681927654       -2.81681553786860       -0.02525585477343
C           -1.40843303713644       -2.62253477727452        0.02233329838727
H            2.56811069114311        1.72836735217443        0.88934676562985
H            3.89215783856132        1.14060209955312       -0.14690137664850
H            2.40691846916336        1.81882331850809       -0.85713075518837
H            4.05181249114868       -1.21694909653625       -0.17958131863285
H           -1.54880354389105        2.94678333626630        0.37120324490517
H           -2.68682721333468        2.82312836676988       -0.99775783997577
H           -3.32530716775076        2.92645837677401        0.65450114468421
H           -1.81930790498385       -3.12366210940499        0.90438878974400
H           -1.87207091208127       -3.08276877501765       -0.85642703082261
H           -1.67977289746982       -1.53489483564241        0.04899762165918
H            2.48303744328521       -3.24045163805837       -0.16581104993790
25
 energy: -42.136650772828 gnorm: 0.012400406119 xtb: 6.6.1 (8d0f1dd)
C            2.82425991651189        1.22552307678961       -0.04349518744612
N            2.24820924943023       -0.09201770507753       -0.05751702761585
C            2.97743174627475       -1.19543828853704       -0.12666098869009
N            2.18174434985207       -2.26144235002383       -0.12351387343216
C            0.85361501792574       -1.85734797585974       -0.05236919584351
C            0.91060575515821       -0.42093846717634       -0.01134201958340
C           -0.10134185758860        0.65400445893889        0.10285885102755
O            0.26315603297371        1.81303536552630        0.25687870831953
N           -1.38215824378867        0.25416146456602        0.04123912081860
C           -2.48616207425899        2.50822721851774        0.04267748404183
C           -2.52409441495154        0.97063939362571        0.12115507723859
O           -3.59833976867932        0.42806780787549        0.21740832008288
N           -0.05526616528603       -2.77228052528348       -0.02634624487382
C           -1.43233934584548       -2.59018823309193        0.02265624519049
H            2.57957376900494        1.73600920527556        0.88885991654227
H            3.90406574160939        1.14439137902846       -0.14727715273315
H            2.41902338443827        1.82631824834055       -0.85801185109277
H            4.05008445032445       -1.22206639132733       -0.17876667278276
H           -1.52887464016252        2.90033729854739        0.37616562747105
H           -2.66110802420571        2.78109110451861       -0.99717320115046
H           -3.30549936486730        2.88585161259301        0.64891473486428
H           -1.83492555422322       -3.09848128321702        0.90486319509486
H           -1.89010474384175       -3.05919207117624       -0.85498092292703
H           -1.71197040366181       -1.50760876075048        0.04962750720555
H            2.46084670195864       -3.23241704103071       -0.16467883182715
25
 energy: -42.138133248149 gnorm: 0.009536408672 xtb: 6.6.1 (8d0f1dd)
C            2.84501192424822        1.23507190801970       -0.04376957828684
N            2.26587965115209       -0.08054889799025       -0.05840156956218
C            2.97718232810244       -1.19585505600696       -0.12692944376056
N            2.16306577242251       -2.25037059469286       -0.12432526657082
C            0.84069719169585       -1.82102324880290       -0.05398079658067
C            0.92712336939776       -0.39274407814741       -0.01228738078423
C           -0.08527651981206        0.66864436603094        0.10319565231320
O            0.26548552431406        1.83305525224061        0.24837772793041
N           -1.35587466531435        0.23074412858538        0.04666394802441
C           -2.47383134359235        2.43789824313595        0.04432005128234
C           -2.51486106902238        0.91524410077400        0.12363852175438
O           -3.58092270244167        0.35632965979075        0.21707297880274
N           -0.09430542466531       -2.70617853065033       -0.02862922310836
C           -1.46817549467989       -2.54071809764487        0.02319968554045
H            2.59800769478479        1.74608735779176        0.88797386775052
H            3.92454549073603        1.15356008515098       -0.14640266197116
H            2.43962698560528        1.83607858760129       -0.85848201338436
H            4.04938272431911       -1.23821639204800       -0.17814863838904
H           -1.52241926024334        2.83515447226388        0.38978912808073
H           -2.63140281504797        2.71602195860019       -0.99828731638493
H           -3.30075907971074        2.82756676571105        0.63644991221921
H           -1.86207673030293       -3.05055352131832        0.90917563438807
H           -1.92239611287326       -3.01405403605567       -0.85457906401711
H           -1.74975158348196       -1.45724458490568        0.05029142575037
H            2.42647565851144       -3.22571130584153       -0.16475396313737
25
 energy: -42.138482980285 gnorm: 0.007525179811 xtb: 6.6.1 (8d0f1dd)
C            2.86162715934554        1.23492822467850       -0.04355560080111
N            2.27855696924674       -0.07906563012198       -0.05858554588592
C            2.97884937307455       -1.20099130532342       -0.12734243712916
N            2.15506108151118       -2.24900939113496       -0.12557447560008
C            0.83665582365162       -1.80782877175027       -0.05475403702724
C            0.93752246754492       -0.38041801530974       -0.01344845145328
C           -0.07398119113388        0.67924971655435        0.09941930231742
O            0.27189017892395        1.84495002500350        0.24093364892155
N           -1.34066628771698        0.22638462201514        0.04875144563421
C           -2.48588054206235        2.41191091398505        0.04664861021405
C           -2.51123392768020        0.89238179769474        0.12769823916202
O           -3.56736227978205        0.31322737680888        0.21683162174505
N           -0.10983492945971       -2.67918625151477       -0.03028341858588
C           -1.48104488579372       -2.51683178688904        0.02393538253068
H            2.61413349951169        1.74706330808438        0.88750346394799
H            3.94126512028523        1.15268006473417       -0.14474513341249
H            2.45810162924306        1.83672500831284       -0.85872785759837
H            4.05059446322725       -1.25305074941404       -0.17832790479950
H           -1.54162384073042        2.81683071792433        0.40422007124116
H           -2.62702018026845        2.68576020988442       -0.99982424866866
H           -3.32341553417065        2.79797905825514        0.62586141051769
H           -1.87644968529407       -3.01913516356108        0.91318350179401
H           -1.94060390551216       -2.98278865379341       -0.85460176148915
H           -1.75539183317874       -1.42744893576217        0.05223781586341
H            2.41068277131899       -3.22607784776887       -0.16628202353921
