25
 energy: 0.000000000000 xtb: 6.6.1 (8d0f1dd)
C            3.23720132972391        1.16630909158653        0.08434468864950
N            2.29877796055224        0.07527476373246        0.03981602671198
C            2.58028186251803       -1.21425391179017        0.03006175752192
N            1.43813944744728       -1.93419254010258        0.00098261751768
C            0.39035684826767       -1.05887462812143       -0.00790371763344
C            0.93510047688824        0.21347817468824        0.01709077332874
C            0.09450143016486        1.40504290868848       -0.00410946993748
O            0.49712746915594        2.54126690785742       -0.00342325656480
N           -1.25076628431515        1.06271869620815       -0.03085477937476
C           -2.21907191394203        2.15522079838987       -0.05001256521996
C           -1.81739470187490       -0.20012724136556       -0.04692818139228
O           -2.99983858926755       -0.37846413507442       -0.07008877579474
N           -0.92618577614240       -1.30210203518959       -0.03682761236648
C           -1.46982251276835       -2.64643077634382       -0.06029819901142
H            3.71247229913541        1.21471443890471        1.06488839270555
H            4.00791460421487        1.03430799217987       -0.67357688121503
H            2.69909982127087        2.09770098766290       -0.09130154035862
H            3.56654087521359       -1.63682977417947        0.04233139674524
H           -1.67107945562430        3.09322822573871       -0.02552706696334
H           -2.82428927394145        2.09428605349656       -0.95318074103337
H           -2.87644002486466        2.07745706351925        0.81450059976605
H           -1.17061985538665       -3.19584861009707        0.83242224714061
H           -1.14560246782873       -3.17511580834413       -0.95688266944647
H           -2.55549768731684       -2.55659960601237       -0.07459039105944
H            1.38130842369251       -2.94313824728853       -0.01389874052104
25
 energy: -6.137802257893 xtb: 6.6.1 (8d0f1dd)
C            3.23500434309909        1.22310242832921        0.09262355682913
N            2.32984562580441        0.10331372112266        0.03430319313451
C            2.61287922479031       -1.25585506000357        0.03113694805827
N            1.42141420368107       -1.95343628526603       -0.00133731493518
C            0.40385345290301       -1.07452515276136       -0.01308150310432
C            0.93640326382543        0.20757013161312        0.00836909525667
C            0.12989066541175        1.36439040930202       -0.00910303356946
O            0.51525305265835        2.53690172821094       -0.01353712357677
N           -1.25747597066672        1.03720416658774       -0.03063591444489
C           -2.19739645116185        2.14347755203176       -0.04628415559391
C           -1.81592689803547       -0.20416086525152       -0.04739824558414
O           -3.01642379268609       -0.38460973439193       -0.06918936031970
N           -0.94009842059730       -1.30853875264440       -0.03918388921887
C           -1.49031271988086       -2.64403378535641       -0.06074349698230
H            3.72223062420262        1.30291233901829        1.07027523955225
H            4.01499037811439        1.12504829764184       -0.66860972842649
H            2.65882150558315        2.13146180091195       -0.08136738669363
H            3.58045843187920       -1.69040559892584        0.04153012916313
H           -1.62900881728751        3.06976328916916       -0.02856633399822
H           -2.79707007094813        2.09355927011778       -0.94982818510134
H           -2.83992527098177        2.08668642702092        0.82851581292048
H           -1.19500922466145       -3.20151793284816        0.83126643978657
H           -1.17299521150699       -3.18212078505510       -0.95712714080173
H           -2.57506568485041       -2.54015562445559       -0.07367727818429
H            1.34878411173459       -2.95731113707624       -0.01379872807061
25
 energy: -4.357777248019 xtb: 6.6.1 (8d0f1dd)
C            3.22029485285821        1.27070191906816        0.09840372877714
N            2.35793236461431        0.09548561984704        0.03558636402296
C            2.62624293907735       -1.27948824401437        0.03176380745063
N            1.42451187717340       -1.97378576797082       -0.00444849854068
C            0.41026274715644       -1.09213107897266       -0.01641075710100
C            0.95551713353080        0.18545579059149        0.00535968691528
C            0.14438167424245        1.33728765297443       -0.01327970873338
O            0.53136373496760        2.50796731270056       -0.02667157722608
N           -1.24662412177589        1.02075087244115       -0.02984591684535
C           -2.17261091382080        2.13708562008878       -0.04252015873644
C           -1.81454717785717       -0.21530380839673       -0.04727711334178
O           -3.01729477377994       -0.38818648797758       -0.06844714008381
N           -0.94003278975422       -1.32006404230003       -0.04133600619398
C           -1.51020840780875       -2.64749211022657       -0.06135269197744
H            3.71544082163825        1.38784289060123        1.07081144989670
H            4.00972698777000        1.21268026461680       -0.66250894411604
H            2.60567572350128        2.15238959861892       -0.07468430174991
H            3.58380384278617       -1.73612082533831        0.04086125332077
H           -1.58997982621483        3.05332123820010       -0.03306828958451
H           -2.76938525924250        2.09225400679583       -0.94308109981667
H           -2.80090369303971        2.09844755359728        0.84056919809245
H           -1.22456108303063       -3.21011918863760        0.83034959808492
H           -1.20413292348221       -3.19111898827004       -0.95792142253931
H           -2.59391701540277       -2.52568940637016       -0.07340133850538
H            1.32749432162335       -2.97636246700780       -0.01563059253161
25
 energy: -1.144299609096 xtb: 6.6.1 (8d0f1dd)
C            3.20628493030103        1.31857737314407        0.10455398111268
N            2.38699430896254        0.08686934277310        0.04008802723227
C            2.64167230418255       -1.30372752535989        0.03584799989686
N            1.43286480884395       -1.99714599765769       -0.00708103464220
C            0.42044917692671       -1.11204024095554       -0.01828418671464
C            0.97609928830537        0.16306071474152        0.00457863697864
C            0.15966478771478        1.31006821205084       -0.01897401968307
O            0.54393314157492        2.48025029757204       -0.04526338219748
N           -1.23428776044622        1.00385907087704       -0.02982660312332
C           -2.14677570586101        2.13049363680637       -0.03768370445748
C           -1.80817616706828       -0.22767210250176       -0.04700093420752
O           -3.01187454162051       -0.39721865880066       -0.06593750077293
N           -0.93543758305481       -1.33412688213839       -0.04355450440855
C           -1.52878369275886       -2.65215339153415       -0.06198315103664
H            3.70109180798151        1.47184362945698        1.07233818808548
H            3.99974721992245        1.30089094820963       -0.65760753538439
H            2.55013181694059        2.16793725159195       -0.06822207206197
H            3.58836659938178       -1.78135131333251        0.03944506340487
H           -1.55015721194618        3.03711711101640       -0.03913893608204
H           -2.74486420312958        2.08515103261500       -0.93169542647613
H           -2.75858102798838        2.10783592999615        0.85475044445279
H           -1.25367318038523       -3.21980683499394        0.82952322001823
H           -1.23540926434988       -3.20131376192934       -0.95894704694002
H           -2.61107693821197       -2.51080267320530       -0.07265872332692
H            1.31576395753687       -3.00021881916416       -0.02141681194425
25
 energy: 3.279937763584 xtb: 6.6.1 (8d0f1dd)
C            3.19201825343656        1.36625733228956        0.11253480903480
N            2.40903869947962        0.07666966503029        0.05073498826370
C            2.65380358536943       -1.32691352249782        0.05275960766122
N            1.44249053493156       -2.02072893519307       -0.00620340763851
C            0.42965879198700       -1.13320567229720       -0.02021496804202
C            0.99316937051900        0.14093049155900        0.00487920620023
C            0.17416127470463        1.28461122141235       -0.02693134545000
O            0.55464020897003        2.45447272657998       -0.06727873796892
N           -1.22144735092713        0.98895603838604       -0.03145692911467
C           -2.11964573480812        2.12661935455591       -0.03170257916807
C           -1.80036482342551       -0.23832533915802       -0.04775670653345
O           -3.00457033324747       -0.40276486327242       -0.06203890204695
N           -0.93093926999378       -1.34873827143158       -0.04727707173441
C           -1.54503160723742       -2.65844872341365       -0.06297002758436
H            3.68594978434320        1.55733481594878        1.07391203283059
H            3.98826580320850        1.38656505643903       -0.64994462284926
H            2.49494064639725        2.18000932029998       -0.06138520060518
H            3.58992068385489       -1.82443441096729        0.03154044583764
H           -1.50786898465563        3.02275619414085       -0.04558243348859
H           -2.72466792028482        2.08070063517076       -0.91450661406457
H           -2.71292396750999        2.11819579292700        0.87065816811662
H           -1.27688846395767       -3.22970945727539        0.82808587500669
H           -1.26320842023968       -3.21299875206498       -0.95999097874843
H           -2.62588947303700       -2.50138733923858       -0.07085186277863
H            1.31636894272503       -3.02608373022872       -0.02673765752668
25
 energy: 8.213126035250 xtb: 6.6.1 (8d0f1dd)
C            3.18996554357528        1.41020493896926        0.12492955499837
N            2.42103812431029        0.06797776648841        0.04105295112820
C            2.65929948526445       -1.33904816412200        0.09073126963261
N            1.45243247202566       -2.03921240896372        0.00091205741321
C            0.43657400715061       -1.15376641528572       -0.02584752416157
C            1.00540133713737        0.12119089746323       -0.00101469486492
C            0.18840632483428        1.26358058210131       -0.03643923937725
O            0.56865912251827        2.43389755927814       -0.09535283900752
N           -1.20894286281398        0.97634049155096       -0.03302771768255
C           -2.09766841853102        2.12163394897644       -0.02703649557695
C           -1.79185923681106       -0.24721691335682       -0.04682179853500
O           -2.99675732227205       -0.40443294759166       -0.05622752453718
N           -0.92729612696493       -1.36288573298906       -0.05111178608035
C           -1.56348041700534       -2.66298498877179       -0.06324432990873
H            3.67230006489753        1.64076408680509        1.08052412513277
H            3.98291873259029        1.47308055101915       -0.63918705800824
H            2.44988183167502        2.18906839853405       -0.05182396141295
H            3.58439320359362       -1.86102991136258        0.02388268295125
H           -1.47233133529661        3.00808636812047       -0.05642518413988
H           -2.73232746215875        2.06985433082491       -0.88655061037113
H           -2.66918252855683        2.12852182020569        0.88775623111276
H           -1.30333607258430       -3.23757687132184        0.82776213466458
H           -1.29285361840959       -3.22222299628800       -0.96034436402626
H           -2.64241066131659       -2.48817694808859       -0.06909914779435
H            1.33757536005209       -3.04770546800831       -0.02484800578947
25
 energy: 15.112392636753 xtb: 6.6.1 (8d0f1dd)
C            3.19666583823205        1.45930294394184        0.13933006592275
N            2.43240374595001        0.05257441685951        0.02606318878030
C            2.65899412871295       -1.36143153816034        0.13053632142525
N            1.44879829550448       -2.05823921301872        0.01784378453290
C            0.43753930245831       -1.17134211364044       -0.02776511058600
C            1.01685436178720        0.10290586567043       -0.00663347504659
C            0.20300016520690        1.24669161891073       -0.05161468400990
O            0.57997422633302        2.41819768710238       -0.13291192821886
N           -1.19617681272125        0.96523891985065       -0.03835426152084
C           -2.07920885071723        2.11551510939359       -0.02515841096707
C           -1.78363491838883       -0.25491954307861       -0.04770944145352
O           -2.98924433025626       -0.40232293199919       -0.04997518864780
N           -0.92642646895370       -1.37614415770929       -0.05475127618067
C           -1.58285422575480       -2.66707739516052       -0.06335810719864
H            3.66030956693500        1.72367823321724        1.08980581683079
H            3.97629923985189        1.55030377925205       -0.62942234618189
H            2.41406978363009        2.20347126319781       -0.04153364194989
H            3.57435386282423       -1.90011426235603        0.01461188479715
H           -1.44025575163871        2.99226340328994       -0.07153907753132
H           -2.75012348119536        2.05727482674312       -0.85760588708606
H           -2.62175006768357        2.13640733148317        0.90577885822687
H           -1.33100655475328       -3.24571764326808        0.82724703555908
H           -1.32671671558099       -3.23254879803126       -0.96075536655321
H           -2.65855043700888       -2.47190579987997       -0.06534467283862
H            1.35454995653508       -3.06785697568614       -0.01288428066972
25
 energy: 26.053056651110 xtb: 6.6.1 (8d0f1dd)
C            3.20639522886020        1.52622701170921        0.15335248972791
N            2.43397163305074        0.02541465167613       -0.00764419828933
C            2.64888693302415       -1.39048213530472        0.14876711260318
N            1.43519015161083       -2.08402698816686        0.03338887599340
C            0.43144852030863       -1.19162395962061       -0.02789265058076
C            1.01980107645205        0.08057800439556       -0.02100338789754
C            0.21041179968802        1.22632471803882       -0.06236492930998
O            0.58470348693317        2.39788750000828       -0.16667505543192
N           -1.18719191649740        0.95454484670414       -0.03733743489902
C           -2.06010227621814        2.11327924351855       -0.02264672262422
C           -1.77945770999222       -0.26291153455511       -0.04569145932814
O           -2.98650786240923       -0.39480311979372       -0.04844048507240
N           -0.93130603515829       -1.39005076994739       -0.05376747051478
C           -1.60361347531000       -2.67158993903576       -0.06407207538735
H            3.63754903971875        1.81889234984342        1.10056871632109
H            3.96502187363028        1.63916445078504       -0.62424501431742
H            2.36467367122840        2.19761453767637       -0.03314224741618
H            3.55859369729889       -1.94235910994157        0.01512957389405
H           -1.40225642830480        2.97672413308675       -0.08465210721295
H           -2.76136753109814        2.04949678415833       -0.82925691830391
H           -2.57462668132266        2.15350482261310        0.92272468332930
H           -1.36133758678689       -3.25533779131551        0.82606601512934
H           -1.35493649322707       -3.23890325928290       -0.96259105142194
H           -2.67481821055780       -2.45566115398560       -0.06691857971208
H            1.33652382501629       -3.09369244040027        0.01705222892104
25
 energy: 39.554648807916 xtb: 6.6.1 (8d0f1dd)
C            3.32520300066479        1.80483253800128        0.19863354216091
N            2.38770861957391       -0.15103447738402       -0.05420479324357
C            2.58116702797203       -1.45096538372006        0.09772077795116
N            1.38870899092366       -2.14583285941404        0.06007459681350
C            0.39806820293348       -1.22803474140748       -0.02446005624541
C            1.01909725273090        0.02093748980603       -0.04668994047843
C            0.21630438807380        1.20645802385433       -0.10240605322138
O            0.58668132151929        2.35873587378361       -0.22040801804099
N           -1.17297019267377        0.94180570195497       -0.04741077374182
C           -2.04532609506893        2.10559805414788       -0.01779287956387
C           -1.78234557690318       -0.27458166143144       -0.04729149020022
O           -2.98944133280600       -0.38540540193476       -0.03873786025112
N           -0.95376098524153       -1.40800352757638       -0.05538784308262
C           -1.63332110092560       -2.68149211855743       -0.06419800274614
H            3.67841585273614        1.95862108265366        1.17125597870030
H            3.99982139126192        1.75873055330983       -0.62104266139737
H            2.38665538268326        2.27044196431084       -0.00159261283795
H            3.51572880381294       -1.98166802343383        0.01504086378879
H           -1.38080675049806        2.96280765538995       -0.10416994320654
H           -2.78670678749468        2.03490116115013       -0.79125159657546
H           -2.52598703369612        2.16010286776481        0.94581307635681
H           -1.38868431588155       -3.26359142582965        0.82519807946960
H           -1.38854509105984       -3.24772968421579       -0.96377126857618
H           -2.69957566626336       -2.44826684291936       -0.06333690850658
H            1.29408420134075       -3.14744181035214        0.04000814447497
25
 energy: 38.780091153093 xtb: 6.6.1 (8d0f1dd)
C            3.36412257278792        1.88791503978653        0.22350947816225
N            2.37576665187685       -0.18657903464700       -0.05787087253039
C            2.56096510564719       -1.47803583259249        0.07638649398252
N            1.37003625167637       -2.17333411257752        0.05996641896924
C            0.38543333456916       -1.24788092250014       -0.03027354914774
C            1.01362337252055       -0.00286112573973       -0.06359627670783
C            0.21740657495474        1.19061449147076       -0.12938157077306
O            0.59706851444089        2.33484217298231       -0.26244072582024
N           -1.16675270654496        0.93247901668020       -0.05207441774090
C           -2.03070966621916        2.10279816830564       -0.01275339921350
C           -1.78382759120395       -0.28246683533293       -0.04680557264541
O           -2.99220342879103       -0.38328483156210       -0.02782019140644
N           -0.96582025943056       -1.41940504077721       -0.06143042726207
C           -1.65627211303511       -2.68690393491330       -0.06573203227393
H            3.73331234941171        2.03497686696533        1.19137055943973
H            3.99110265259316        1.84315044129618       -0.62246829682960
H            2.40785007252664        2.31035440864683        0.03119050022406
H            3.51178904311867       -1.97830228943937       -0.01657687516612
H           -1.35260265912686        2.94887478345483       -0.12323479423787
H           -2.80358023402167        2.02601212273750       -0.75690697394756
H           -2.48058022900655        2.17381623288689        0.96712716602031
H           -1.41648531061235       -3.27053090540550        0.82392866601792
H           -1.42043628311217       -3.25622411845521       -0.96526740796192
H           -2.71832362528308       -2.43519924884776       -0.06156334230066
H            1.27487452273041       -3.17476699030576        0.05887737945397
25
 energy: 37.889052859942 xtb: 6.6.1 (8d0f1dd)
C            3.41046985390284        1.96249412032112        0.24664518116330
N            2.36585675389055       -0.21904153957513       -0.06593102503806
C            2.54467474027586       -1.50475234480849        0.04566310642619
N            1.35184078384066       -2.19987697265406        0.05399010553888
C            0.37213635959085       -1.26812466423512       -0.03561874397250
C            1.00709407766102       -0.02732848491356       -0.07791233252743
C            0.21927261883449        1.17241097338370       -0.15431406931122
O            0.61195320943535        2.30862984962371       -0.29997752336696
N           -1.16134226233256        0.92352508059753       -0.05609005847731
C           -2.01523351915706        2.10130722357771       -0.00712976507589
C           -1.78741614138382       -0.28921242647908       -0.04574519020047
O           -2.99681421818551       -0.38133413335010       -0.01673076319582
N           -0.97928317599878       -1.42981855276796       -0.06826254660731
C           -1.67933056534993       -2.69274242861571       -0.06793078960482
H            3.78543392647784        2.11359869591362        1.21237539604022
H            4.02327216533820        1.92485054344981       -0.60576287778195
H            2.43857130104211        2.34369990358645        0.05414818255514
H            3.49862142616238       -2.00427569724161       -0.05473533825168
H           -1.32542835103073        2.93680416063720       -0.14657506907515
H           -2.81794820377710        2.01859296321359       -0.72052379406891
H           -2.43449704192800        2.18865929176094        0.98855092693509
H           -1.44411292775749       -3.27806550924841        0.82189123962188
H           -1.45224526624255       -3.26477274757011       -0.96738419516499
H           -2.73763444176262       -2.42426549291879       -0.06028483244562
H            1.25741554323378       -3.20187220085449        0.07471253137436
25
 energy: 36.871937310242 xtb: 6.6.1 (8d0f1dd)
C            3.45993398975200        2.03470529505415        0.26761666504857
N            2.35434949723342       -0.24856199155416       -0.07520824286178
C            2.52754833445743       -1.53025828674938        0.00588058327296
N            1.33313445293906       -2.22629289188104        0.04330971350757
C            0.35771140980396       -1.28880812401820       -0.04097493008213
C            0.99837551196120       -0.05209782502330       -0.08808777657052
C            0.21889977676496        1.15181793335249       -0.17375063946011
O            0.62862501297693        2.27972334639166       -0.32677288385824
N           -1.15804144238088        0.91491249918745       -0.06025452064833
C           -2.00178575481670        2.09945959144535       -0.00381916943366
C           -1.79491586422897       -0.29353038346933       -0.04654458800312
O           -3.00444617419653       -0.37810774934801       -0.00708612639065
N           -0.99468296544276       -1.43924541938127       -0.07406847822658
C           -1.70247531503072       -2.69832205630536       -0.07148767201220
H            3.83631134489274        2.18858635410916        1.23468595654464
H            4.07492913077861        1.99868432744755       -0.58102678899073
H            2.47416884011409        2.37470355751041        0.07242198021558
H            3.48354314229789       -2.02587393012921       -0.09806584827669
H           -1.31121458584155        2.92800803215772       -0.18178138604437
H           -2.83439682535633        2.00584643287497       -0.68190474424489
H           -2.38776074469152        2.20466014478422        1.00618537074445
H           -1.47107439181784       -3.28551246069142        0.81875398184303
H           -1.48362597709812       -3.27290222268647       -0.97042057303857
H           -2.75805642529479       -2.41638997799889       -0.05954013957742
H            1.23746456586875       -3.22902132180421        0.08069364586631
25
 energy: 35.914118448156 xtb: 6.6.1 (8d0f1dd)
C            3.50850025702054        2.10837467753738        0.28095950080091
N            2.34185945495885       -0.27725552919966       -0.07715831977567
C            2.50826823909036       -1.55576412269572       -0.02632728190164
N            1.31309037469929       -2.25195624677526        0.03256858304258
C            0.34176203294101       -1.30883761267374       -0.04438893354625
C            0.98861848481413       -0.07698901187905       -0.09308545382161
C            0.21555284008267        1.12981824584585       -0.18480062511190
O            0.64153132020759        2.25136558336769       -0.33456205058018
N           -1.15624449073696        0.90590649629633       -0.06531572371299
C           -1.98827530839177        2.09767414231538       -0.00902005159395
C           -1.80408104221776       -0.29690865755656       -0.04909789185429
O           -3.01381802861324       -0.37084261207986       -0.00334710174549
N           -1.01179625355970       -1.44771368844623       -0.07818056116050
C           -1.72614606731786       -2.70207729805950       -0.07677196668304
H            3.88586039066560        2.26671291753790        1.24976500205797
H            4.12705201671824        2.07462064294505       -0.56227272771423
H            2.50935090711102        2.40353938625998        0.08685323289431
H            3.46043374839440       -2.05325572271662       -0.12400832463612
H           -1.30549574907985        2.92144935444567       -0.21785532095998
H           -2.82181769257487        2.00794799522132       -0.68735087197706
H           -2.34664362785035        2.21950021207034        1.00977052193123
H           -1.49932940812946       -3.29326926095320        0.81373605079112
H           -1.51335464534744       -3.28009088943639       -0.97424745156518
H           -2.78019513646138       -2.41294268469861       -0.06093232834469
H            1.21520114492929       -3.25504188367243        0.07939256395228
25
 energy: 35.332316315241 xtb: 6.6.1 (8d0f1dd)
C            3.55747773000804        2.18283982676173        0.29085965001628
N            2.32903611545542       -0.30556301047373       -0.06646403083986
C            2.48818984831420       -1.58114944741574       -0.03793892177295
N            1.29186568987727       -2.27636355714232        0.01668843577579
C            0.32405697731032       -1.32736002540097       -0.04907060378714
C            0.97873069722956       -0.10053258715750       -0.09399419820695
C            0.21122181651959        1.10768209124275       -0.18706634287055
O            0.64493731383205        2.23191762607382       -0.29074485981543
N           -1.16004736500176        0.89606332237111       -0.07741888426225
C           -1.97528411672951        2.09666804756880       -0.01624346555927
C           -1.81513544652895       -0.30100705128901       -0.05338146036814
O           -3.02460074192357       -0.36508992844257       -0.00139291465114
N           -1.02975482633328       -1.45677080060666       -0.08259511045749
C           -1.74929220519794       -2.70691968009251       -0.08293018080921
H            3.93044049828975        2.35047963139846        1.26202868256851
H            4.18227582492163        2.15118435071577       -0.54520072639979
H            2.54922373439606        2.42835524566491        0.08612141526875
H            3.43693719976326       -2.07930986053998       -0.11476711621928
H           -1.29923451894912        2.91388268538873       -0.25542372706480
H           -2.80486333305965        2.01338210130070       -0.69970727441421
H           -2.30040634399513        2.23766279146080        1.01200976660005
H           -1.52435463814538       -3.30279055914778        0.80673414202535
H           -1.54403548785644       -3.28636310284642       -0.98054778821751
H           -2.80299966799278       -2.41578219093231       -0.06044561058085
H            1.19027252864262       -3.27933332782246        0.05793658075698
25
 energy: 34.353209337822 xtb: 6.6.1 (8d0f1dd)
C            3.60146373166846        2.25634744900695        0.29546366751761
N            2.31765787849537       -0.33882849530696       -0.04952456591447
C            2.46761824033708       -1.61438013041488       -0.03180280399230
N            1.26940403026448       -2.30288345644984        0.00945606296947
C            0.30746781036227       -1.34532002167674       -0.04838455549381
C            0.97114726609175       -0.12369084017732       -0.08534298255313
C            0.21577328879101        1.09360068918287       -0.16872055983736
O            0.65558361469737        2.21292310003522       -0.27078057018485
N           -1.16219457230976        0.88911149951972       -0.07736142482631
C           -1.97459234155414        2.08996241942469       -0.02536181887120
C           -1.82173278822090       -0.30552447311069       -0.05530434909093
O           -3.03131880698035       -0.36040846154409       -0.01394973570430
N           -1.04596397609535       -1.46602916690606       -0.08414794717058
C           -1.77088039346139       -2.71208208656458       -0.09156262776567
H            3.96918628201798        2.43975222228559        1.26554913394113
H            4.22988796007167        2.23229364441003       -0.53621561775695
H            2.58536115874186        2.45922133241358        0.08724072580914
H            3.41843208984188       -2.10093175310400       -0.06779415183637
H           -1.31024148392429        2.90574914270179       -0.28683214368819
H           -2.81012846022511        1.99599284930891       -0.70317989104187
H           -2.31781158025387        2.23770531974882        0.99417127014900
H           -1.54189963742454       -3.31774966572707        0.79076755927467
H           -1.57262465041524       -3.28501589828929       -0.99551007321934
H           -2.82443537613609       -2.42096455085753       -0.05858773611572
H            1.16608437371533       -3.30609550436540        0.05532475205656
25