25
 energy: 66.080800103497 xtb: 6.6.1 (8d0f1dd)
C            3.71161959019907        0.88207794179449        0.17107371765524
N            2.64187128291777       -0.05207499032464        0.01364506406745
C            2.88652085541421       -1.39550353759388       -0.07072761799481
N            1.71572178177116       -2.07492490428600       -0.07160756712895
C            0.64670561081825       -1.18343027400690       -0.03657381816705
C            1.24728303172902        0.13729312826813        0.07400321464769
C            0.59309815246963        1.29685569314908       -0.02328361007175
O            0.38405434235423        2.42688736491207        0.27029369208993
N           -2.61861793094878        1.31617370699013       -0.23325648198664
C           -3.09598714823711        2.63830937507107       -0.24064257275546
C           -3.01625896225809        0.30411497087041        0.24452668807368
O           -3.39212996730592       -0.74292177211774        0.56066779458786
N           -0.60772414002416       -1.38418693594040       -0.02942054084191
C           -1.11023959807858       -2.71198046352379       -0.08350375808350
H            3.75497765687455        1.34654692119450        1.16056577592495
H            4.61843127180958        0.29693346367578        0.01232547680964
H            3.71693425180178        1.70069736630717       -0.55015654077565
H            3.84827618500586       -1.84614049464738       -0.14099922775310
H           -2.24041180713744        3.31310911220355       -0.13216482340469
H           -3.60328063043962        2.83024287059295       -1.18854115965244
H           -3.80764661595698        2.79193497977536        0.57302025908430
H           -0.43721615993317       -3.39669519416207        0.41079237341948
H           -1.24052864682371       -3.05335933972576       -1.11443838161196
H           -2.05890526182402       -2.73810395437528        0.43689853331042
H            1.64901153711134       -3.06804759359689       -0.19989298456847
