25
 energy: 64.587947927973 xtb: 6.6.1 (8d0f1dd)
C            3.72795860199660        0.87886029462557        0.18146998945606
N            2.66706001009640       -0.06440921166301        0.01042880068599
C            2.91877419959223       -1.40849605314394       -0.06041912877535
N            1.74563609341619       -2.08395700004932       -0.07579112113124
C            0.66951183280480       -1.20437446609553       -0.03258590830384
C            1.26952137218746        0.12509021283012        0.07573037375922
C            0.63178915797740        1.29475372700838        0.00441412091820
O            0.34529694598557        2.41666801970608        0.27188019875394
N           -2.71088022559131        1.34632651222253       -0.24353289776635
C           -3.13567688666429        2.68482349306577       -0.24050242202008
C           -3.09931221370657        0.33359020766205        0.23759748339415
O           -3.44740411809038       -0.72502844687648        0.54731643076590
N           -0.58211086191899       -1.41071147727176       -0.02816005281933
C           -1.10379624373543       -2.73359041020460       -0.08706695727227
H            3.75166154080334        1.34451624103597        1.17205088882226
H            4.63896755125820        0.31562077645161        0.07011866080707
H            3.76478340264130        1.66278937597154       -0.57447640026902
H            3.88470631111480       -1.85009540896466       -0.13497616778825
H           -2.26554997197253        3.32690622197228       -0.12760509081313
H           -3.62291314196375        2.90321859892910       -1.19017847268094
H           -3.83364913087086        2.86717649805860        0.57816061475039
H           -0.44588928512053       -3.44173666891250        0.41253877626319
H           -1.21691314116066       -3.06646154656990       -1.12457116889547
H           -2.07193225333220       -2.71951490818198        0.40208164380392
H            1.68310211369403       -3.07863426936244       -0.19825860255822
