25
 energy: -42.062216093765 gnorm: 0.002539533133 xtb: 6.6.1 (8d0f1dd)
C            3.15106538335774        1.58960738477795        0.39970310192997
N            2.36577004182650        0.44403675179883        0.24023257014378
C            1.75275129937202       -3.17680301745590       -0.17697685772624
N            1.61896285802739       -1.93103629667376       -0.01189301660838
C            0.58134561956015       -0.98926296233389       -0.00632687780493
C            1.08310034841484        0.33720748397119        0.13357351893103
C            0.10431702632537        1.46716634829502        0.12545477457893
O            0.43349863537056        2.61660832865542        0.26899932965820
N           -1.20163928148529        1.08286949204411       -0.07997827542224
C           -2.21724567602133        2.13087072112385       -0.15967793527630
C           -1.68644293240107       -0.19974093280834       -0.17051044136511
O           -2.84854791004489       -0.45504844180709       -0.29361343869939
N           -0.72553361169540       -1.25424015679808       -0.11015831284174
C           -1.26169972862997       -2.59789567636657       -0.16478840862996
H            3.70714956100285        1.49275339829683        1.33809897244294
H            3.90286251637536        1.59897578813195       -0.39619833512154
H            2.58306929594665        2.52417504354816        0.39872913604410
H            0.98570149314647       -3.90962124459851       -0.36159311564008
H           -1.71345777343803        3.09122439672793       -0.23318424091116
H           -2.84220441452299        1.95818304783498       -1.03404531018766
H           -2.84574704695606        2.10849690074040        0.72994182694228
H           -0.89183972626780       -3.18717465920462        0.67414125475547
H           -1.00765485153925       -3.07355948466197       -1.11295240184462
H           -2.34817008849720       -2.52402115340448       -0.09929134374672
H            2.48102047687517       -1.32553251822994        0.13348544429836
