      -----------------------------------------------------------      
     |                   =====================                   |     
     |                           x T B                           |     
     |                   =====================                   |     
     |                         S. Grimme                         |     
     |          Mulliken Center for Theoretical Chemistry        |     
     |                    University of Bonn                     |     
      -----------------------------------------------------------      

   * xtb version 6.6.1 (8d0f1dd) compiled by 'conda@1efc2f54142f' on 2023-08-01

   xtb is free software: you can redistribute it and/or modify it under
   the terms of the GNU Lesser General Public License as published by
   the Free Software Foundation, either version 3 of the License, or
   (at your option) any later version.
   
   xtb is distributed in the hope that it will be useful,
   but WITHOUT ANY WARRANTY; without even the implied warranty of
   MERCHANTABILITY or FITNESS FOR A PARTICULAR PURPOSE.  See the
   GNU Lesser General Public License for more details.
   
   Cite this work as:
   * C. Bannwarth, E. Caldeweyher, S. Ehlert, A. Hansen, P. Pracht,
     J. Seibert, S. Spicher, S. Grimme, WIREs Comput. Mol. Sci., 2020, 11,
     e01493. DOI: 10.1002/wcms.1493
   
   for GFN2-xTB:
   * C. Bannwarth, S. Ehlert and S. Grimme., J. Chem. Theory Comput., 2019,
     15, 1652-1671. DOI: 10.1021/acs.jctc.8b01176
   for GFN1-xTB:
   * S. Grimme, C. Bannwarth, P. Shushkov, J. Chem. Theory Comput., 2017,
     13, 1989-2009. DOI: 10.1021/acs.jctc.7b00118
   for GFN0-xTB:
   * P. Pracht, E. Caldeweyher, S. Ehlert, S. Grimme, ChemRxiv, 2019, preprint.
     DOI: 10.26434/chemrxiv.8326202.v1
   for GFN-FF:
   * S. Spicher and S. Grimme, Angew. Chem. Int. Ed., 2020, 59, 15665-15673.
     DOI: 10.1002/anie.202004239
   
   for ALPB and GBSA implicit solvation:
   * S. Ehlert, M. Stahn, S. Spicher, S. Grimme, J. Chem. Theory Comput.,
     2021, 17, 4250-4261. DOI: 10.1021/acs.jctc.1c00471
   
   for DFT-D4:
   * E. Caldeweyher, C. Bannwarth and S. Grimme, J. Chem. Phys., 2017,
     147, 034112. DOI: 10.1063/1.4993215
   * E. Caldeweyher, S. Ehlert, A. Hansen, H. Neugebauer, S. Spicher,
     C. Bannwarth and S. Grimme, J. Chem. Phys., 2019, 150, 154122.
     DOI: 10.1063/1.5090222
   * E. Caldeweyher, J.-M. Mewes, S. Ehlert and S. Grimme, Phys. Chem. Chem. Phys.
     2020, 22, 8499-8512. DOI: 10.1039/D0CP00502A
   
   for sTDA-xTB:
   * S. Grimme and C. Bannwarth, J. Chem. Phys., 2016, 145, 054103.
     DOI: 10.1063/1.4959605
   
   in the mass-spec context:
   * V. Asgeirsson, C. Bauer and S. Grimme, Chem. Sci., 2017, 8, 4879.
     DOI: 10.1039/c7sc00601b
   * J. Koopman and S. Grimme, ACS Omega 2019, 4, 12, 15120-15133.
     DOI: 10.1021/acsomega.9b02011
   
   for metadynamics refer to:
   * S. Grimme, J. Chem. Theory Comput., 2019, 155, 2847-2862
     DOI: 10.1021/acs.jctc.9b00143
   
   for SPH calculations refer to:
   * S. Spicher and S. Grimme, J. Chem. Theory Comput., 2021, 17, 1701-1714
     DOI: 10.1021/acs.jctc.0c01306
   
   with help from (in alphabetical order)
   P. Atkinson, C. Bannwarth, F. Bohle, G. Brandenburg, E. Caldeweyher
   M. Checinski, S. Dohm, S. Ehlert, S. Ehrlich, I. Gerasimov, C. Hölzer
   A. Katbashev, J. Koopman, C. Lavigne, S. Lehtola, F. März, M. Müller,
   F. Musil, H. Neugebauer, J. Pisarek, C. Plett, P. Pracht, F. Pultar,
   J. Seibert, P. Shushkov, S. Spicher, M. Stahn, M. Steiner, T. Strunk,
   J. Stückrath, T. Rose, and J. Unsleber
   
 * started run on 2024/04/06 at 11:15:18.985     

           -------------------------------------------------
          |                Calculation Setup                |
           -------------------------------------------------

          program call               : xtb struc.xyz --opt loose --input .xc1 --gfn2
          hostname                   : n-62-30-23
          coordinate file            : struc.xyz
          omp threads                :                     1

   ID    Z sym.   atoms
    1    7 N      1, 17
    2    6 C      2-6, 8, 9, 11-16, 18-23, 25, 26, 28-33
    3    8 O      7, 10, 24, 27
    4    1 H      34-72
constraining bond 1 65 to    4.6866700 Å, actual value:    3.9800742 Å

           -------------------------------------------------
          |                 G F N 2 - x T B                 |
           -------------------------------------------------

        Reference                      10.1021/acs.jctc.8b01176
      * Hamiltonian:
        H0-scaling (s, p, d)           1.850000    2.230000    2.230000
        zeta-weighting                 0.500000
      * Dispersion:
        s8                             2.700000
        a1                             0.520000
        a2                             5.000000
        s9                             5.000000
      * Repulsion:
        kExp                           1.500000    1.000000
        rExp                           1.000000
      * Coulomb:
        alpha                          2.000000
        third order                    shell-resolved
        anisotropic                    true
        a3                             3.000000
        a5                             4.000000
        cn-shift                       1.200000
        cn-exp                         4.000000
        max-rad                        5.000000


          ...................................................
          :                      SETUP                      :
          :.................................................:
          :  # basis functions                 171          :
          :  # atomic orbitals                 171          :
          :  # shells                          105          :
          :  # electrons                       180          :
          :  max. iterations                   250          :
          :  Hamiltonian                  GFN2-xTB          :
          :  restarted?                      false          :
          :  GBSA solvation                  false          :
          :  PC potential                    false          :
          :  electronic temp.         5000.0000000     K    :
          :  accuracy                    1.0000000          :
          :  -> integral cutoff          0.2500000E+02      :
          :  -> integral neglect         0.1000000E-07      :
          :  -> SCF convergence          0.1000000E-05 Eh   :
          :  -> wf. convergence          0.1000000E-03 e    :
          :  Broyden damping             0.4000000          :
          ...................................................

 iter      E             dE          RMSdq      gap      omega  full diag
   1   -100.5973919 -0.100597E+03  0.374E+00    3.20       0.0  T
   2   -100.7362642 -0.138872E+00  0.221E+00    1.08       1.0  T
   3   -100.7049001  0.313641E-01  0.141E+00    3.29       1.0  T
   4   -100.7721690 -0.672689E-01  0.526E-01    1.50       1.0  T
   5   -100.7894292 -0.172602E-01  0.190E-01    1.98       1.0  T
   6   -100.7911978 -0.176856E-02  0.792E-02    1.77       1.0  T
   7   -100.7914750 -0.277198E-03  0.375E-02    1.83       1.0  T
   8   -100.7914914 -0.164582E-04  0.140E-02    1.83       1.0  T
   9   -100.7914976 -0.616739E-05  0.474E-03    1.82       2.5  T
  10   -100.7914988 -0.118227E-05  0.172E-03    1.82       6.8  T
  11   -100.7914989 -0.139928E-06  0.766E-04    1.82      15.4  T
  12   -100.7914989 -0.773143E-08  0.318E-04    1.82      37.0  T

   *** convergence criteria satisfied after 12 iterations ***

         #    Occupation            Energy/Eh            Energy/eV
      -------------------------------------------------------------
         1        2.0000           -0.8078051             -21.9815
       ...           ...                  ...                  ...
        84        1.9966           -0.5157491             -14.0342
        85        1.9959           -0.5128261             -13.9547
        86        1.9840           -0.4911498             -13.3649
        87        1.9795           -0.4872543             -13.2589
        88        1.9640           -0.4782114             -13.0128
        89        1.8920           -0.4602041             -12.5228
        90        1.8557           -0.4553147             -12.3897 (HOMO)
        91        0.3166           -0.3884132             -10.5693 (LUMO)
        92        0.0218           -0.3434697              -9.3463
        93        0.0041           -0.3169887              -8.6257
        94        0.0034           -0.3139726              -8.5436
        95        0.0029           -0.3112618              -8.4699
       ...           ...                  ...                  ...
       171                          0.5822580              15.8440
      -------------------------------------------------------------
                  HL-Gap            0.0669015 Eh            1.8205 eV
             Fermi-level           -0.4148687 Eh          -11.2892 eV

 SCC (total)                   0 d,  0 h,  0 min,  0.191 sec
 SCC setup                      ...        0 min,  0.001 sec (  0.691%)
 Dispersion                     ...        0 min,  0.002 sec (  1.153%)
 classical contributions        ...        0 min,  0.001 sec (  0.308%)
 integral evaluation            ...        0 min,  0.019 sec (  9.802%)
 iterations                     ...        0 min,  0.099 sec ( 51.611%)
 molecular gradient             ...        0 min,  0.069 sec ( 36.085%)
 printout                       ...        0 min,  0.001 sec (  0.340%)

         :::::::::::::::::::::::::::::::::::::::::::::::::::::
         ::                     SUMMARY                     ::
         :::::::::::::::::::::::::::::::::::::::::::::::::::::
         :: total energy             -99.493278531793 Eh    ::
         :: gradient norm              0.190604877941 Eh/a0 ::
         :: HOMO-LUMO gap              1.820481192090 eV    ::
         ::.................................................::
         :: SCC energy              -100.791498925389 Eh    ::
         :: -> isotropic ES            0.109302908418 Eh    ::
         :: -> anisotropic ES          0.005415138735 Eh    ::
         :: -> anisotropic XC          0.042392697176 Eh    ::
         :: -> dispersion             -0.075527661009 Eh    ::
         :: repulsion energy           1.386151658689 Eh    ::
         :: add. restraining          -0.089147617599 Eh    ::
         :: total charge               1.000000000108 e     ::
         :::::::::::::::::::::::::::::::::::::::::::::::::::::

      ----------------------------------------------------------- 
     |                   =====================                   |
     |                        A N C O P T                        |
     |                   =====================                   |
     |               Approximate Normal Coordinate               |
     |                Rational Function Optimizer                |
      ----------------------------------------------------------- 

          ...................................................
          :                      SETUP                      :
          :.................................................:
          :   optimization level             loose          :
          :   max. optcycles                   200          :
          :   ANC micro-cycles                  20          :
          :   degrees of freedom               210          :
          :.................................................:
          :   RF solver                   davidson          :
          :   write xtbopt.log                true          :
          :   linear?                        false          :
          :   energy convergence         0.5000000E-04 Eh   :
          :   grad. convergence          0.4000000E-02 Eh/α :
          :   maxmium RF displ.          1.0000000          :
          :   Hlow (freq-cutoff)         0.1000000E-01      :
          :   Hmax (freq-cutoff)         5.0000000          :
          :   S6 in model hess.         20.0000000          :
          ...................................................

generating ANC from model Hessian ...
Using Lindh-Hessian (1995)
 Shifting diagonal of input Hessian by    5.7518553238124832E-002
 Lowest  eigenvalues of input Hessian
    0.010000    0.000000    0.000000    0.000000    0.000000    0.000000
    0.000000    0.057624    0.057647    0.057734    0.057787    0.057862
    0.058186    0.058400    0.058920    0.059018    0.059688    0.060137
 Highest eigenvalues
    2.083482    2.093475    2.099100    2.216246    2.232017    2.232363


........................................................................
.............................. CYCLE    1 ..............................
........................................................................

 iter      E             dE          RMSdq      gap      omega  full diag
   1   -100.7914989 -0.100791E+03  0.114E-04    1.82       0.0  T
   2   -100.7914989 -0.678995E-10  0.713E-05    1.82     165.2  T
   3   -100.7914989  0.665210E-10  0.496E-05    1.82     237.5  T
     SCC iter.                  ...        0 min,  0.027 sec
     gradient                   ...        0 min,  0.069 sec
 * total energy  :   -99.4932785 Eh     change       -0.4035485E-08 Eh
   gradient norm :     0.1906067 Eh/α   predicted     0.0000000E+00 (-100.00%)
   displ. norm   :     0.9113233 α      lambda       -0.1421568E+00
   maximum displ.:     0.8781924 α      in ANC's #1, #84, #51, ...

........................................................................
.............................. CYCLE    2 ..............................
........................................................................

 iter      E             dE          RMSdq      gap      omega  full diag
   1   -100.7968722 -0.100797E+03  0.408E-01    1.73       0.0  T
   2   -100.7969633 -0.910610E-04  0.238E-01    1.86       1.0  T
   3   -100.7934491  0.351419E-02  0.210E-01    1.55       1.0  T
   4   -100.7974411 -0.399204E-02  0.376E-02    1.83       1.0  T
   5   -100.7975711 -0.129970E-03  0.920E-03    1.78       1.3  T
   6   -100.7975712 -0.448341E-07  0.500E-03    1.78       2.4  T
   7   -100.7975726 -0.141674E-05  0.147E-03    1.77       8.0  T
   8   -100.7975727 -0.122943E-06  0.591E-04    1.78      20.0  T
   9   -100.7975727 -0.336465E-08  0.274E-04    1.78      42.9  T
     SCC iter.                  ...        0 min,  0.074 sec
     gradient                   ...        0 min,  0.069 sec
 * total energy  :   -99.6486325 Eh     change       -0.1553539E+00 Eh
   gradient norm :     0.2010578 Eh/α   predicted    -0.1301173E+00 ( -16.24%)
   displ. norm   :     0.9483524 α      lambda       -0.1715868E+00
   maximum displ.:     0.9337839 α      in ANC's #1, #51, #65, ...

........................................................................
.............................. CYCLE    3 ..............................
........................................................................

 iter      E             dE          RMSdq      gap      omega  full diag
   1   -100.7163133 -0.100716E+03  0.381E-01    1.66       0.0  T
   2   -100.7165748 -0.261557E-03  0.220E-01    1.77       1.0  T
   3   -100.7130890  0.348578E-02  0.209E-01    1.50       1.0  T
   4   -100.7171109 -0.402187E-02  0.430E-02    1.75       1.0  T
   5   -100.7172457 -0.134785E-03  0.129E-02    1.69       1.0  T
   6   -100.7172504 -0.470271E-05  0.636E-03    1.70       1.9  T
   7   -100.7172513 -0.939603E-06  0.186E-03    1.70       6.3  T
   8   -100.7172515 -0.120198E-06  0.821E-04    1.70      14.4  T
   9   -100.7172515 -0.100091E-07  0.428E-04    1.70      27.6  T
     SCC iter.                  ...        0 min,  0.074 sec
     gradient                   ...        0 min,  0.069 sec
 * total energy  :   -99.8300236 Eh     change       -0.1813911E+00 Eh
   gradient norm :     0.2576698 Eh/α   predicted    -0.1629548E+00 ( -10.16%)
   displ. norm   :     0.9228491 α      lambda       -0.1929846E+00
   maximum displ.:     0.8989339 α      in ANC's #1, #24, #65, ...

........................................................................
.............................. CYCLE    4 ..............................
........................................................................

 iter      E             dE          RMSdq      gap      omega  full diag
   1   -100.3270885 -0.100327E+03  0.135E+00    0.85       0.0  T
   2   -100.1221560  0.204932E+00  0.183E+00    1.04       1.0  T
   3   -100.5331213 -0.410965E+00  0.565E-01    1.00       1.0  T
   4   -100.5513790 -0.182577E-01  0.333E-01    0.54       1.0  T
   5   -100.5537646 -0.238564E-02  0.252E-01    0.30       1.0  T
   6   -100.5612317 -0.746708E-02  0.651E-02    0.53       1.0  T
   7   -100.5614692 -0.237542E-03  0.227E-02    0.54       1.0  T
   8   -100.5614974 -0.281528E-04  0.128E-02    0.55       1.0  T
   9   -100.5615115 -0.141090E-04  0.283E-03    0.54       4.2  T
  10   -100.5615119 -0.401454E-06  0.973E-04    0.54      12.1  T
  11   -100.5615119 -0.199973E-07  0.567E-04    0.54      20.8  T
     SCC iter.                  ...        0 min,  0.089 sec
     gradient                   ...        0 min,  0.069 sec
 * total energy  :  -100.0418605 Eh     change       -0.2118369E+00 Eh
   gradient norm :     0.3733859 Eh/α   predicted    -0.1786711E+00 ( -15.66%)
   displ. norm   :     0.9158662 α      lambda       -0.2813819E+00
   maximum displ.:     0.8701389 α      in ANC's #1, #24, #33, ...

........................................................................
.............................. CYCLE    5 ..............................
........................................................................

 iter      E             dE          RMSdq      gap      omega  full diag
   1   -100.4301925 -0.100430E+03  0.120E+00    0.59       0.0  T
   2   -100.3845427  0.456498E-01  0.123E+00    0.56       1.0  T
   3   -100.4841524 -0.996097E-01  0.644E-01    0.70       1.0  T
   4   -100.4824038  0.174859E-02  0.678E-01    0.79       1.0  T
   5   -100.5058947 -0.234909E-01  0.258E-01    0.63       1.0  T
   6   -100.5125029 -0.660818E-02  0.467E-02    0.61       1.0  T
   7   -100.5125314 -0.284736E-04  0.261E-02    0.60       1.0  T
   8   -100.5125693 -0.379596E-04  0.116E-02    0.60       1.0  T
   9   -100.5125718 -0.246199E-05  0.521E-03    0.60       2.3  T
  10   -100.5125731 -0.129618E-05  0.172E-03    0.60       6.8  T
  11   -100.5125734 -0.269593E-06  0.671E-04    0.60      17.6  T
  12   -100.5125734 -0.692737E-08  0.270E-04    0.60      43.7  T
     SCC iter.                  ...        0 min,  0.097 sec
     gradient                   ...        0 min,  0.069 sec
 * total energy  :  -100.4317775 Eh     change       -0.3899170E+00 Eh
   gradient norm :     0.5615984 Eh/α   predicted    -0.2587096E+00 ( -33.65%)
   displ. norm   :     0.8889963 α      lambda       -0.4367465E+00
   maximum displ.:     0.7536173 α      in ANC's #1, #139, #65, ...

........................................................................
.............................. CYCLE    6 ..............................
........................................................................

 iter      E             dE          RMSdq      gap      omega  full diag
   1   -100.4444016 -0.100444E+03  0.968E-01    0.42       0.0  T
   2   -100.3625832  0.818184E-01  0.994E-01    1.01       1.0  T
   3   -100.4292293 -0.666461E-01  0.696E-01    0.41       1.0  T
   4   -100.4780302 -0.488010E-01  0.215E-01    0.51       1.0  T
   5   -100.4788774 -0.847175E-03  0.110E-01    0.55       1.0  T
   6   -100.4796513 -0.773904E-03  0.438E-02    0.54       1.0  T
   7   -100.4798019 -0.150569E-03  0.125E-02    0.54       1.0  T
   8   -100.4798064 -0.455819E-05  0.756E-03    0.54       1.6  T
   9   -100.4798119 -0.549898E-05  0.265E-03    0.54       4.4  T
  10   -100.4798124 -0.484293E-06  0.784E-04    0.54      15.0  T
  11   -100.4798124 -0.166129E-07  0.363E-04    0.54      32.5  T
     SCC iter.                  ...        0 min,  0.089 sec
     gradient                   ...        0 min,  0.069 sec
 * total energy  :  -100.8016853 Eh     change       -0.3699078E+00 Eh
   gradient norm :     1.0279743 Eh/α   predicted    -0.3909673E+00 (   5.69%)
   displ. norm   :     0.8751806 α      lambda       -0.6038114E+00
   maximum displ.:     0.4363077 α      in ANC's #1, #161, #139, ...

........................................................................
.............................. CYCLE    7 ..............................
........................................................................

 iter      E             dE          RMSdq      gap      omega  full diag
   1   -100.3847713 -0.100385E+03  0.877E-01    0.56       0.0  T
   2   -100.3303404  0.544309E-01  0.800E-01    0.60       1.0  T
   3   -100.3590494 -0.287090E-01  0.671E-01    0.52       1.0  T
   4   -100.4081329 -0.490835E-01  0.214E-01    0.49       1.0  T
   5   -100.4086134 -0.480551E-03  0.170E-01    0.39       1.0  T
   6   -100.4103953 -0.178184E-02  0.667E-02    0.44       1.0  T
   7   -100.4109092 -0.513898E-03  0.212E-02    0.43       1.0  T
   8   -100.4109420 -0.328085E-04  0.767E-03    0.43       1.5  T
   9   -100.4109441 -0.211616E-05  0.452E-03    0.43       2.6  T
  10   -100.4109465 -0.243503E-05  0.131E-03    0.43       9.0  T
  11   -100.4109466 -0.100440E-06  0.423E-04    0.43      27.9  T
  12   -100.4109466 -0.541445E-08  0.179E-04    0.43      65.7  T
     SCC iter.                  ...        0 min,  0.097 sec
     gradient                   ...        0 min,  0.072 sec
 * total energy  :  -101.3226676 Eh     change       -0.5209824E+00 Eh
   gradient norm :     0.6862964 Eh/α   predicted    -0.5331500E+00 (   2.34%)
   displ. norm   :     0.9284045 α      lambda       -0.5936762E+00
   maximum displ.:     0.5808324 α      in ANC's #1, #161, #158, ...

........................................................................
.............................. CYCLE    8 ..............................
........................................................................

 iter      E             dE          RMSdq      gap      omega  full diag
   1   -100.3258877 -0.100326E+03  0.986E-01    0.42       0.0  T
   2   -100.2924048  0.334828E-01  0.778E-01    0.21       1.0  T
   3   -100.3100621 -0.176573E-01  0.780E-01    0.48       1.0  T
   4   -100.3661844 -0.561223E-01  0.258E-01    0.48       1.0  T
   5   -100.3658754  0.309040E-03  0.171E-01    0.53       1.0  T
   6   -100.3687111 -0.283565E-02  0.582E-02    0.45       1.0  T
   7   -100.3689813 -0.270274E-03  0.248E-02    0.49       1.0  T
   8   -100.3690227 -0.413807E-04  0.108E-02    0.48       1.1  T
   9   -100.3690291 -0.638509E-05  0.634E-03    0.48       1.9  T
  10   -100.3690331 -0.404261E-05  0.199E-03    0.48       5.9  T
  11   -100.3690333 -0.192966E-06  0.811E-04    0.48      14.5  T
  12   -100.3690334 -0.388941E-07  0.330E-04    0.48      35.8  T
     SCC iter.                  ...        0 min,  0.097 sec
     gradient                   ...        0 min,  0.069 sec
 * total energy  :  -100.6410826 Eh     change        0.6815851E+00 Eh
   gradient norm :     6.9334985 Eh/α   predicted    -0.5526933E+00 (-181.09%)
   displ. norm   :     0.5073783 α      lambda       -0.3415986E+01
   maximum displ.:     0.3270422 α      in ANC's #1, #208, #161, ...

........................................................................
.............................. CYCLE    9 ..............................
........................................................................

 iter      E             dE          RMSdq      gap      omega  full diag
   1   -100.3581247 -0.100358E+03  0.777E-01    0.67       0.0  T
   2   -100.3146916  0.434331E-01  0.920E-01    0.39       1.0  T
   3   -100.3786545 -0.639629E-01  0.441E-01    0.62       1.0  T
   4   -100.3921458 -0.134912E-01  0.165E-01    0.53       1.0  T
   5   -100.3919209  0.224849E-03  0.132E-01    0.51       1.0  T
   6   -100.3923728 -0.451862E-03  0.929E-02    0.55       1.0  T
   7   -100.3933934 -0.102061E-02  0.175E-02    0.51       1.0  T
   8   -100.3934029 -0.953219E-05  0.934E-03    0.51       1.3  T
   9   -100.3934152 -0.123394E-04  0.285E-03    0.51       4.1  T
  10   -100.3934157 -0.441535E-06  0.117E-03    0.51      10.0  T
  11   -100.3934157 -0.527959E-07  0.567E-04    0.51      20.8  T
  12   -100.3934158 -0.239511E-07  0.195E-04    0.51      60.5  T
     SCC iter.                  ...        0 min,  0.097 sec
     gradient                   ...        0 min,  0.072 sec
 * total energy  :  -101.5269723 Eh     change       -0.8858897E+00 Eh
   gradient norm :     0.4489818 Eh/α   predicted    -0.2147686E+01 ( 142.43%)
   displ. norm   :     0.6115041 α      lambda       -0.1053252E+00
   maximum displ.:     0.2115083 α      in ANC's #51, #43, #49, ...

........................................................................
.............................. CYCLE   10 ..............................
........................................................................

 iter      E             dE          RMSdq      gap      omega  full diag
   1   -100.4000407 -0.100400E+03  0.492E-01    0.35       0.0  T
   2   -100.3328797  0.671610E-01  0.905E-01    0.52       1.0  T
   3   -100.4163970 -0.835173E-01  0.183E-01    0.50       1.0  T
   4   -100.4117118  0.468519E-02  0.252E-01    0.42       1.0  T
   5   -100.4173372 -0.562536E-02  0.625E-02    0.47       1.0  T
   6   -100.4177905 -0.453338E-03  0.365E-02    0.46       1.0  T
   7   -100.4179211 -0.130520E-03  0.112E-02    0.46       1.1  T
   8   -100.4179301 -0.904540E-05  0.449E-03    0.46       2.6  T
   9   -100.4179314 -0.127201E-05  0.183E-03    0.47       6.4  T
  10   -100.4179316 -0.207651E-06  0.627E-04    0.47      18.8  T
  11   -100.4179316 -0.171424E-07  0.282E-04    0.46      41.8  T
     SCC iter.                  ...        0 min,  0.089 sec
     gradient                   ...        0 min,  0.069 sec
 * total energy  :  -101.6097329 Eh     change       -0.8276068E-01 Eh
   gradient norm :     0.3587233 Eh/α   predicted    -0.7235496E-01 ( -12.57%)
   displ. norm   :     0.7514576 α      lambda       -0.9526742E-01
   maximum displ.:     0.2615755 α      in ANC's #51, #43, #59, ...

........................................................................
.............................. CYCLE   11 ..............................
........................................................................

 iter      E             dE          RMSdq      gap      omega  full diag
   1   -100.4381240 -0.100438E+03  0.517E-01    0.52       0.0  T
   2   -100.4199071  0.182169E-01  0.473E-01    0.48       1.0  T
   3   -100.4333170 -0.134098E-01  0.373E-01    0.51       1.0  T
   4   -100.4403670 -0.705003E-02  0.256E-01    0.53       1.0  T
   5   -100.4451185 -0.475146E-02  0.616E-02    0.50       1.0  T
   6   -100.4455007 -0.382206E-03  0.241E-02    0.51       1.0  T
   7   -100.4455356 -0.349275E-04  0.100E-02    0.51       1.2  T
   8   -100.4455418 -0.619199E-05  0.407E-03    0.51       2.9  T
   9   -100.4455430 -0.114592E-05  0.190E-03    0.51       6.2  T
  10   -100.4455433 -0.335442E-06  0.565E-04    0.51      20.9  T
  11   -100.4455433 -0.135886E-07  0.271E-04    0.51      43.4  T
     SCC iter.                  ...        0 min,  0.088 sec
     gradient                   ...        0 min,  0.069 sec
 * total energy  :  -101.6636432 Eh     change       -0.5391023E-01 Eh
   gradient norm :     0.2155180 Eh/α   predicted    -0.7453188E-01 (  38.25%)
   displ. norm   :     0.7518479 α      lambda       -0.9002157E-01
   maximum displ.:     0.2502226 α      in ANC's #65, #43, #1, ...

........................................................................
.............................. CYCLE   12 ..............................
........................................................................

 iter      E             dE          RMSdq      gap      omega  full diag
   1   -100.4017291 -0.100402E+03  0.860E-01    0.40       0.0  T
   2   -100.2624804  0.139249E+00  0.126E+00    0.48       1.0  T
   3   -100.4335911 -0.171111E+00  0.401E-01    0.40       1.0  T
   4   -100.4383361 -0.474491E-02  0.289E-01    0.42       1.0  T
   5   -100.4439111 -0.557500E-02  0.107E-01    0.43       1.0  T
   6   -100.4446614 -0.750377E-03  0.646E-02    0.43       1.0  T
   7   -100.4450920 -0.430520E-03  0.138E-02    0.43       1.0  T
   8   -100.4451047 -0.127974E-04  0.738E-03    0.43       1.6  T
   9   -100.4451081 -0.337676E-05  0.296E-03    0.43       4.0  T
  10   -100.4451087 -0.580778E-06  0.121E-03    0.43       9.7  T
  11   -100.4451088 -0.641743E-07  0.465E-04    0.43      25.3  T
  12   -100.4451088 -0.138741E-07  0.184E-04    0.43      64.0  T
     SCC iter.                  ...        0 min,  0.097 sec
     gradient                   ...        0 min,  0.069 sec
 * total energy  :  -101.7055124 Eh     change       -0.4186920E-01 Eh
   gradient norm :     0.1643330 Eh/α   predicted    -0.7045441E-01 (  68.27%)
   displ. norm   :     0.4908572 α      lambda       -0.2959456E-01
   maximum displ.:     0.1732121 α      in ANC's #51, #43, #37, ...

........................................................................
.............................. CYCLE   13 ..............................
........................................................................

 iter      E             dE          RMSdq      gap      omega  full diag
   1   -100.4738872 -0.100474E+03  0.276E-01    0.40       0.0  T
   2   -100.4616424  0.122448E-01  0.402E-01    0.45       1.0  T
   3   -100.4758671 -0.142247E-01  0.146E-01    0.41       1.0  T
   4   -100.4751213  0.745789E-03  0.132E-01    0.41       1.0  T
   5   -100.4765356 -0.141430E-02  0.699E-02    0.42       1.0  T
   6   -100.4769442 -0.408573E-03  0.220E-02    0.42       1.0  T
   7   -100.4769985 -0.543530E-04  0.526E-03    0.41       2.2  T
   8   -100.4769992 -0.665718E-06  0.305E-03    0.41       3.9  T
   9   -100.4769993 -0.125312E-06  0.178E-03    0.41       6.6  T
  10   -100.4769997 -0.379343E-06  0.347E-04    0.41      33.9  T
  11   -100.4769997 -0.370403E-08  0.168E-04    0.41      70.2  T
     SCC iter.                  ...        0 min,  0.090 sec
     gradient                   ...        0 min,  0.069 sec
 * total energy  :  -101.7285415 Eh     change       -0.2302916E-01 Eh
   gradient norm :     0.1033781 Eh/α   predicted    -0.1836250E-01 ( -20.26%)
   displ. norm   :     0.6554470 α      lambda       -0.2697323E-01
   maximum displ.:     0.2757352 α      in ANC's #43, #51, #37, ...

........................................................................
.............................. CYCLE   14 ..............................
........................................................................

 iter      E             dE          RMSdq      gap      omega  full diag
   1   -100.4884531 -0.100488E+03  0.333E-01    0.46       0.0  T
   2   -100.4747360  0.137172E-01  0.396E-01    0.41       1.0  T
   3   -100.4855450 -0.108090E-01  0.260E-01    0.45       1.0  T
   4   -100.4915632 -0.601819E-02  0.100E-01    0.45       1.0  T
   5   -100.4917026 -0.139392E-03  0.600E-02    0.43       1.0  T
   6   -100.4920146 -0.311980E-03  0.260E-02    0.45       1.0  T
   7   -100.4920802 -0.656249E-04  0.842E-03    0.44       1.4  T
   8   -100.4920874 -0.719772E-05  0.437E-03    0.44       2.7  T
   9   -100.4920880 -0.643304E-06  0.231E-03    0.44       5.1  T
  10   -100.4920885 -0.451425E-06  0.678E-04    0.44      17.4  T
  11   -100.4920885 -0.212106E-07  0.297E-04    0.44      39.7  T
     SCC iter.                  ...        0 min,  0.089 sec
     gradient                   ...        0 min,  0.069 sec
 * total energy  :  -101.7499370 Eh     change       -0.2139542E-01 Eh
   gradient norm :     0.0848785 Eh/α   predicted    -0.1928061E-01 (  -9.88%)
   displ. norm   :     0.6684811 α      lambda       -0.2444114E-01
   maximum displ.:     0.2780597 α      in ANC's #43, #37, #51, ...

........................................................................
.............................. CYCLE   15 ..............................
........................................................................

 iter      E             dE          RMSdq      gap      omega  full diag
   1   -100.5000271 -0.100500E+03  0.342E-01    0.55       0.0  T
   2   -100.4894311  0.105960E-01  0.362E-01    0.43       1.0  T
   3   -100.4965721 -0.714096E-02  0.270E-01    0.55       1.0  T
   4   -100.5031335 -0.656149E-02  0.114E-01    0.54       1.0  T
   5   -100.5035691 -0.435517E-03  0.723E-02    0.52       1.0  T
   6   -100.5038350 -0.265921E-03  0.371E-02    0.53       1.0  T
   7   -100.5039902 -0.155249E-03  0.969E-03    0.53       1.2  T
   8   -100.5039990 -0.878019E-05  0.456E-03    0.53       2.6  T
   9   -100.5039999 -0.886789E-06  0.234E-03    0.53       5.0  T
  10   -100.5040004 -0.451359E-06  0.851E-04    0.53      13.8  T
  11   -100.5040004 -0.291984E-07  0.304E-04    0.53      38.8  T
     SCC iter.                  ...        0 min,  0.089 sec
     gradient                   ...        0 min,  0.069 sec
 * total energy  :  -101.7701473 Eh     change       -0.2021035E-01 Eh
   gradient norm :     0.1139959 Eh/α   predicted    -0.1768152E-01 ( -12.51%)
   displ. norm   :     0.8141396 α      lambda       -0.3354393E-01
   maximum displ.:     0.2829606 α      in ANC's #43, #31, #34, ...

........................................................................
.............................. CYCLE   16 ..............................
........................................................................

 iter      E             dE          RMSdq      gap      omega  full diag
   1   -100.5239280 -0.100524E+03  0.405E-01    0.69       0.0  T
   2   -100.5114422  0.124858E-01  0.435E-01    0.41       1.0  T
   3   -100.5188825 -0.744035E-02  0.335E-01    0.73       1.0  T
   4   -100.5272322 -0.834970E-02  0.143E-01    0.63       1.0  T
   5   -100.5279326 -0.700377E-03  0.108E-01    0.61       1.0  T
   6   -100.5288211 -0.888448E-03  0.354E-02    0.63       1.0  T
   7   -100.5289436 -0.122561E-03  0.148E-02    0.62       1.0  T
   8   -100.5289627 -0.191082E-04  0.496E-03    0.62       2.4  T
   9   -100.5289633 -0.603107E-06  0.350E-03    0.62       3.4  T
  10   -100.5289643 -0.930302E-06  0.135E-03    0.62       8.7  T
  11   -100.5289644 -0.152136E-06  0.420E-04    0.62      28.1  T
  12   -100.5289644 -0.339601E-08  0.197E-04    0.62      59.9  T
     SCC iter.                  ...        0 min,  0.097 sec
     gradient                   ...        0 min,  0.074 sec
 * total energy  :  -101.7929057 Eh     change       -0.2275840E-01 Eh
   gradient norm :     0.2848550 Eh/α   predicted    -0.2788879E-01 (  22.54%)
   displ. norm   :     0.6080159 α      lambda       -0.3936024E-01
   maximum displ.:     0.1841962 α      in ANC's #31, #37, #43, ...

........................................................................
.............................. CYCLE   17 ..............................
........................................................................

 iter      E             dE          RMSdq      gap      omega  full diag
   1   -100.5602546 -0.100560E+03  0.291E-01    0.66       0.0  T
   2   -100.5599973  0.257241E-03  0.176E-01    0.70       1.0  T
   3   -100.5531465  0.685080E-02  0.300E-01    0.68       1.0  T
   4   -100.5606196 -0.747312E-02  0.992E-02    0.64       1.0  T
   5   -100.5609850 -0.365379E-03  0.735E-02    0.73       1.0  T
   6   -100.5614556 -0.470574E-03  0.252E-02    0.67       1.0  T
   7   -100.5614914 -0.358243E-04  0.121E-02    0.69       1.0  T
   8   -100.5615040 -0.125447E-04  0.322E-03    0.69       3.7  T
   9   -100.5615044 -0.433740E-06  0.167E-03    0.69       7.1  T
  10   -100.5615045 -0.141292E-06  0.788E-04    0.69      15.0  T
  11   -100.5615046 -0.504523E-07  0.295E-04    0.69      39.9  T
     SCC iter.                  ...        0 min,  0.089 sec
     gradient                   ...        0 min,  0.068 sec
 * total energy  :  -101.8322798 Eh     change       -0.3937408E-01 Eh
   gradient norm :     0.2018650 Eh/α   predicted    -0.2695555E-01 ( -31.54%)
   displ. norm   :     0.8511671 α      lambda       -0.7691237E-01
   maximum displ.:     0.2324410 α      in ANC's #31, #208, #34, ...

........................................................................
.............................. CYCLE   18 ..............................
........................................................................

 iter      E             dE          RMSdq      gap      omega  full diag
   1   -100.6212418 -0.100621E+03  0.372E-01    0.80       0.0  T
   2   -100.6175475  0.369436E-02  0.298E-01    0.57       1.0  T
   3   -100.6016900  0.158575E-01  0.441E-01    1.09       1.0  T
   4   -100.6214260 -0.197360E-01  0.138E-01    0.67       1.0  T
   5   -100.6226445 -0.121847E-02  0.418E-02    0.76       1.0  T
   6   -100.6227537 -0.109226E-03  0.113E-02    0.74       1.0  T
   7   -100.6227624 -0.873818E-05  0.632E-03    0.75       1.9  T
   8   -100.6227641 -0.168026E-05  0.377E-03    0.74       3.1  T
   9   -100.6227646 -0.493945E-06  0.205E-03    0.74       5.7  T
  10   -100.6227650 -0.352385E-06  0.773E-04    0.74      15.2  T
  11   -100.6227650 -0.410571E-07  0.315E-04    0.74      37.4  T
     SCC iter.                  ...        0 min,  0.089 sec
     gradient                   ...        0 min,  0.069 sec
 * total energy  :  -101.8648288 Eh     change       -0.3254900E-01 Eh
   gradient norm :     0.1994223 Eh/α   predicted    -0.6631703E-01 ( 103.75%)
   displ. norm   :     0.4689484 α      lambda       -0.3299319E-01
   maximum displ.:     0.1481086 α      in ANC's #31, #43, #37, ...

........................................................................
.............................. CYCLE   19 ..............................
........................................................................

 iter      E             dE          RMSdq      gap      omega  full diag
   1   -100.6007682 -0.100601E+03  0.194E-01    0.68       0.0  T
   2   -100.5993166  0.145163E-02  0.166E-01    0.75       1.0  T
   3   -100.5993758 -0.592636E-04  0.160E-01    0.61       1.0  T
   4   -100.5987764  0.599452E-03  0.162E-01    0.84       1.0  T
   5   -100.6015675 -0.279113E-02  0.266E-02    0.70       1.0  T
   6   -100.6016098 -0.422409E-04  0.945E-03    0.72       1.2  T
   7   -100.6016144 -0.463276E-05  0.412E-03    0.72       2.9  T
   8   -100.6016148 -0.427597E-06  0.187E-03    0.71       6.3  T
   9   -100.6016150 -0.145736E-06  0.674E-04    0.71      17.5  T
  10   -100.6016150 -0.379394E-07  0.308E-04    0.71      38.2  T
     SCC iter.                  ...        0 min,  0.081 sec
     gradient                   ...        0 min,  0.068 sec
 * total energy  :  -101.8787619 Eh     change       -0.1393312E-01 Eh
   gradient norm :     0.1661273 Eh/α   predicted    -0.2012440E-01 (  44.44%)
   displ. norm   :     0.3137022 α      lambda       -0.1668367E-01
   maximum displ.:     0.0868616 α      in ANC's #28, #31, #80, ...

........................................................................
.............................. CYCLE   20 ..............................
........................................................................

 iter      E             dE          RMSdq      gap      omega  full diag
   1   -100.6068436 -0.100607E+03  0.199E-01    0.63       0.0  T
   2   -100.5955816  0.112620E-01  0.353E-01    0.99       1.0  T
   3   -100.6077341 -0.121524E-01  0.108E-01    0.66       1.0  T
   4   -100.6078649 -0.130810E-03  0.580E-02    0.73       1.0  T
   5   -100.6080349 -0.170000E-03  0.289E-02    0.70       1.0  T
   6   -100.6081038 -0.688864E-04  0.102E-02    0.71       1.2  T
   7   -100.6081115 -0.774758E-05  0.361E-03    0.71       3.3  T
   8   -100.6081119 -0.357887E-06  0.177E-03    0.71       6.7  T
   9   -100.6081120 -0.151859E-06  0.637E-04    0.71      18.5  T
  10   -100.6081121 -0.366808E-07  0.279E-04    0.71      42.2  T
     SCC iter.                  ...        0 min,  0.081 sec
     gradient                   ...        0 min,  0.068 sec
 * total energy  :  -101.8876661 Eh     change       -0.8904223E-02 Eh
   gradient norm :     0.1064516 Eh/α   predicted    -0.9162744E-02 (   2.90%)
   displ. norm   :     0.7275199 α      lambda       -0.2694971E-01
   maximum displ.:     0.3010942 α      in ANC's #31, #34, #43, ...
 * RMSD in coord.:     1.0120510 α      energy gain  -0.2394388E+01 Eh

generating ANC from model Hessian ...
Using Lindh-Hessian (1995)
 Shifting diagonal of input Hessian by    9.9258541024851068E-003
 Lowest  eigenvalues of input Hessian
    0.000000    0.000000    0.000000    0.000000    0.000000    0.000000
    0.010000    0.010027    0.010083    0.010183    0.010200    0.010467
    0.010616    0.010734    0.011014    0.011134    0.011628    0.012066
 Highest eigenvalues
    2.010963    2.053138    2.163909    2.184216    2.469202    2.966819


........................................................................
.............................. CYCLE   21 ..............................
........................................................................

 iter      E             dE          RMSdq      gap      omega  full diag
   1   -100.6358881 -0.100636E+03  0.238E-01    0.72       0.0  T
   2   -100.6344442  0.144392E-02  0.199E-01    0.68       1.0  T
   3   -100.6355371 -0.109285E-02  0.151E-01    0.79       1.0  T
   4   -100.6303217  0.521531E-02  0.242E-01    0.50       1.0  T
   5   -100.6370901 -0.676833E-02  0.304E-02    0.72       1.0  T
   6   -100.6371813 -0.911788E-04  0.718E-03    0.71       1.6  T
   7   -100.6371835 -0.229229E-05  0.373E-03    0.71       3.2  T
   8   -100.6371840 -0.494835E-06  0.153E-03    0.71       7.7  T
   9   -100.6371842 -0.130155E-06  0.572E-04    0.71      20.6  T
  10   -100.6371842 -0.252695E-07  0.203E-04    0.71      58.1  T
     SCC iter.                  ...        0 min,  0.081 sec
     gradient                   ...        0 min,  0.068 sec
 * total energy  :  -101.9086410 Eh     change       -0.2097483E-01 Eh
   gradient norm :     0.0969394 Eh/α   predicted     0.0000000E+00 (-100.00%)
   displ. norm   :     0.5497935 α      lambda       -0.1851866E-01
   maximum displ.:     0.2265136 α      in ANC's #27, #17, #26, ...

........................................................................
.............................. CYCLE   22 ..............................
........................................................................

 iter      E             dE          RMSdq      gap      omega  full diag
   1   -100.6597235 -0.100660E+03  0.155E-01    0.74       0.0  T
   2   -100.6583501  0.137340E-02  0.164E-01    0.64       1.0  T
   3   -100.6588732 -0.523100E-03  0.136E-01    0.83       1.0  T
   4   -100.6596834 -0.810135E-03  0.979E-02    0.65       1.0  T
   5   -100.6605955 -0.912166E-03  0.230E-02    0.73       1.0  T
   6   -100.6606243 -0.287276E-04  0.112E-02    0.72       1.0  T
   7   -100.6606364 -0.121627E-04  0.239E-03    0.72       4.9  T
   8   -100.6606366 -0.204643E-06  0.129E-03    0.72       9.2  T
   9   -100.6606367 -0.674821E-07  0.434E-04    0.72      27.1  T
  10   -100.6606367 -0.102639E-07  0.201E-04    0.72      58.7  T
     SCC iter.                  ...        0 min,  0.081 sec
     gradient                   ...        0 min,  0.074 sec
 * total energy  :  -101.9250259 Eh     change       -0.1638493E-01 Eh
   gradient norm :     0.0999741 Eh/α   predicted    -0.1205818E-01 ( -26.41%)
   displ. norm   :     0.7638148 α      lambda       -0.2689914E-01
   maximum displ.:     0.2882883 α      in ANC's #27, #17, #26, ...

........................................................................
.............................. CYCLE   23 ..............................
........................................................................

 iter      E             dE          RMSdq      gap      omega  full diag
   1   -100.6870207 -0.100687E+03  0.258E-01    0.90       0.0  T
   2   -100.6586756  0.283451E-01  0.531E-01    0.34       1.0  T
   3   -100.6881358 -0.294602E-01  0.180E-01    0.91       1.0  T
   4   -100.6901813 -0.204554E-02  0.982E-02    0.73       1.0  T
   5   -100.6906950 -0.513634E-03  0.325E-02    0.76       1.0  T
   6   -100.6907418 -0.468445E-04  0.158E-02    0.76       1.0  T
   7   -100.6907608 -0.189767E-04  0.672E-03    0.76       1.8  T
   8   -100.6907636 -0.284066E-05  0.285E-03    0.76       4.1  T
   9   -100.6907642 -0.547363E-06  0.634E-04    0.77      18.6  T
  10   -100.6907642 -0.164112E-07  0.317E-04    0.77      37.1  T
     SCC iter.                  ...        0 min,  0.081 sec
     gradient                   ...        0 min,  0.068 sec
 * total energy  :  -101.9461248 Eh     change       -0.2109888E-01 Eh
   gradient norm :     0.1092869 Eh/α   predicted    -0.2129626E-01 (   0.94%)
   displ. norm   :     0.6943723 α      lambda       -0.2369658E-01
   maximum displ.:     0.2658777 α      in ANC's #17, #27, #26, ...

........................................................................
.............................. CYCLE   24 ..............................
........................................................................

 iter      E             dE          RMSdq      gap      omega  full diag
   1   -100.6993596 -0.100699E+03  0.257E-01    0.98       0.0  T
   2   -100.6585165  0.408431E-01  0.616E-01    0.29       1.0  T
   3   -100.7022492 -0.437327E-01  0.144E-01    0.92       1.0  T
   4   -100.7033841 -0.113489E-02  0.858E-02    0.78       1.0  T
   5   -100.7037214 -0.337304E-03  0.354E-02    0.80       1.0  T
   6   -100.7037837 -0.623194E-04  0.177E-02    0.80       1.0  T
   7   -100.7038008 -0.170443E-04  0.971E-03    0.80       1.2  T
   8   -100.7038078 -0.702079E-05  0.377E-03    0.81       3.1  T
   9   -100.7038089 -0.110693E-05  0.675E-04    0.81      17.5  T
  10   -100.7038089 -0.206240E-07  0.314E-04    0.81      37.5  T
  11   -100.7038089 -0.499794E-08  0.139E-04    0.81      85.0  T
     SCC iter.                  ...        0 min,  0.089 sec
     gradient                   ...        0 min,  0.069 sec
 * total energy  :  -101.9588365 Eh     change       -0.1271170E-01 Eh
   gradient norm :     0.2017946 Eh/α   predicted    -0.1756102E-01 (  38.15%)
   displ. norm   :     0.4944081 α      lambda       -0.1424988E-01
   maximum displ.:     0.2437141 α      in ANC's #17, #27, #26, ...

........................................................................
.............................. CYCLE   25 ..............................
........................................................................

 iter      E             dE          RMSdq      gap      omega  full diag
   1   -100.7072008 -0.100707E+03  0.117E-01    0.77       0.0  T
   2   -100.7058546  0.134618E-02  0.127E-01    0.91       1.0  T
   3   -100.7057779  0.767369E-04  0.126E-01    0.69       1.0  T
   4   -100.7073545 -0.157659E-02  0.389E-02    0.81       1.0  T
   5   -100.7074510 -0.965461E-04  0.670E-03    0.80       1.8  T
   6   -100.7074544 -0.337566E-05  0.309E-03    0.80       3.8  T
   7   -100.7074547 -0.334042E-06  0.165E-03    0.80       7.1  T
   8   -100.7074549 -0.119021E-06  0.594E-04    0.80      19.8  T
   9   -100.7074549 -0.142740E-07  0.264E-04    0.80      44.6  T
     SCC iter.                  ...        0 min,  0.073 sec
     gradient                   ...        0 min,  0.069 sec
 * total energy  :  -101.9695059 Eh     change       -0.1066946E-01 Eh
   gradient norm :     0.0741200 Eh/α   predicted    -0.8866605E-02 ( -16.90%)
   displ. norm   :     0.5015734 α      lambda       -0.1040782E-01
   maximum displ.:     0.2584472 α      in ANC's #17, #16, #27, ...

........................................................................
.............................. CYCLE   26 ..............................
........................................................................

 iter      E             dE          RMSdq      gap      omega  full diag
   1   -100.7218390 -0.100722E+03  0.162E-01    0.68       0.0  T
   2   -100.7123525  0.948650E-02  0.311E-01    1.08       1.0  T
   3   -100.7227986 -0.104461E-01  0.770E-02    0.74       1.0  T
   4   -100.7228804 -0.818176E-04  0.344E-02    0.78       1.0  T
   5   -100.7229552 -0.747866E-04  0.925E-03    0.78       1.3  T
   6   -100.7229588 -0.360941E-05  0.528E-03    0.78       2.2  T
   7   -100.7229608 -0.197624E-05  0.224E-03    0.78       5.3  T
   8   -100.7229610 -0.190184E-06  0.122E-03    0.78       9.6  T
   9   -100.7229611 -0.979220E-07  0.242E-04    0.78      48.7  T
  10   -100.7229611 -0.139251E-08  0.118E-04    0.78      99.5  T
     SCC iter.                  ...        0 min,  0.081 sec
     gradient                   ...        0 min,  0.068 sec
 * total energy  :  -101.9768277 Eh     change       -0.7321721E-02 Eh
   gradient norm :     0.0290734 Eh/α   predicted    -0.6513094E-02 ( -11.04%)
   displ. norm   :     0.5394305 α      lambda       -0.5169788E-02
   maximum displ.:     0.2921336 α      in ANC's #17, #16, #27, ...

........................................................................
.............................. CYCLE   27 ..............................
........................................................................

 iter      E             dE          RMSdq      gap      omega  full diag
   1   -100.7234009 -0.100723E+03  0.130E-01    0.73       0.0  T
   2   -100.7222038  0.119716E-02  0.128E-01    0.87       1.0  T
   3   -100.7211765  0.102729E-02  0.150E-01    0.63       1.0  T
   4   -100.7234862 -0.230974E-02  0.460E-02    0.78       1.0  T
   5   -100.7236392 -0.152965E-03  0.790E-03    0.77       1.5  T
   6   -100.7236439 -0.468942E-05  0.363E-03    0.77       3.2  T
   7   -100.7236449 -0.101144E-05  0.154E-03    0.77       7.6  T
   8   -100.7236450 -0.909642E-07  0.634E-04    0.76      18.6  T
   9   -100.7236450 -0.145751E-07  0.186E-04    0.76      63.2  T
     SCC iter.                  ...        0 min,  0.073 sec
     gradient                   ...        0 min,  0.068 sec
 * total energy  :  -101.9801065 Eh     change       -0.3278863E-02 Eh
   gradient norm :     0.0615493 Eh/α   predicted    -0.3337062E-02 (   1.77%)
   displ. norm   :     0.4399966 α      lambda       -0.3918804E-02
   maximum displ.:     0.2053666 α      in ANC's #17, #16, #25, ...

........................................................................
.............................. CYCLE   28 ..............................
........................................................................

 iter      E             dE          RMSdq      gap      omega  full diag
   1   -100.7315635 -0.100732E+03  0.105E-01    0.69       0.0  T
   2   -100.7275378  0.402568E-02  0.200E-01    0.95       1.0  T
   3   -100.7318331 -0.429533E-02  0.560E-02    0.72       1.0  T
   4   -100.7319224 -0.892677E-04  0.253E-02    0.76       1.0  T
   5   -100.7319690 -0.465871E-04  0.374E-03    0.75       3.1  T
   6   -100.7319691 -0.144542E-06  0.271E-03    0.76       4.4  T
   7   -100.7319696 -0.516697E-06  0.915E-04    0.75      12.9  T
   8   -100.7319697 -0.385646E-07  0.338E-04    0.75      34.9  T
     SCC iter.                  ...        0 min,  0.065 sec
     gradient                   ...        0 min,  0.068 sec
 * total energy  :  -101.9825412 Eh     change       -0.2434653E-02 Eh
   gradient norm :     0.0253585 Eh/α   predicted    -0.2338749E-02 (  -3.94%)
   displ. norm   :     0.4410788 α      lambda       -0.2508117E-02
   maximum displ.:     0.1793899 α      in ANC's #17, #9, #16, ...

........................................................................
.............................. CYCLE   29 ..............................
........................................................................

 iter      E             dE          RMSdq      gap      omega  full diag
   1   -100.7319529 -0.100732E+03  0.834E-02    0.77       0.0  T
   2   -100.7318051  0.147810E-03  0.625E-02    0.72       1.0  T
   3   -100.7305109  0.129411E-02  0.113E-01    0.87       1.0  T
   4   -100.7319019 -0.139098E-02  0.295E-02    0.74       1.0  T
   5   -100.7319915 -0.895393E-04  0.365E-03    0.76       3.2  T
   6   -100.7319922 -0.772419E-06  0.171E-03    0.76       6.9  T
   7   -100.7319923 -0.849453E-07  0.970E-04    0.76      12.2  T
   8   -100.7319924 -0.517242E-07  0.312E-04    0.76      37.8  T
     SCC iter.                  ...        0 min,  0.065 sec
     gradient                   ...        0 min,  0.068 sec
 * total energy  :  -101.9844101 Eh     change       -0.1868919E-02 Eh
   gradient norm :     0.0284887 Eh/α   predicted    -0.1498040E-02 ( -19.84%)
   displ. norm   :     0.5097770 α      lambda       -0.2525831E-02
   maximum displ.:     0.1867175 α      in ANC's #9, #25, #6, ...

........................................................................
.............................. CYCLE   30 ..............................
........................................................................

 iter      E             dE          RMSdq      gap      omega  full diag
   1   -100.7312679 -0.100731E+03  0.914E-02    0.78       0.0  T
   2   -100.7307915  0.476375E-03  0.847E-02    0.70       1.0  T
   3   -100.7300155  0.776062E-03  0.111E-01    0.87       1.0  T
   4   -100.7312961 -0.128064E-02  0.207E-02    0.76       1.0  T
   5   -100.7313318 -0.356912E-04  0.382E-03    0.77       3.1  T
   6   -100.7313320 -0.188376E-06  0.212E-03    0.76       5.6  T
   7   -100.7313321 -0.134022E-06  0.122E-03    0.76       9.6  T
   8   -100.7313322 -0.107251E-06  0.343E-04    0.76      34.4  T
   9   -100.7313322 -0.614220E-08  0.149E-04    0.76      79.2  T
     SCC iter.                  ...        0 min,  0.073 sec
     gradient                   ...        0 min,  0.068 sec
 * total energy  :  -101.9861194 Eh     change       -0.1709335E-02 Eh
   gradient norm :     0.0129787 Eh/α   predicted    -0.1591114E-02 (  -6.92%)
   displ. norm   :     0.4447880 α      lambda       -0.1394483E-02
   maximum displ.:     0.1763743 α      in ANC's #9, #25, #6, ...

........................................................................
.............................. CYCLE   31 ..............................
........................................................................

 iter      E             dE          RMSdq      gap      omega  full diag
   1   -100.7337991 -0.100734E+03  0.671E-02    0.76       0.0  T
   2   -100.7337285  0.706261E-04  0.475E-02    0.79       1.0  T
   3   -100.7325703  0.115819E-02  0.103E-01    0.67       1.0  T
   4   -100.7337952 -0.122494E-02  0.148E-02    0.77       1.0  T
   5   -100.7338154 -0.201920E-04  0.245E-03    0.76       4.8  T
   6   -100.7338156 -0.231979E-06  0.134E-03    0.76       8.8  T
   7   -100.7338157 -0.514598E-07  0.780E-04    0.76      15.1  T
   8   -100.7338157 -0.284933E-07  0.250E-04    0.76      47.2  T
     SCC iter.                  ...        0 min,  0.065 sec
     gradient                   ...        0 min,  0.068 sec
 * total energy  :  -101.9869410 Eh     change       -0.8215656E-03 Eh
   gradient norm :     0.0400481 Eh/α   predicted    -0.8351951E-03 (   1.66%)
   displ. norm   :     0.4668545 α      lambda       -0.1637303E-02
   maximum displ.:     0.2027263 α      in ANC's #9, #6, #25, ...

........................................................................
.............................. CYCLE   32 ..............................
........................................................................

 iter      E             dE          RMSdq      gap      omega  full diag
   1   -100.7343356 -0.100734E+03  0.738E-02    0.74       0.0  T
   2   -100.7339340  0.401566E-03  0.762E-02    0.82       1.0  T
   3   -100.7337667  0.167258E-03  0.778E-02    0.69       1.0  T
   4   -100.7343428 -0.576055E-03  0.213E-02    0.77       1.0  T
   5   -100.7343836 -0.408277E-04  0.377E-03    0.76       3.1  T
   6   -100.7343845 -0.896015E-06  0.185E-03    0.76       6.4  T
   7   -100.7343846 -0.103663E-06  0.925E-04    0.76      12.7  T
   8   -100.7343847 -0.443442E-07  0.244E-04    0.76      48.3  T
     SCC iter.                  ...        0 min,  0.065 sec
     gradient                   ...        0 min,  0.068 sec
 * total energy  :  -101.9879224 Eh     change       -0.9814424E-03 Eh
   gradient norm :     0.0161929 Eh/α   predicted    -0.9970893E-03 (   1.59%)
   displ. norm   :     0.4094508 α      lambda       -0.1310224E-02
   maximum displ.:     0.2183895 α      in ANC's #9, #6, #25, ...

........................................................................
.............................. CYCLE   33 ..............................
........................................................................

 iter      E             dE          RMSdq      gap      omega  full diag
   1   -100.7363888 -0.100736E+03  0.541E-02    0.76       0.0  T
   2   -100.7363912 -0.248271E-05  0.325E-02    0.76       1.0  T
   3   -100.7363539  0.373822E-04  0.198E-02    0.78       1.0  T
   4   -100.7363555 -0.163417E-05  0.180E-02    0.74       1.0  T
   5   -100.7363932 -0.376859E-04  0.240E-03    0.76       4.9  T
   6   -100.7363934 -0.241343E-06  0.127E-03    0.76       9.3  T
   7   -100.7363935 -0.535491E-07  0.602E-04    0.76      19.6  T
   8   -100.7363935 -0.199964E-07  0.187E-04    0.76      63.0  T
     SCC iter.                  ...        0 min,  0.066 sec
     gradient                   ...        0 min,  0.069 sec
 * total energy  :  -101.9888430 Eh     change       -0.9205388E-03 Eh
   gradient norm :     0.0180504 Eh/α   predicted    -0.7649421E-03 ( -16.90%)
   displ. norm   :     0.5782393 α      lambda       -0.1475688E-02
   maximum displ.:     0.2650791 α      in ANC's #9, #6, #25, ...

........................................................................
.............................. CYCLE   34 ..............................
........................................................................

 iter      E             dE          RMSdq      gap      omega  full diag
   1   -100.7345110 -0.100735E+03  0.898E-02    0.72       0.0  T
   2   -100.7329574  0.155362E-02  0.130E-01    0.87       1.0  T
   3   -100.7343054 -0.134809E-02  0.696E-02    0.70       1.0  T
   4   -100.7346646 -0.359120E-03  0.144E-02    0.75       1.0  T
   5   -100.7346769 -0.123667E-04  0.347E-03    0.75       3.4  T
   6   -100.7346775 -0.576945E-06  0.155E-03    0.75       7.6  T
   7   -100.7346776 -0.566336E-07  0.844E-04    0.75      14.0  T
   8   -100.7346776 -0.226483E-07  0.406E-04    0.75      29.1  T
     SCC iter.                  ...        0 min,  0.065 sec
     gradient                   ...        0 min,  0.068 sec
 * total energy  :  -101.9895111 Eh     change       -0.6681238E-03 Eh
   gradient norm :     0.0235589 Eh/α   predicted    -0.9845522E-03 (  47.36%)
   displ. norm   :     0.3941250 α      lambda       -0.1276362E-02
   maximum displ.:     0.2171965 α      in ANC's #9, #6, #11, ...

........................................................................
.............................. CYCLE   35 ..............................
........................................................................

 iter      E             dE          RMSdq      gap      omega  full diag
   1   -100.7422454 -0.100742E+03  0.579E-02    0.75       0.0  T
   2   -100.7422553 -0.994107E-05  0.349E-02    0.75       1.0  T
   3   -100.7420751  0.180220E-03  0.450E-02    0.79       1.0  T
   4   -100.7421242 -0.491382E-04  0.370E-02    0.72       1.0  T
   5   -100.7422743 -0.150083E-03  0.659E-03    0.76       1.8  T
   6   -100.7422777 -0.340485E-05  0.203E-03    0.75       5.8  T
   7   -100.7422779 -0.205204E-06  0.990E-04    0.75      11.9  T
   8   -100.7422779 -0.139069E-07  0.344E-04    0.75      34.3  T
     SCC iter.                  ...        0 min,  0.065 sec
     gradient                   ...        0 min,  0.068 sec
 * total energy  :  -101.9901702 Eh     change       -0.6590752E-03 Eh
   gradient norm :     0.0380282 Eh/α   predicted    -0.7373252E-03 (  11.87%)
   displ. norm   :     0.4209952 α      lambda       -0.1089918E-02
   maximum displ.:     0.2374707 α      in ANC's #9, #6, #25, ...

........................................................................
.............................. CYCLE   36 ..............................
........................................................................

 iter      E             dE          RMSdq      gap      omega  full diag
   1   -100.7365306 -0.100737E+03  0.618E-02    0.79       0.0  T
   2   -100.7358099  0.720720E-03  0.910E-02    0.69       1.0  T
   3   -100.7364441 -0.634257E-03  0.462E-02    0.80       1.0  T
   4   -100.7365751 -0.131004E-03  0.207E-02    0.75       1.0  T
   5   -100.7366087 -0.335553E-04  0.729E-03    0.76       1.6  T
   6   -100.7366125 -0.383654E-05  0.276E-03    0.76       4.3  T
   7   -100.7366129 -0.379197E-06  0.126E-03    0.76       9.4  T
   8   -100.7366130 -0.110619E-06  0.268E-04    0.76      44.0  T
   9   -100.7366130 -0.763876E-09  0.169E-04    0.76      69.9  T
     SCC iter.                  ...        0 min,  0.073 sec
     gradient                   ...        0 min,  0.068 sec
 * total energy  :  -101.9906640 Eh     change       -0.4937944E-03 Eh
   gradient norm :     0.0154344 Eh/α   predicted    -0.6415467E-03 (  29.92%)
   displ. norm   :     0.3108177 α      lambda       -0.1122599E-02
   maximum displ.:     0.1228014 α      in ANC's #6, #11, #9, ...

........................................................................
.............................. CYCLE   37 ..............................
........................................................................

 iter      E             dE          RMSdq      gap      omega  full diag
   1   -100.7444443 -0.100744E+03  0.567E-02    0.77       0.0  T
   2   -100.7443329  0.111337E-03  0.452E-02    0.73       1.0  T
   3   -100.7437746  0.558337E-03  0.812E-02    0.84       1.0  T
   4   -100.7444634 -0.688848E-03  0.948E-03    0.76       1.2  T
   5   -100.7444660 -0.255513E-05  0.448E-03    0.77       2.6  T
   6   -100.7444675 -0.149217E-05  0.157E-03    0.76       7.5  T
   7   -100.7444676 -0.829594E-07  0.851E-04    0.76      13.9  T
   8   -100.7444676 -0.413723E-07  0.212E-04    0.76      55.7  T
     SCC iter.                  ...        0 min,  0.065 sec
     gradient                   ...        0 min,  0.074 sec
 * total energy  :  -101.9909106 Eh     change       -0.2466446E-03 Eh
   gradient norm :     0.0552727 Eh/α   predicted    -0.6155319E-03 ( 149.56%)
   displ. norm   :     0.3780432 α      lambda       -0.1157079E-02
   maximum displ.:     0.1784912 α      in ANC's #9, #6, #5, ...

........................................................................
.............................. CYCLE   38 ..............................
........................................................................

 iter      E             dE          RMSdq      gap      omega  full diag
   1   -100.7380647 -0.100738E+03  0.600E-02    0.75       0.0  T
   2   -100.7379455  0.119203E-03  0.484E-02    0.80       1.0  T
   3   -100.7372657  0.679773E-03  0.871E-02    0.68       1.0  T
   4   -100.7380791 -0.813345E-03  0.684E-03    0.76       1.7  T
   5   -100.7380821 -0.301505E-05  0.234E-03    0.76       5.0  T
   6   -100.7380825 -0.411534E-06  0.975E-04    0.76      12.1  T
   7   -100.7380825 -0.324431E-07  0.605E-04    0.76      19.5  T
     SCC iter.                  ...        0 min,  0.057 sec
     gradient                   ...        0 min,  0.068 sec
 * total energy  :  -101.9915188 Eh     change       -0.6082125E-03 Eh
   gradient norm :     0.0163430 Eh/α   predicted    -0.6612256E-03 (   8.72%)
   displ. norm   :     0.2949619 α      lambda       -0.4555406E-03
   maximum displ.:     0.1486657 α      in ANC's #9, #6, #11, ...

........................................................................
.............................. CYCLE   39 ..............................
........................................................................

 iter      E             dE          RMSdq      gap      omega  full diag
   1   -100.7398451 -0.100740E+03  0.350E-02    0.78       0.0  T
   2   -100.7397240  0.121068E-03  0.405E-02    0.73       1.0  T
   3   -100.7397547 -0.306900E-04  0.344E-02    0.80       1.0  T
   4   -100.7398518 -0.971224E-04  0.127E-02    0.76       1.0  T
   5   -100.7398642 -0.124231E-04  0.284E-03    0.76       4.1  T
   6   -100.7398648 -0.563544E-06  0.128E-03    0.76       9.2  T
   7   -100.7398649 -0.457646E-07  0.670E-04    0.77      17.6  T
   8   -100.7398649 -0.243320E-07  0.145E-04    0.77      81.3  T
     SCC iter.                  ...        0 min,  0.065 sec
     gradient                   ...        0 min,  0.068 sec
 * total energy  :  -101.9918186 Eh     change       -0.2998169E-03 Eh
   gradient norm :     0.0175186 Eh/α   predicted    -0.2475898E-03 ( -17.42%)
   displ. norm   :     0.4535652 α      lambda       -0.4690698E-03
   maximum displ.:     0.2147306 α      in ANC's #9, #6, #5, ...

........................................................................
.............................. CYCLE   40 ..............................
........................................................................

 iter      E             dE          RMSdq      gap      omega  full diag
   1   -100.7398722 -0.100740E+03  0.465E-02    0.77       0.0  T
   2   -100.7398321  0.400762E-04  0.349E-02    0.75       1.0  T
   3   -100.7393975  0.434548E-03  0.665E-02    0.83       1.0  T
   4   -100.7398709 -0.473351E-03  0.100E-02    0.76       1.2  T
   5   -100.7398804 -0.946318E-05  0.223E-03    0.77       5.3  T
   6   -100.7398806 -0.261173E-06  0.115E-03    0.77      10.3  T
   7   -100.7398807 -0.458383E-07  0.570E-04    0.77      20.7  T
   8   -100.7398807 -0.189284E-07  0.144E-04    0.77      81.7  T
     SCC iter.                  ...        0 min,  0.065 sec
     gradient                   ...        0 min,  0.068 sec
 * total energy  :  -101.9921705 Eh     change       -0.3518790E-03 Eh
   gradient norm :     0.0138147 Eh/α   predicted    -0.2827871E-03 ( -19.64%)
   displ. norm   :     0.4754389 α      lambda       -0.7463378E-03
   maximum displ.:     0.2378727 α      in ANC's #10, #9, #6, ...

........................................................................
.............................. CYCLE   41 ..............................
........................................................................

 iter      E             dE          RMSdq      gap      omega  full diag
   1   -100.7468957 -0.100747E+03  0.541E-02    0.75       0.0  T
   2   -100.7465924  0.303244E-03  0.663E-02    0.82       1.0  T
   3   -100.7467890 -0.196596E-03  0.421E-02    0.73       1.0  T
   4   -100.7468983 -0.109307E-03  0.189E-02    0.78       1.0  T
   5   -100.7469316 -0.332389E-04  0.446E-03    0.77       2.6  T
   6   -100.7469331 -0.149513E-05  0.155E-03    0.77       7.6  T
   7   -100.7469331 -0.870168E-07  0.754E-04    0.77      15.6  T
   8   -100.7469332 -0.270463E-07  0.222E-04    0.77      53.2  T
     SCC iter.                  ...        0 min,  0.065 sec
     gradient                   ...        0 min,  0.071 sec
 * total energy  :  -101.9925779 Eh     change       -0.4074250E-03 Eh
   gradient norm :     0.0134787 Eh/α   predicted    -0.4575261E-03 (  12.30%)
   displ. norm   :     0.6128066 α      lambda       -0.6491066E-03
   maximum displ.:     0.3133990 α      in ANC's #9, #6, #10, ...

........................................................................
.............................. CYCLE   42 ..............................
........................................................................

 iter      E             dE          RMSdq      gap      omega  full diag
   1   -100.7427013 -0.100743E+03  0.682E-02    0.78       0.0  T
   2   -100.7425085  0.192805E-03  0.628E-02    0.73       1.0  T
   3   -100.7421093  0.399189E-03  0.767E-02    0.84       1.0  T
   4   -100.7427094 -0.600078E-03  0.118E-02    0.77       1.0  T
   5   -100.7427222 -0.128406E-04  0.329E-03    0.77       3.6  T
   6   -100.7427227 -0.514144E-06  0.161E-03    0.77       7.3  T
   7   -100.7427229 -0.135949E-06  0.484E-04    0.77      24.4  T
   8   -100.7427229 -0.811559E-08  0.233E-04    0.77      50.5  T
     SCC iter.                  ...        0 min,  0.065 sec
     gradient                   ...        0 min,  0.071 sec
 * total energy  :  -101.9930103 Eh     change       -0.4323550E-03 Eh
   gradient norm :     0.0097754 Eh/α   predicted    -0.4464352E-03 (   3.26%)
   displ. norm   :     0.3714001 α      lambda       -0.4214779E-03
   maximum displ.:     0.1989595 α      in ANC's #10, #9, #6, ...
 * RMSD in coord.:     0.8538082 α      energy gain  -0.1053442E+00 Eh

generating ANC from model Hessian ...
Using Lindh-Hessian (1995)
 Shifting diagonal of input Hessian by    9.9596586847091745E-003
 Lowest  eigenvalues of input Hessian
    0.000000    0.000000    0.000000    0.000000    0.000000    0.000000
    0.010000    0.010031    0.010127    0.010219    0.010296    0.010402
    0.010623    0.010984    0.011225    0.011309    0.011907    0.012135
 Highest eigenvalues
    2.048212    2.179989    2.182988    2.354313    2.502962    2.705650


........................................................................
.............................. CYCLE   43 ..............................
........................................................................

 iter      E             dE          RMSdq      gap      omega  full diag
   1   -100.7425279 -0.100743E+03  0.508E-02    0.74       0.0  T
   2   -100.7414509  0.107694E-02  0.107E-01    0.87       1.0  T
   3   -100.7426142 -0.116324E-02  0.250E-02    0.76       1.0  T
   4   -100.7426210 -0.677169E-05  0.977E-03    0.77       1.2  T
   5   -100.7426290 -0.804593E-05  0.254E-03    0.77       4.6  T
   6   -100.7426294 -0.360767E-06  0.118E-03    0.77      10.0  T
   7   -100.7426294 -0.630295E-07  0.667E-04    0.77      17.7  T
   8   -100.7426294 -0.256635E-07  0.178E-04    0.77      66.0  T
     SCC iter.                  ...        0 min,  0.065 sec
     gradient                   ...        0 min,  0.068 sec
 * total energy  :  -101.9933199 Eh     change       -0.3096280E-03 Eh
   gradient norm :     0.0116231 Eh/α   predicted     0.0000000E+00 (-100.00%)
   displ. norm   :     0.1101556 α      lambda       -0.3483445E-03
   maximum displ.:     0.0703607 α      in ANC's #9, #26, #6, ...

........................................................................
.............................. CYCLE   44 ..............................
........................................................................

 iter      E             dE          RMSdq      gap      omega  full diag
   1   -100.7438465 -0.100744E+03  0.206E-02    0.76       0.0  T
   2   -100.7438296  0.169234E-04  0.199E-02    0.78       1.0  T
   3   -100.7438103  0.192480E-04  0.202E-02    0.75       1.0  T
   4   -100.7438411 -0.307524E-04  0.105E-02    0.78       1.1  T
   5   -100.7438510 -0.987311E-05  0.151E-03    0.77       7.8  T
   6   -100.7438511 -0.126468E-06  0.679E-04    0.77      17.4  T
   7   -100.7438511 -0.265002E-07  0.327E-04    0.77      36.0  T
     SCC iter.                  ...        0 min,  0.057 sec
     gradient                   ...        0 min,  0.074 sec
 * total energy  :  -101.9935607 Eh     change       -0.2407788E-03 Eh
   gradient norm :     0.0161660 Eh/α   predicted    -0.1762913E-03 ( -26.78%)
   displ. norm   :     0.2920988 α      lambda       -0.5850416E-03
   maximum displ.:     0.1887030 α      in ANC's #9, #26, #6, ...

........................................................................
.............................. CYCLE   45 ..............................
........................................................................

 iter      E             dE          RMSdq      gap      omega  full diag
   1   -100.7442646 -0.100744E+03  0.428E-02    0.76       0.0  T
   2   -100.7442462  0.183375E-04  0.323E-02    0.78       1.0  T
   3   -100.7440159  0.230316E-03  0.498E-02    0.72       1.0  T
   4   -100.7442227 -0.206834E-03  0.235E-02    0.79       1.0  T
   5   -100.7442777 -0.549243E-04  0.240E-03    0.77       4.9  T
   6   -100.7442780 -0.304276E-06  0.118E-03    0.77      10.0  T
   7   -100.7442780 -0.661190E-07  0.541E-04    0.77      21.8  T
   8   -100.7442781 -0.104643E-07  0.196E-04    0.77      60.2  T
     SCC iter.                  ...        0 min,  0.065 sec
     gradient                   ...        0 min,  0.068 sec
 * total energy  :  -101.9938047 Eh     change       -0.2439658E-03 Eh
   gradient norm :     0.0226003 Eh/α   predicted    -0.3176378E-03 (  30.20%)
   displ. norm   :     0.1932857 α      lambda       -0.3371860E-03
   maximum displ.:     0.1262098 α      in ANC's #9, #26, #6, ...

........................................................................
.............................. CYCLE   46 ..............................
........................................................................

 iter      E             dE          RMSdq      gap      omega  full diag
   1   -100.7434686 -0.100743E+03  0.225E-02    0.78       0.0  T
   2   -100.7432710  0.197660E-03  0.462E-02    0.73       1.0  T
   3   -100.7434835 -0.212572E-03  0.112E-02    0.78       1.0  T
   4   -100.7434855 -0.192746E-05  0.332E-03    0.77       3.5  T
   5   -100.7434863 -0.849647E-06  0.156E-03    0.77       7.6  T
   6   -100.7434865 -0.148041E-06  0.695E-04    0.77      17.0  T
   7   -100.7434865 -0.310046E-07  0.307E-04    0.77      38.4  T
     SCC iter.                  ...        0 min,  0.057 sec
     gradient                   ...        0 min,  0.068 sec
 * total energy  :  -101.9940826 Eh     change       -0.2779723E-03 Eh
   gradient norm :     0.0067039 Eh/α   predicted    -0.1749436E-03 ( -37.06%)
   displ. norm   :     0.3819226 α      lambda       -0.5119682E-03
   maximum displ.:     0.2398821 α      in ANC's #9, #26, #6, ...

........................................................................
.............................. CYCLE   47 ..............................
........................................................................

 iter      E             dE          RMSdq      gap      omega  full diag
   1   -100.7417145 -0.100742E+03  0.434E-02    0.80       0.0  T
   2   -100.7409718  0.742772E-03  0.899E-02    0.70       1.0  T
   3   -100.7417707 -0.798973E-03  0.217E-02    0.79       1.0  T
   4   -100.7417736 -0.282381E-05  0.917E-03    0.78       1.3  T
   5   -100.7417801 -0.654255E-05  0.310E-03    0.78       3.8  T
   6   -100.7417806 -0.538923E-06  0.132E-03    0.78       8.9  T
   7   -100.7417808 -0.107560E-06  0.528E-04    0.78      22.3  T
   8   -100.7417808 -0.183777E-07  0.138E-04    0.78      85.5  T
     SCC iter.                  ...        0 min,  0.065 sec
     gradient                   ...        0 min,  0.068 sec
 * total energy  :  -101.9944558 Eh     change       -0.3731706E-03 Eh
   gradient norm :     0.0167550 Eh/α   predicted    -0.2933333E-03 ( -21.39%)
   displ. norm   :     0.3452131 α      lambda       -0.3223899E-03
   maximum displ.:     0.2210527 α      in ANC's #9, #6, #10, ...

........................................................................
.............................. CYCLE   48 ..............................
........................................................................

 iter      E             dE          RMSdq      gap      omega  full diag
   1   -100.7410394 -0.100741E+03  0.337E-02    0.80       0.0  T
   2   -100.7407567  0.282633E-03  0.565E-02    0.74       1.0  T
   3   -100.7410410 -0.284220E-03  0.214E-02    0.80       1.0  T
   4   -100.7410621 -0.211799E-04  0.710E-03    0.78       1.7  T
   5   -100.7410657 -0.357583E-05  0.176E-03    0.79       6.7  T
   6   -100.7410658 -0.110142E-06  0.932E-04    0.79      12.6  T
   7   -100.7410659 -0.566318E-07  0.254E-04    0.79      46.4  T
     SCC iter.                  ...        0 min,  0.058 sec
     gradient                   ...        0 min,  0.068 sec
 * total energy  :  -101.9947073 Eh     change       -0.2515025E-03 Eh
   gradient norm :     0.0176371 Eh/α   predicted    -0.1804069E-03 ( -28.27%)
   displ. norm   :     0.3784210 α      lambda       -0.4046540E-03
   maximum displ.:     0.2500348 α      in ANC's #9, #6, #10, ...

........................................................................
.............................. CYCLE   49 ..............................
........................................................................

 iter      E             dE          RMSdq      gap      omega  full diag
   1   -100.7427249 -0.100743E+03  0.334E-02    0.80       0.0  T
   2   -100.7426727  0.522417E-04  0.300E-02    0.77       1.0  T
   3   -100.7425719  0.100821E-03  0.410E-02    0.83       1.0  T
   4   -100.7427288 -0.156910E-03  0.830E-03    0.79       1.4  T
   5   -100.7427334 -0.455811E-05  0.172E-03    0.79       6.8  T
   6   -100.7427335 -0.180418E-06  0.729E-04    0.79      16.2  T
   7   -100.7427336 -0.167536E-07  0.387E-04    0.79      30.5  T
     SCC iter.                  ...        0 min,  0.057 sec
     gradient                   ...        0 min,  0.068 sec
 * total energy  :  -101.9950194 Eh     change       -0.3120728E-03 Eh
   gradient norm :     0.0097699 Eh/α   predicted    -0.2313014E-03 ( -25.88%)
   displ. norm   :     0.4774101 α      lambda       -0.3990912E-03
   maximum displ.:     0.3184236 α      in ANC's #9, #6, #10, ...

........................................................................
.............................. CYCLE   50 ..............................
........................................................................

 iter      E             dE          RMSdq      gap      omega  full diag
   1   -100.7421864 -0.100742E+03  0.411E-02    0.80       0.0  T
   2   -100.7421869 -0.555342E-06  0.248E-02    0.79       1.0  T
   3   -100.7421136  0.732962E-04  0.276E-02    0.82       1.0  T
   4   -100.7421540 -0.404061E-04  0.183E-02    0.78       1.0  T
   5   -100.7421902 -0.361139E-04  0.196E-03    0.80       6.0  T
   6   -100.7421905 -0.298438E-06  0.805E-04    0.80      14.6  T
   7   -100.7421905 -0.229341E-07  0.310E-04    0.80      38.0  T
     SCC iter.                  ...        0 min,  0.057 sec
     gradient                   ...        0 min,  0.068 sec
 * total energy  :  -101.9953221 Eh     change       -0.3027457E-03 Eh
   gradient norm :     0.0070517 Eh/α   predicted    -0.2450331E-03 ( -19.06%)
   displ. norm   :     0.4140173 α      lambda       -0.4151322E-03
   maximum displ.:     0.2850683 α      in ANC's #9, #6, #7, ...

........................................................................
.............................. CYCLE   51 ..............................
........................................................................

 iter      E             dE          RMSdq      gap      omega  full diag
   1   -100.7471729 -0.100747E+03  0.411E-02    0.78       0.0  T
   2   -100.7469719  0.200936E-03  0.537E-02    0.84       1.0  T
   3   -100.7471389 -0.166955E-03  0.291E-02    0.77       1.0  T
   4   -100.7471719 -0.330616E-04  0.176E-02    0.81       1.0  T
   5   -100.7471990 -0.270911E-04  0.442E-03    0.80       2.7  T
[...]
         :: gradient norm              0.003454805056 Eh/a0 ::
         :: HOMO-LUMO gap              0.813989852764 eV    ::
         ::.................................................::
         :: SCC energy              -100.746358797787 Eh    ::
         :: -> isotropic ES            0.112600621529 Eh    ::
         :: -> anisotropic ES          0.008410505709 Eh    ::
         :: -> anisotropic XC          0.036084679594 Eh    ::
         :: -> dispersion             -0.072546101694 Eh    ::
         :: repulsion energy           1.548674621640 Eh    ::
         :: add. restraining          -2.799917101120 Eh    ::
         :: total charge               1.000000000000 e     ::
         :::::::::::::::::::::::::::::::::::::::::::::::::::::

           -------------------------------------------------
          |                Property Printout                |
           -------------------------------------------------

    * Orbital Energies and Occupations

         #    Occupation            Energy/Eh            Energy/eV
      -------------------------------------------------------------
         1        2.0000           -0.8093516             -22.0236
       ...           ...                  ...                  ...
        78        1.9997           -0.5308995             -14.4465
        79        1.9996           -0.5274138             -14.3517
        80        1.9996           -0.5254648             -14.2986
        81        1.9995           -0.5217571             -14.1977
        82        1.9993           -0.5169585             -14.0672
        83        1.9991           -0.5132275             -13.9656
        84        1.9990           -0.5118353             -13.9277
        85        1.9984           -0.5047539             -13.7351
        86        1.9954           -0.4876540             -13.2697
        87        1.9878           -0.4722314             -12.8501
        88        1.9668           -0.4561680             -12.4130
        89        1.9121           -0.4403184             -11.9817
        90        1.4479           -0.4068109             -11.0699 (HOMO)
        91        0.5678           -0.3768973             -10.2559 (LUMO)
        92        0.1036           -0.3455180              -9.4020
        93        0.0138           -0.3128510              -8.5131
        94        0.0047           -0.2958634              -8.0509
        95        0.0040           -0.2933147              -7.9815
        96        0.0036           -0.2914616              -7.9311
        97        0.0000           -0.1843527              -5.0165
        98        0.0000           -0.1704457              -4.6381
        99        0.0000           -0.1412621              -3.8439
       100                         -0.1144659              -3.1148
       101                         -0.0795160              -2.1637
       ...                                ...                  ...
       171                          0.9773514              26.5951
      -------------------------------------------------------------
                  HL-Gap            0.0299136 Eh            0.8140 eV
             Fermi-level           -0.3915451 Eh          -10.6545 eV

     #   Z          covCN         q      C6AA      α(0)
     1   7 N        3.534    -0.050    22.197     6.998
     2   6 C        2.833    -0.052    29.270     8.866
     3   6 C        2.950     0.002    27.973     8.675
     4   6 C        2.973    -0.014    28.358     8.735
     5   6 C        2.920    -0.081    30.016     8.984
     6   6 C        2.862     0.128    25.199     8.228
     7   8 O        1.706    -0.238    17.946     5.720
     8   6 C        3.645     0.030    20.398     6.491
     9   6 C        2.864     0.126    25.225     8.233
    10   8 O        1.706    -0.236    17.906     5.713
    11   6 C        3.645     0.030    20.409     6.493
    12   6 C        2.913    -0.078    29.940     8.972
    13   6 C        2.921    -0.069    29.722     8.940
    14   6 C        3.812    -0.066    21.749     6.638
    15   6 C        3.804    -0.065    21.736     6.637
    16   6 C        2.845    -0.019    28.465     8.744
    17   7 N        2.728    -0.002    21.297     6.854
    18   6 C        3.757    -0.016    20.910     6.520
    19   6 C        3.807    -0.070    21.829     6.651
    20   6 C        2.969    -0.004    28.119     8.698
    21   6 C        2.923    -0.052    29.302     8.877
    22   6 C        2.915    -0.070    29.748     8.944
    23   6 C        2.865     0.129    25.169     8.223
    24   8 O        1.706    -0.233    17.868     5.707
    25   6 C        3.645     0.029    20.425     6.495
    26   6 C        2.863     0.129    25.168     8.223
    27   8 O        1.706    -0.235    17.897     5.712
    28   6 C        3.645     0.030    20.396     6.491
    29   6 C        2.920    -0.081    30.030     8.986
    30   6 C        3.699    -0.067    21.950     6.701
    31   6 C        2.863    -0.086    30.161     9.002
    32   6 C        3.753    -0.110    22.671     6.790
    33   6 C        3.752    -0.112    22.711     6.796
    34   1 H        0.926     0.045     2.381     2.413
    35   1 H        0.924     0.047     2.353     2.399
    36   1 H        0.925     0.078     2.000     2.212
    37   1 H        0.924     0.045     2.386     2.416
    38   1 H        0.924     0.048     2.343     2.394
    39   1 H        0.925     0.078     1.997     2.210
    40   1 H        0.924     0.046     2.369     2.407
    41   1 H        0.926     0.045     2.383     2.414
    42   1 H        0.925     0.019     2.751     2.594
    43   1 H        0.924     0.066     2.126     2.280
    44   1 H        0.924     0.051     2.310     2.377
    45   1 H        0.925     0.062     2.172     2.305
    46   1 H        0.924     0.070     2.082     2.256
    47   1 H        0.926     0.057     2.233     2.337
    48   1 H        0.926     0.056     2.251     2.346
    49   1 H        0.924     0.061     2.188     2.313
    50   1 H        0.924     0.063     2.162     2.300
    51   1 H        0.924     0.052     2.295     2.369
    52   1 H        0.924     0.051     2.303     2.373
    53   1 H        0.926     0.039     2.468     2.456
    54   1 H        0.926     0.052     2.295     2.369
    55   1 H        0.924     0.048     2.342     2.393
    56   1 H        0.924     0.051     2.311     2.377
    57   1 H        0.925     0.077     2.010     2.217
    58   1 H        0.925     0.077     2.013     2.219
    59   1 H        0.924     0.043     2.403     2.424
    60   1 H        0.924     0.048     2.342     2.393
    61   1 H        0.926     0.043     2.413     2.429
    62   1 H        0.924     0.070     2.084     2.258
    63   1 H        0.924     0.074     2.040     2.234
    64   1 H        0.925     0.073     2.051     2.240
    65   1 H        0.864     0.242     0.913     1.497
    66   1 H        0.924     0.035     2.513     2.479
    67   1 H        0.923     0.036     2.506     2.475
    68   1 H        0.925     0.064     2.157     2.297
    69   1 H        0.924     0.034     2.532     2.488
    70   1 H        0.923     0.042     2.418     2.432
    71   1 H        0.925     0.064     2.147     2.292
    72   1 H        0.859     0.216     1.028     1.588

 Mol. C6AA /au·bohr⁶  :      48123.329499
 Mol. C8AA /au·bohr⁸  :    1100432.476088
 Mol. α(0) /au        :        339.006926


Wiberg/Mayer (AO) data.
largest (>0.10) Wiberg bond orders for each atom

 ---------------------------------------------------------------------------
     #   Z sym  total        # sym  WBO       # sym  WBO       # sym  WBO
 ---------------------------------------------------------------------------
     1   7 N    3.693 --     2 C    0.931    72 H    0.923    65 H    0.916
                            31 C    0.848
     2   6 C    3.801 --     3 C    1.733    47 H    0.966     1 N    0.931
     3   6 C    3.914 --     2 C    1.733     4 C    1.060    14 C    1.007
     4   6 C    3.959 --    13 C    1.384     5 C    1.333     3 C    1.060
     5   6 C    3.956 --     6 C    1.418     4 C    1.333    34 H    0.961
     6   6 C    3.923 --     5 C    1.418     9 C    1.225     7 O    1.092
     7   8 O    2.265 --     6 C    1.092     8 C    0.980
     8   6 C    3.937 --     7 O    0.980    36 H    0.977    37 H    0.975
                            35 H    0.975
     9   6 C    3.906 --    12 C    1.393     6 C    1.225    10 O    1.096
    10   8 O    2.261 --     9 C    1.096    11 C    0.979
    11   6 C    3.936 --    10 O    0.979    39 H    0.977    38 H    0.975
                            40 H    0.975
    12   6 C    3.970 --    13 C    1.406     9 C    1.393    41 H    0.965
    13   6 C    3.953 --    12 C    1.406     4 C    1.384    42 H    0.969
    14   6 C    3.966 --     3 C    1.007    44 H    0.973    15 C    0.964
                            43 H    0.952
    15   6 C    3.988 --    16 C    1.059    45 H    0.967    14 C    0.964
                            46 H    0.941
    16   6 C    3.464 --    17 N    1.349    15 C    1.059    48 H    0.962
    17   7 N    3.407 --    16 C    1.349    30 C    1.002    18 C    0.992
    18   6 C    3.960 --    17 N    0.992    50 H    0.968    49 H    0.966
                            19 C    0.965
    19   6 C    3.974 --    20 C    1.008    52 H    0.973    51 H    0.972
                            18 C    0.965
    20   6 C    3.959 --    21 C    1.420    29 C    1.375    19 C    1.008
    21   6 C    3.963 --    20 C    1.420    22 C    1.411    53 H    0.969
    22   6 C    3.969 --    21 C    1.411    23 C    1.393    54 H    0.964
    23   6 C    3.910 --    22 C    1.393    26 C    1.233    24 O    1.095
    24   8 O    2.253 --    23 C    1.095    25 C    0.979
    25   6 C    3.935 --    24 O    0.979    57 H    0.978    55 H    0.974
                            56 H    0.974
    26   6 C    3.913 --    29 C    1.403    23 C    1.233    27 O    1.090
    27   8 O    2.253 --    26 C    1.090    28 C    0.982
    28   6 C    3.938 --    27 O    0.982    58 H    0.978    59 H    0.975
                            60 H    0.975
    29   6 C    3.966 --    26 C    1.403    20 C    1.375    61 H    0.963
    30   6 C    3.962 --    17 N    1.002    64 H    0.978    62 H    0.967
                            63 H    0.964
    31   6 C    3.037 --    33 C    1.046    32 C    1.044     1 N    0.848
    32   6 C    3.979 --    31 C    1.044    66 H    0.979    68 H    0.975
                            67 H    0.950
    33   6 C    3.977 --    31 C    1.046    69 H    0.980    71 H    0.971
                            70 H    0.952
    34   1 H    0.997 --     5 C    0.961
    35   1 H    0.997 --     8 C    0.975
    36   1 H    0.993 --     8 C    0.977
    37   1 H    0.997 --     8 C    0.975
    38   1 H    0.996 --    11 C    0.975
    39   1 H    0.993 --    11 C    0.977
    40   1 H    0.996 --    11 C    0.975
    41   1 H    0.997 --    12 C    0.965
    42   1 H    0.999 --    13 C    0.969
    43   1 H    0.990 --    14 C    0.952
    44   1 H    0.997 --    14 C    0.973
    45   1 H    0.996 --    15 C    0.967
    46   1 H    0.970 --    15 C    0.941
    47   1 H    0.996 --     2 C    0.966
    48   1 H    0.997 --    16 C    0.962
    49   1 H    0.992 --    18 C    0.966
    50   1 H    0.994 --    18 C    0.968
    51   1 H    0.996 --    19 C    0.972
    52   1 H    0.997 --    19 C    0.973
    53   1 H    0.998 --    21 C    0.969
    54   1 H    0.996 --    22 C    0.964
    55   1 H    0.995 --    25 C    0.974
    56   1 H    0.994 --    25 C    0.974
    57   1 H    0.993 --    25 C    0.978
    58   1 H    0.994 --    28 C    0.978
    59   1 H    0.996 --    28 C    0.975
    60   1 H    0.995 --    28 C    0.975
    61   1 H    0.997 --    29 C    0.963
    62   1 H    0.983 --    30 C    0.967
    63   1 H    0.987 --    30 C    0.964
    64   1 H    0.994 --    30 C    0.978
    65   1 H    0.940 --     1 N    0.916
    66   1 H    0.992 --    32 C    0.979
    67   1 H    0.958 --    32 C    0.950
    68   1 H    0.993 --    32 C    0.975
    69   1 H    0.996 --    33 C    0.980
    70   1 H    0.956 --    33 C    0.952
    71   1 H    0.988 --    33 C    0.971
    72   1 H    0.950 --     1 N    0.923
 ---------------------------------------------------------------------------

Topologies differ in total number of bonds
Writing topology from bond orders to xtbtopo.mol

molecular dipole:
                 x           y           z       tot (Debye)
 q only:       -0.910       1.236       0.412
   full:       -0.835       1.330       0.214       4.029
molecular quadrupole (traceless):
                xx          xy          yy          xz          yz          zz
 q only:       30.066      -6.748      -7.565      -4.367       0.763     -22.500
  q+dip:       22.255      -4.057      -2.263      -1.732      -2.440     -19.993
   full:       22.673      -5.595      -3.358      -3.787      -1.551     -19.315

           -------------------------------------------------
          |                Geometry Summary                 |
           -------------------------------------------------

      molecular mass/u    :      455.6105846
   center of mass at/Å    :        0.0059487      -0.0110161      -0.0079663
  moments of inertia/u·Å² :        0.2653028E+04   0.1138930E+05   0.1252805E+05
rotational constants/cm⁻¹ :        0.6354109E-02   0.1480129E-02   0.1345591E-02

 * 65 selected distances

     #   Z          #   Z                                           value/Å
     1   7 N        2   6 C                                       1.4724806
     2   6 C        3   6 C                                       1.3431939
     4   6 C        5   6 C                                       1.4011805
     5   6 C        6   6 C                                       1.3818046
     6   6 C        7   8 O                                       1.3504954
     7   8 O        8   6 C                                       1.4073194
     6   6 C        9   6 C                                       1.4212437
     9   6 C       10   8 O                                       1.3495550
    10   8 O       11   6 C                                       1.4073025
     9   6 C       12   6 C                                       1.3858389
     4   6 C       13   6 C                                       1.3918747
    12   6 C       13   6 C                                       1.3884910
    15   6 C       16   6 C                                       1.4786308 (max)
    16   6 C       17   7 N                                       1.3385079
    17   7 N       18   6 C                                       1.4423947
    20   6 C       21   6 C                                       1.3838527
    21   6 C       22   6 C                                       1.3870796
    22   6 C       23   6 C                                       1.3859173
    23   6 C       24   8 O                                       1.3506518
    24   8 O       25   6 C                                       1.4080697
    23   6 C       26   6 C                                       1.4194619
    26   6 C       27   8 O                                       1.3523679
    27   8 O       28   6 C                                       1.4064807
    20   6 C       29   6 C                                       1.3934464
    26   6 C       29   6 C                                       1.3847277
    17   7 N       30   6 C                                       1.4423068
     5   6 C       34   1 H                                       1.0772543
     8   6 C       35   1 H                                       1.0948609
     8   6 C       36   1 H                                       1.0880950
     8   6 C       37   1 H                                       1.0949081
    11   6 C       38   1 H                                       1.0946672
    11   6 C       39   1 H                                       1.0882398
    11   6 C       40   1 H                                       1.0947669
    12   6 C       41   1 H                                       1.0779016
    13   6 C       42   1 H                                       1.0815561
    14   6 C       43   1 H                                       1.0912772
    14   6 C       44   1 H                                       1.0903397
    15   6 C       45   1 H                                       1.0883763
    15   6 C       46   1 H                                       1.0963751
     2   6 C       47   1 H                                       1.0762418
    16   6 C       48   1 H                                       1.0774394
    18   6 C       49   1 H                                       1.0928012
    18   6 C       50   1 H                                       1.0919747
    19   6 C       51   1 H                                       1.0915928
    19   6 C       52   1 H                                       1.0905692
    21   6 C       53   1 H                                       1.0796992
    22   6 C       54   1 H                                       1.0776859
    25   6 C       55   1 H                                       1.0947210
    25   6 C       56   1 H                                       1.0943929
    25   6 C       57   1 H                                       1.0883842
    28   6 C       58   1 H                                       1.0883313
    28   6 C       59   1 H                                       1.0951195
    28   6 C       60   1 H                                       1.0946733
    29   6 C       61   1 H                                       1.0788745
    30   6 C       62   1 H                                       1.0932212
    30   6 C       63   1 H                                       1.0918671
    30   6 C       64   1 H                                       1.0874107
     1   7 N       65   1 H                                       0.7267286 (min)
    32   6 C       66   1 H                                       1.0905155
    32   6 C       67   1 H                                       1.0989172
    32   6 C       68   1 H                                       1.0866546
    33   6 C       69   1 H                                       1.0910469
    33   6 C       70   1 H                                       1.0982138
    33   6 C       71   1 H                                       1.0868917
     1   7 N       72   1 H                                       1.0300015

 * 5 distinct bonds (by element types)

   Z      Z             #   av. dist./Å        max./Å        min./Å
   1 H    6 C          37     1.0890772     1.0989172     1.0762418
   6 C    6 C          14     1.3961960     1.4786308     1.3431939
   1 H    7 N           2     0.8783650     1.0300015     0.7267286
   6 C    7 N           4     1.4239225     1.4724806     1.3385079
   6 C    8 O           8     1.3790303     1.4080697     1.3495550


optimized geometry written to: xtbopt.xyz


           -------------------------------------------------
          | TOTAL ENERGY             -101.996448139483 Eh   |
          | GRADIENT NORM               0.003454805056 Eh/α |
          | HOMO-LUMO GAP               0.813989852764 eV   |
           -------------------------------------------------

------------------------------------------------------------------------
 * finished run on 2024/04/06 at 11:15:29.659     
------------------------------------------------------------------------
 total:
 * wall-time:     0 d,  0 h,  0 min, 10.673 sec
 *  cpu-time:     0 d,  0 h,  0 min, 10.652 sec
 * ratio c/w:     0.998 speedup
 SCF:
 * wall-time:     0 d,  0 h,  0 min,  0.192 sec
 *  cpu-time:     0 d,  0 h,  0 min,  0.192 sec
 * ratio c/w:     1.000 speedup
 ANC optimizer:
 * wall-time:     0 d,  0 h,  0 min, 10.441 sec
 *  cpu-time:     0 d,  0 h,  0 min, 10.437 sec
 * ratio c/w:     1.000 speedup

