25
 energy: -43.448301445579 gnorm: 0.119782293435 xtb: 6.6.1 (8d0f1dd)
C            3.26116475857651        1.20277576367840        0.09197949490805
N            2.31587584298463        0.10519025407682        0.03627512325514
C            2.61831711858857       -1.24401939300923        0.03042283587393
N            1.44171264909093       -1.93270927060579        0.00936599130916
C            0.43264000533007       -1.05374599955908       -0.01310485413519
C            0.94680109792937        0.24047489936764        0.00382002803592
C            0.11514347105616        1.37470998239358       -0.01110642076212
O            0.47136302235686        2.56790197810100       -0.01413434350012
N           -1.26730978567676        1.03358229473386       -0.03206210645317
C           -2.21829444655703        2.12867997819532       -0.04968074928761
C           -1.82354826415345       -0.23426264593324       -0.05115081442743
O           -3.02996158157994       -0.41339853103940       -0.07084277234429
N           -0.91552515275183       -1.34348591738279       -0.04378771727920
C           -1.60143490325341       -2.61329365123063       -0.06074172003147
H            3.75697910504090        1.25668737406535        1.06860523108048
H            4.03492364464075        1.14711360113476       -0.68983272187778
H            2.69412826398295        2.15496023105248       -0.01769449908920
H            3.59447940686102       -1.68707781193751        0.04490742913358
H           -1.64580740570119        3.06207306283118       -0.02537443007288
H           -2.81895518855177        2.06428028382528       -0.95410027726764
H           -2.86126362329722        2.04644732235261        0.82329070229901
H           -1.33182801773530       -3.20900638390529        0.83385043239201
H           -1.30363044884571       -3.19451283624939       -0.95740957714484
H           -2.60645829583768       -2.46771574162375       -0.07627835700232
H            1.32133289767566       -2.93406385019266       -0.00695714968078
25
 energy: -43.455478306632 gnorm: 0.035209484157 xtb: 6.6.1 (8d0f1dd)
C            3.25255513707251        1.20091452980300        0.09801647051169
N            2.32042382206238        0.10824565286012        0.03461096655376
C            2.61930189901804       -1.24353719442393        0.03142774042450
N            1.43266659968052       -1.93313346371684        0.00699847660054
C            0.41538393878531       -1.05494222379638       -0.01335694556660
C            0.93793998752341        0.23585240644726        0.00292728832915
C            0.11457253899292        1.37751866635745       -0.01285593477819
O            0.47197224212841        2.56512251096579       -0.01352357459303
N           -1.26755872343445        1.03383690003735       -0.03313994090596
C           -2.22017094419166        2.12823140561300       -0.04879632877669
C           -1.81859781356864       -0.21732651269099       -0.05033057220353
O           -3.01917639538118       -0.39521854228884       -0.07085440551311
N           -0.92778890824005       -1.32472863116867       -0.04321282413237
C           -1.56229343125964       -2.62378417622215       -0.06085996554597
H            3.75585373195445        1.23851344974725        1.07002874453785
H            4.01112507161069        1.13033582414478       -0.68734818771238
H            2.68464776541358        2.13199507601216       -0.02599498132923
H            3.59103331450362       -1.68125481691897        0.04731877697635
H           -1.64534913656938        3.05393147768673       -0.02611907142031
H           -2.82567811300353        2.07384688396549       -0.95218798711308
H           -2.86967499059151        2.05713825870375        0.82224936642744
H           -1.30110122785887       -3.20913520718417        0.83227240280991
H           -1.27392343074959       -3.19607482212844       -0.95472157689171
H           -2.61879265511702       -2.46515444742738       -0.07629739448635
H            1.32347389139276       -2.93360801123786       -0.00799178427144
25
 energy: -43.456049347390 gnorm: 0.012426295450 xtb: 6.6.1 (8d0f1dd)
C            3.25605714039278        1.21153858871852        0.09626122519897
N            2.33045358038605        0.11367043237757        0.02873542765694
C            2.62605626187124       -1.24218289732614        0.03048486265321
N            1.43523939326733       -1.93558271902377        0.00794032170587
C            0.41117379119384       -1.06233452660679       -0.01232531630467
C            0.93761252344166        0.22894268151045        0.00293825040593
C            0.11676352698222        1.37389785789894       -0.01226801531430
O            0.46926985577753        2.55967987309504       -0.01403795023078
N           -1.26670616172826        1.02300738816150       -0.03363490280781
C           -2.21606802452010        2.11985569358599       -0.04895494295806
C           -1.81552337622991       -0.21988621321014       -0.05027025969518
O           -3.01522481518190       -0.40756669634954       -0.07104068588790
N           -0.93297928339507       -1.32126835962505       -0.04191646420636
C           -1.56212626511501       -2.62458755525837       -0.06073508732397
H            3.75910480835153        1.25120391568453        1.06726392055390
H            4.02295688095134        1.14762126725184       -0.68176366142390
H            2.69715333466348        2.14070698444363       -0.02155796097991
H            3.59532949590821       -1.67930865716295        0.04365614077212
H           -1.64577653542952        3.04746200579132       -0.02575065581595
H           -2.82180472256071        2.06320969987008       -0.95291776265525
H           -2.86589010071201        2.04544138204096        0.82207292978928
H           -1.33246990330780       -3.20629392328961        0.83501239403928
H           -1.30385882476044       -3.19180252875382       -0.95796065179453
H           -2.63560864271819       -2.44138488220437       -0.07660337670395
H            1.33771023264477       -2.93645381848028       -0.00436902074172
25
 energy: -43.456349679492 gnorm: 0.005592820757 xtb: 6.6.1 (8d0f1dd)
C            3.25430203596889        1.20704734960594        0.09553965392679
N            2.32744851580248        0.11204331070369        0.02949931613900
C            2.62059888448157       -1.24470154829852        0.03300384774883
N            1.42922051430266       -1.93495136320668        0.00761781422983
C            0.40806107868755       -1.06010892710501       -0.01249088587151
C            0.93465203203054        0.23051846433739        0.00418176830357
C            0.11626940847898        1.37772773961647       -0.01199813074460
O            0.46874920670955        2.56299869342398       -0.01316038662553
N           -1.26960889908447        1.02677392243071       -0.03366945245869
C           -2.21650501838551        2.12726963280350       -0.04882401011511
C           -1.81894650524801       -0.21719333459161       -0.05054531456200
O           -3.02026029297373       -0.40633783650055       -0.07104149026734
N           -0.93545540037950       -1.31861176863497       -0.04260100599994
C           -1.55214702299947       -2.62863120658529       -0.06099560122188
H            3.75722882110314        1.24626461508368        1.06754222156758
H            4.02067963241398        1.13819059793454       -0.68487186228780
H            2.69384801561700        2.13718098494658       -0.02267376043162
H            3.58893983664750       -1.68522715781329        0.04590196805227
H           -1.64567968513747        3.05538469908437       -0.02583628624546
H           -2.82304349392212        2.07176669286028       -0.95243077790767
H           -2.86629341179750        2.05424854123174        0.82236520269870
H           -1.31255649951959       -3.20546140255162        0.83374227758625
H           -1.28449138636890       -3.19139029980921       -0.95674737867924
H           -2.62516595291962       -2.46148216770989       -0.07665260630677
H            1.33099975666511       -2.93573323811672       -0.00659636259640
25
 energy: -43.456376448590 gnorm: 0.002980091024 xtb: 6.6.1 (8d0f1dd)
C            3.25285446915930        1.20609682905516        0.09744755639911
N            2.32752077055752        0.11145100288427        0.03029057820402
C            2.62214993879809       -1.24425958261456        0.03286084092115
N            1.43164567254120       -1.93477211773056        0.00702619311303
C            0.41073849660115       -1.06044571823900       -0.01299624803193
C            0.93581109574648        0.23049935015774        0.00411228843972
C            0.11889494582839        1.37824338080826       -0.01286891965831
O            0.47116796416136        2.56325819021942       -0.01381496830715
N           -1.26797315909059        1.02749189379404       -0.03383327146593
C           -2.21779552677301        2.12548396265911       -0.04901672137461
C           -1.81690232575257       -0.21663331367878       -0.05038321165082
O           -3.01858883817049       -0.40411112380680       -0.07065407460180
N           -0.93354384808995       -1.31884061728080       -0.04282153967654
C           -1.55557885616272       -2.62585412324317       -0.06064206237858
H            3.75673352876789        1.24422063685595        1.06967828358799
H            4.01658174899552        1.13745952823898       -0.68549370562391
H            2.68830555010845        2.13493061013849       -0.02296005232132
H            3.59186720008701       -1.68307777542235        0.04451011296336
H           -1.64668493352493        3.05309586143045       -0.02620753664751
H           -2.82422404821509        2.06895900546177       -0.95261109477197
H           -2.86784281054761        2.05188383921196        0.82204421826858
H           -1.31490877447044       -3.20439325267205        0.83354616467677
H           -1.28736270307251       -3.19104677515720       -0.95563214058180
H           -2.62618924219629       -2.45631973141782       -0.07603653095748
H            1.33416785488688       -2.93573496651297       -0.00728540059280
25
 energy: -43.456387061399 gnorm: 0.001675227146 xtb: 6.6.1 (8d0f1dd)
C            3.25377325101242        1.20640650754212        0.09659751211958
N            2.32742239201059        0.11206172004115        0.02954025913323
C            2.62148862510154       -1.24385134043534        0.03341642782050
N            1.43097217477828       -1.93442968023028        0.00772348703831
C            0.41014968461656       -1.06056352107857       -0.01276022648763
C            0.93514476292223        0.23057037270898        0.00413281619920
C            0.11847083043982        1.37811364719882       -0.01256630679729
O            0.46926466615652        2.56325010176812       -0.01344007792772
N           -1.26878860826688        1.02667086370487       -0.03359762305069
C           -2.21757151691799        2.12548247080287       -0.04869512139621
C           -1.81743648345042       -0.21727857885175       -0.05043519655121
O           -3.01906811906913       -0.40487723622653       -0.07105226463571
N           -0.93422642745885       -1.31931899773242       -0.04273118733368
C           -1.55603904237419       -2.62677132610279       -0.06106716308899
H            3.75777921008133        1.24527526937425        1.06853844965626
H            4.01887157219530        1.13811480823257       -0.68499782405417
H            2.69228954575029        2.13680141533527       -0.02392979706916
H            3.59118256795348       -1.68258653429050        0.04498134525105
H           -1.64524299540466        3.05229450850949       -0.02562072102956
H           -2.82374391784893        2.06993515794260       -0.95247132067665
H           -2.86754559001623        2.05246010185944        0.82241005798413
H           -1.31573960534056       -3.20588134742599        0.83303172224633
H           -1.28760628559194       -3.19182773394902       -0.95624991053155
H           -2.62684016810471       -2.45699329420117       -0.07676515308937
H            1.33388364699919       -2.93547236135669       -0.00573342579778
25
 energy: -43.456386178884 gnorm: 0.001137876570 xtb: 6.6.1 (8d0f1dd)
C            3.25341265881627        1.20645657799416        0.09706133644993
N            2.32773770373310        0.11161830805906        0.02891088617850
C            2.62115723045101       -1.24470502972738        0.03297726475290
N            1.43034105239088       -1.93483043685497        0.00641046785306
C            0.40984296431465       -1.06094997995641       -0.01311482977061
C            0.93489193596471        0.23015016673417        0.00404765931994
C            0.11934264479353        1.37810812187867       -0.01258456866598
O            0.46959899328121        2.56307096757893       -0.01367291232853
N           -1.26892146762218        1.02656263267161       -0.03376760107123
C           -2.21713625291945        2.12596181152552       -0.04929387307507
C           -1.81736945367529       -0.21719481931068       -0.05028549200180
O           -3.01899498110505       -0.40521964635571       -0.07060934382982
N           -0.93452684702080       -1.31909226967169       -0.04250545441986
C           -1.55535655498953       -2.62706908906908       -0.06026002140295
H            3.75692286230879        1.24572649466613        1.06905452985750
H            4.01924064437077        1.14018650353638       -0.68417514255564
H            2.69153336882772        2.13659167188818       -0.02143428137195
H            3.59060349607095       -1.68392789520066        0.04383191977682
H           -1.64619365764915        3.05374808330840       -0.02662896023948
H           -2.82335463629469        2.06962150327991       -0.95291875453702
H           -2.86681395662781        2.05268795030865        0.82188252060857
H           -1.31481615443431       -3.20502362524893        0.83444975979040
H           -1.28729297989632       -3.19162468979797       -0.95578604636125
H           -2.62639444725717       -2.45736034364136       -0.07565139949670
H            1.33339000434122       -2.93590797545542       -0.00767890552847
25
 energy: -43.456388956442 gnorm: 0.000606540087 xtb: 6.6.1 (8d0f1dd)
C            3.25341997082058        1.20622991296721        0.09636594358336
N            2.32780075988911        0.11167990296256        0.02928044806931
C            2.62137070555027       -1.24451538029412        0.03427182113781
N            1.43065908527396       -1.93460723971688        0.00761987471730
C            0.41011994206260       -1.06083475828298       -0.01264106832890
C            0.93491059996324        0.23037315745081        0.00446864038412
C            0.11964941620559        1.37837103003416       -0.01249131058266
O            0.46959377668658        2.56337017830344       -0.01344972489328
N           -1.26899915688164        1.02667661099410       -0.03366270522812
C           -2.21748806304340        2.12579608579777       -0.04871207539650
C           -1.81727789640565       -0.21711667501103       -0.05054960954014
O           -3.01894756389512       -0.40522021236580       -0.07109088102460
N           -0.93430460611817       -1.31895482637521       -0.04267494062659
C           -1.55549561944325       -2.62672524076999       -0.06113030454183
H            3.75725428904543        1.24584375586042        1.06829978000473
H            4.01859079955623        1.13817643616214       -0.68545322077248
H            2.69112682099880        2.13614212197873       -0.02352833093807
H            3.59099372871802       -1.68348384419974        0.04504036475750
H           -1.64642306067077        3.05348711091630       -0.02563856875784
H           -2.82374788770122        2.06971227942936       -0.95234419643749
H           -2.86721966837872        2.05211193772272        0.82242273120601
H           -1.31526198060061       -3.20512210860532        0.83334027805865
H           -1.28712984174236       -3.19111152608006       -0.95665010888364
H           -2.62624979000676       -2.45697400008906       -0.07683962870437
H            1.33389941029032       -2.93571971565002       -0.00599444933105
25
 energy: -43.417768100313 gnorm: 0.260372033440 xtb: 6.6.1 (8d0f1dd)
C            3.28198814564819        1.24094547739746        0.10010645049731
N            2.34304615200802        0.12599632131818        0.03036613408349
C            2.66037640893507       -1.26725237576668        0.03050509860280
N            1.48732964149125       -1.93971550808330        0.01618596959009
C            0.46957605816760       -1.07764221706478       -0.01797484633322
C            0.98203015883607        0.23256530707667       -0.00972808499551
C            0.13090419884330        1.34568600779595       -0.02908813660799
O            0.43124033605382        2.56296211773432       -0.04385625600252
N           -1.27699883287918        1.00152622643885       -0.03581054752943
C           -2.21253576479389        2.10265417486914       -0.04968813463349
C           -1.80845288296849       -0.26922985006035       -0.05669324364444
O           -3.02560036982015       -0.46532120237635       -0.07115626189045
N           -0.89344915925348       -1.39904418843238       -0.05014421088260
C           -1.73762356952144       -2.60949407531599       -0.05963223945204
H            3.80394336839817        1.29622920394493        1.06267409934061
H            4.03427883179568        1.26248524544488       -0.71007153552558
H            2.66645401039081        2.19245318006908        0.06532375138018
H            3.61954801667425       -1.73876291455888        0.05170245874344
H           -1.61909069273475        3.03210667501886       -0.02538956720011
H           -2.80745486436630        2.03544805440985       -0.95116295679473
H           -2.83671360838705        2.01949085851922        0.82906121848558
H           -1.49260393485665       -3.22680475943990        0.83954751795757
H           -1.46070231816762       -3.22103203187920       -0.95842074704074
H           -2.65149117450760       -2.37540593553874       -0.07770868933897
H            1.33781089669175       -2.93139687782027        0.02975019427190
25
 energy: -43.445548793677 gnorm: 0.058316688682 xtb: 6.6.1 (8d0f1dd)
C            3.26302970090976        1.23573588484121        0.10676316843018
N            2.34561973807018        0.11913331693026        0.02923165442981
C            2.65453506829314       -1.25372075576028        0.03289803953899
N            1.47091923601216       -1.93775657493687        0.01406494414010
C            0.44049510202814       -1.07782913462316       -0.01662688447646
C            0.96409724244872        0.22374419570152       -0.00970165841938
C            0.12914401204191        1.35108232103317       -0.03006327572171
O            0.44806905999582        2.55187650274518       -0.04115059624081
N           -1.26634010123776        1.00274072365748       -0.03744826641034
C           -2.21081358953905        2.10039709785805       -0.04861881986204
C           -1.80290171303701       -0.24581625301526       -0.05485534986058
O           -3.00805329695196       -0.42743211890721       -0.07155539544865
N           -0.91147219150047       -1.36856886868797       -0.04862997206419
C           -1.66455913226760       -2.62965005822861       -0.06007337505593
H            3.79793996432747        1.26773035411763        1.06201099064035
H            4.00246720676445        1.24054307329469       -0.70318741325192
H            2.66254433180224        2.16383326952580        0.04893161587101
H            3.61617082460215       -1.71372005673336        0.05416121395043
H           -1.62442408446460        3.02284437195071       -0.02750849610909
H           -2.81540388899169        2.04502185560164       -0.95000411328101
H           -2.84737527520759        2.02883271948983        0.82901918998114
H           -1.45292352168972       -3.23279217248486        0.83702376673821
H           -1.42340858255345       -3.22886499303349       -0.95427649318455
H           -2.68407631240597       -2.37263822109446       -0.07835652520135
H            1.34252925422812       -2.93527956554111        0.02664948594892
25
 energy: -43.447519450972 gnorm: 0.013173845768 xtb: 6.6.1 (8d0f1dd)
C            3.26143493515118        1.24177750633103        0.10517743794220
N            2.35477116263698        0.11659713036679        0.02412199652344
C            2.65662529944636       -1.24861275314557        0.03269253210145
N            1.46935635300411       -1.94130225464807        0.01475135458512
C            0.43233411798478       -1.08475439555052       -0.01626046233660
C            0.95885631059516        0.21555302242279       -0.00992665894274
C            0.12597982913205        1.35003917698331       -0.03051841343501
O            0.44506923586491        2.54567796296494       -0.04273356775234
N           -1.26296689340764        0.99121352692692       -0.03934224336654
C           -2.20583417907388        2.09249233245181       -0.04866694105236
C           -1.80356723370536       -0.25014714784017       -0.05532166160184
O           -3.00589646923653       -0.43892609992633       -0.07115781370664
N           -0.91817054312163       -1.35967169520142       -0.04764069159740
C           -1.64623763789859       -2.62571529645155       -0.05980835402515
H            3.79966824334280        1.27441174343095        1.05852383317849
H            4.00780181425447        1.25074860839932       -0.69966824483188
H            2.66871341960333        2.16207073709080        0.05665623853060
H            3.61695618654098       -1.71127361623561        0.05152216966907
H           -1.62415541814944        3.01531664039389       -0.02718999159304
H           -2.81435421469403        2.03816931910187       -0.94982300833429
H           -2.84607085700669        2.02072339383122        0.82840796084567
H           -1.47444273119301       -3.21878401227083        0.84095506007555
H           -1.44238190160078       -3.21326417981576       -0.95753952424799
H           -2.68642112149592       -2.35142764069176       -0.07823186746654
H            1.35874134470378       -2.94146509521752        0.02971829591992
25
 energy: -43.447644968930 gnorm: 0.008400195880 xtb: 6.6.1 (8d0f1dd)
C            3.25950738903129        1.23885166965271        0.10540282199535
N            2.35437450460653        0.11515211061848        0.02514409863359
C            2.65114077829610       -1.24892807002015        0.03617399360837
N            1.46150818428200       -1.94039711451643        0.01394333111610
C            0.42669011749665       -1.08213825278360       -0.01678305997035
C            0.95419876075897        0.21727046315860       -0.00830808045345
C            0.12482792259614        1.35680055519982       -0.02936516290217
O            0.44661140017801        2.55052296161444       -0.03946145747861
N           -1.26407440263194        0.99590497921357       -0.03881183092262
C           -2.20589246967979        2.10108556261670       -0.04818076101959
C           -1.80642057244149       -0.24637570863957       -0.05469483033860
O           -3.00979483102547       -0.43649035521463       -0.07134647372719
N           -0.92359545262105       -1.35493808662030       -0.04833849059237
C           -1.63078632822442       -2.63284687560976       -0.06067532995322
H            3.79764222940885        1.27016341678726        1.06034517586513
H            4.00613777633600        1.23798144187203       -0.70124822685646
H            2.66570609339951        2.15809953089445        0.04797587675874
H            3.60899021448827       -1.71829671018132        0.05411396780164
H           -1.62523324512870        3.02466344527249       -0.02727500411725
H           -2.81568412481786        2.04766883279180       -0.94904091403867
H           -2.84736233507032        2.03122060635863        0.82854385135953
H           -1.45452242305398       -3.22428165692960        0.83638008709919
H           -1.42369617856319       -3.21945792195918       -0.95431702722835
H           -2.67917701876272       -2.37166653885819       -0.07818295070915
H            1.35471306281998       -2.94012137101769        0.02670383115153
25
 energy: -43.447768207442 gnorm: 0.002903714067 xtb: 6.6.1 (8d0f1dd)
C            3.25952766197049        1.24016152125292        0.10703327951530
N            2.35567284342457        0.11574640957322        0.02474256124418
C            2.65434820954368       -1.24835145389603        0.03457613575729
N            1.46529142526549       -1.94073799330237        0.01383302302846
C            0.43027748148003       -1.08333380302831       -0.01689773354942
C            0.95631264321118        0.21655603312835       -0.00895740112238
C            0.12739784813086        1.35545194393817       -0.03071107753638
O            0.44916051084956        2.54921129285060       -0.04176301719948
N           -1.26191032039123        0.99528352578727       -0.03929286349742
C           -2.20671599139857        2.09747402251150       -0.04868101825326
C           -1.80394703854982       -0.24703207842090       -0.05483009150059
O           -3.00800962263017       -0.43392668619840       -0.07115922744379
N           -0.92184510728292       -1.35723367644859       -0.04794901891870
C           -1.63874116926919       -2.62920618131517       -0.05990941392124
H            3.79874735598273        1.26943216109266        1.06155081728310
H            4.00398880804373        1.24435787555988       -0.70118504099379
H            2.66366124577933        2.15974371655710        0.05238837294200
H            3.61331272757104       -1.71599917113783        0.05126568320905
H           -1.62598239886363        3.02087328133409       -0.02775205456814
H           -2.81568567350923        2.04197582799219       -0.94973141010697
H           -2.84728310110928        2.02539156591927        0.82833509064826
H           -1.46308690246882       -3.22286444046906        0.83788676266110
H           -1.43213258362896       -3.21869046423932       -0.95404565434520
H           -2.68574773084669       -2.36452602748592       -0.07760739366527
H            1.35919793037320       -2.94031028785478        0.02755812541445
25
 energy: -43.447771140461 gnorm: 0.001719898935 xtb: 6.6.1 (8d0f1dd)
C            3.26054875846023        1.23975813184694        0.10538035827862
N            2.35531847122207        0.11615424335771        0.02426094700552
C            2.65379420945120       -1.24808019207005        0.03609487790677
N            1.46480783321659       -1.94065108632152        0.01483849670628
C            0.43056767400122       -1.08318165192660       -0.01654844259807
C            0.95561757122738        0.21670542237439       -0.00873240312630
C            0.12615782755857        1.35486736086227       -0.03007187773189
O            0.44631782472855        2.54883436952019       -0.04072558872694
N           -1.26301038918793        0.99430670941432       -0.03877994275814
C           -2.20702880903214        2.09717779658036       -0.04804942763637
C           -1.80432927311170       -0.24848129548256       -0.05502259010203
O           -3.00835490308561       -0.43549730887743       -0.07153205845330
N           -0.92169167641875       -1.35791688296657       -0.04797423317740
C           -1.63915705865137       -2.62879231644066       -0.06077460641055
H            3.79913670030989        1.27143883186561        1.05969087350579
H            4.00664451673433        1.24308820271504       -0.70138447573166
H            2.66730095748188        2.16100993336672        0.05005346848137
H            3.61276701698319       -1.71562065349804        0.05323921256051
H           -1.62448866904588        3.01940844783514       -0.02666134208144
H           -2.81545468516708        2.04295223168241       -0.94936950184248
H           -2.84745490646783        2.02572038816209        0.82893909846440
H           -1.46338856849959       -3.22260381882054        0.83776433152641
H           -1.43163444270474       -3.21710786097788       -0.95630217648969
H           -2.68614297829461       -2.36384645875176       -0.07874921110460
H            1.35896604996949       -2.94019562974902        0.02911364861631
25
 energy: -43.447773726279 gnorm: 0.000943147302 xtb: 6.6.1 (8d0f1dd)
C            3.25966331448238        1.23954171218234        0.10698732672470
N            2.35540553887895        0.11568105920583        0.02400032773209
C            2.65357929808348       -1.24851079307040        0.03462961182077
N            1.46428617438143       -1.94098519605139        0.01314880409817
C            0.43060616157466       -1.08312210807235       -0.01719991543761
C            0.95537625137050        0.21653642284127       -0.00906253363662
C            0.12671857232847        1.35526426575418       -0.03061879842475
O            0.44746821576724        2.54895704821588       -0.04161361178158
N           -1.26262349858614        0.99487678413317       -0.03921098959846
C           -2.20670304458112        2.09794758445040       -0.04896361092634
C           -1.80393561616954       -0.24819897147514       -0.05478409353596
O           -3.00804498926222       -0.43499456024501       -0.07091555226108
N           -0.92178115057422       -1.35757568607423       -0.04774966916270
C           -1.63797760025014       -2.62889001014493       -0.05948564854612
H            3.79828125843530        1.27021992357492        1.06140254630609
H            4.00531703312535        1.24490831169051       -0.70023088215211
H            2.66473797428190        2.15973920673843        0.05362633489832
H            3.61243890382520       -1.71644802986646        0.05051874791494
H           -1.62501869591525        3.02081257007013       -0.02822547606533
H           -2.81530250182881        2.04288799995547       -0.95003815748287