25
 energy: 0.000000000000 xtb: 6.6.1 (8d0f1dd)
C            3.23720132972391        1.16630909158653        0.08434468864950
N            2.29877796055224        0.07527476373246        0.03981602671198
C            2.58028186251803       -1.21425391179017        0.03006175752192
N            1.43813944744728       -1.93419254010258        0.00098261751768
C            0.39035684826767       -1.05887462812143       -0.00790371763344
C            0.93510047688824        0.21347817468824        0.01709077332874
C            0.09450143016486        1.40504290868848       -0.00410946993748
O            0.49712746915594        2.54126690785742       -0.00342325656480
N           -1.25076628431515        1.06271869620815       -0.03085477937476
C           -2.21907191394203        2.15522079838987       -0.05001256521996
C           -1.81739470187490       -0.20012724136556       -0.04692818139228
O           -2.99983858926755       -0.37846413507442       -0.07008877579474
N           -0.92618577614240       -1.30210203518959       -0.03682761236648
C           -1.46982251276835       -2.64643077634382       -0.06029819901142
H            3.71247229913541        1.21471443890471        1.06488839270555
H            4.00791460421487        1.03430799217987       -0.67357688121503
H            2.69909982127087        2.09770098766290       -0.09130154035862
H            3.56654087521359       -1.63682977417947        0.04233139674524
H           -1.67107945562430        3.09322822573871       -0.02552706696334
H           -2.82428927394145        2.09428605349656       -0.95318074103337
H           -2.87644002486466        2.07745706351925        0.81450059976605
H           -1.17061985538665       -3.19584861009707        0.83242224714061
H           -1.14560246782873       -3.17511580834413       -0.95688266944647
H           -2.55549768731684       -2.55659960601237       -0.07459039105944
H            1.38130842369251       -2.94313824728853       -0.01389874052104
25
 energy: -5.756537739493 xtb: 6.6.1 (8d0f1dd)
C            3.25341997082058        1.20622991296721        0.09636594358336
N            2.32780075988911        0.11167990296256        0.02928044806931
C            2.62137070555027       -1.24451538029412        0.03427182113781
N            1.43065908527396       -1.93460723971688        0.00761987471730
C            0.41011994206260       -1.06083475828298       -0.01264106832890
C            0.93491059996324        0.23037315745081        0.00446864038412
C            0.11964941620559        1.37837103003416       -0.01249131058266
O            0.46959377668658        2.56337017830344       -0.01344972489328
N           -1.26899915688164        1.02667661099410       -0.03366270522812
C           -2.21748806304340        2.12579608579777       -0.04871207539650
C           -1.81727789640565       -0.21711667501103       -0.05054960954014
O           -3.01894756389512       -0.40522021236580       -0.07109088102460
N           -0.93430460611817       -1.31895482637521       -0.04267494062659
C           -1.55549561944325       -2.62672524076999       -0.06113030454183
H            3.75725428904543        1.24584375586042        1.06829978000473
H            4.01859079955623        1.13817643616214       -0.68545322077248
H            2.69112682099880        2.13614212197873       -0.02352833093807
H            3.59099372871802       -1.68348384419974        0.04504036475750
H           -1.64642306067077        3.05348711091630       -0.02563856875784
H           -2.82374788770122        2.06971227942936       -0.95234419643749
H           -2.86721966837872        2.05211193772272        0.82242273120601
H           -1.31526198060061       -3.20512210860532        0.83334027805865
H           -1.28712984174236       -3.19111152608006       -0.95665010888364
H           -2.62624979000676       -2.45697400008906       -0.07683962870437
H            1.33389941029032       -2.93571971565002       -0.00599444933105
25
 energy: -2.369595288277 xtb: 6.6.1 (8d0f1dd)
C            3.25966331448238        1.23954171218234        0.10698732672470
N            2.35540553887895        0.11568105920583        0.02400032773209
C            2.65357929808348       -1.24851079307040        0.03462961182077
N            1.46428617438143       -1.94098519605139        0.01314880409817
C            0.43060616157466       -1.08312210807235       -0.01719991543761
C            0.95537625137050        0.21653642284127       -0.00906253363662
C            0.12671857232847        1.35526426575418       -0.03061879842475
O            0.44746821576724        2.54895704821588       -0.04161361178158
N           -1.26262349858614        0.99487678413317       -0.03921098959846
C           -2.20670304458112        2.09794758445040       -0.04896361092634
C           -1.80393561616954       -0.24819897147514       -0.05478409353596
O           -3.00804498926222       -0.43499456024501       -0.07091555226108
N           -0.92178115057422       -1.35757568607423       -0.04774966916270
C           -1.63797760025014       -2.62889001014493       -0.05948564854612
H            3.79828125843530        1.27021992357492        1.06140254630609
H            4.00531703312535        1.24490831169051       -0.70023088215211
H            2.66473797428190        2.15973920673843        0.05362633489832
H            3.61243890382520       -1.71644802986646        0.05051874791494
H           -1.62501869591525        3.02081257007013       -0.02822547606533
H           -2.81530250182881        2.04288799995547       -0.95003815748287
H           -2.84690773455049        2.02663661050516        0.82810408602496
H           -1.46207165881061       -3.22243051192507        0.83908046054435
H           -1.43123416542780       -3.21831247815498       -0.95435293532157
H           -2.68532441650330       -2.36456212918898       -0.07715977602892
H            1.35885542760212       -2.94053211134819        0.02681083937877
25
 energy: 3.191503819873 xtb: 6.6.1 (8d0f1dd)
C            3.26153263887140        1.27384094888813        0.11518110804920
N            2.38241694478857        0.11939252352909        0.02050023407570
C            2.69123099019988       -1.24833890485062        0.03443196212329
N            1.50524470202937       -1.95029781160572        0.01973510007811
C            0.45175388727850       -1.11420514665310       -0.02107319808658
C            0.97496431572213        0.19453309434190       -0.02130363242961
C            0.14230769154402        1.33042074755669       -0.05379529209248
O            0.45263199004436        2.52671520980958       -0.08330253288636
N           -1.24552972781931        0.96724627572318       -0.04674719907452
C           -2.19118703117674        2.07035753865312       -0.04816043757853
C           -1.77996113555665       -0.27500409705602       -0.06061913351019
O           -2.98760948374545       -0.44247467366544       -0.07189272788404
N           -0.91281795037495       -1.40221299627900       -0.05375475136211
C           -1.72305661502248       -2.63758701375683       -0.06016626858401
H            3.84285255249211        1.29435807980197        1.04623618015350
H            3.97751685927421        1.34887933063487       -0.71989484314683
H            2.63393218215111        2.17781016053332        0.12761132152252
H            3.64757169935929       -1.73014428901324        0.06596205420855
H           -1.60366041950708        2.99051245258041       -0.02901576622466
H           -2.80492988539140        2.01549955672193       -0.94507503819395
H           -2.82312837868006        1.99873376571889        0.83429595849579
H           -1.61076374625218       -3.23965195233481        0.84165555866343
H           -1.57597143318971       -3.24532243739371       -0.95300798729513
H           -2.73938974329545       -2.27832006690254       -0.08038874954477
H            1.41473167771518       -2.95094150061399        0.04967661330483
25
 energy: 10.615403569236 xtb: 6.6.1 (8d0f1dd)
C            3.25758937936855        1.30864321230653        0.12494981785742
N            2.40477841622033        0.12545313661335        0.01743682930535
C            2.72758028259653       -1.24177100446539        0.03104969690717
N            1.54715311522513       -1.95836167984347        0.02303310528353
C            0.47059318414233       -1.14691032096516       -0.02630926193055
C            0.99157308879622        0.17080629553175       -0.03466609003488
C            0.16194696191377        1.30796621349317       -0.07706689061987
O            0.47268627601854        2.50391283515018       -0.12127073183017
N           -1.22098392307849        0.94512617617832       -0.05666738554197
C           -2.17048593100130        2.04597275929201       -0.04874239605624
C           -1.75352434366781       -0.29464982238414       -0.06596542057039
O           -2.96760790971259       -0.41759991561681       -0.07019728001053
N           -0.91032284761828       -1.44720376167839       -0.05779743066622
C           -1.81306847786069       -2.64954234291229       -0.05969217804658
H            3.88519646455814        1.31443592098337        1.02775574276601
H            3.93689733506415        1.44935142660270       -0.73689752438108
H            2.60193909144851        2.19317318836947        0.20506561648605
H            3.69013837005748       -1.71664503937095        0.08146600533001
H           -1.57773697957963        2.96261642476659       -0.03214128960609
H           -2.79137919616667        1.98932045927499       -0.94010582471121
H           -2.79471981953676        1.97337739297747        0.83917526811051
H           -1.75963782478042       -3.25329064617651        0.84513716188073
H           -1.72244796687915       -3.26955028771159       -0.95031319554861
H           -2.79122121325168       -2.19662624423737       -0.08192726382335
H            1.47424894515729       -2.96023694481105        0.06440718975672
25
 energy: 20.170665166273 xtb: 6.6.1 (8d0f1dd)
C            3.25043452078066        1.34258001071834        0.13459027251105
N            2.42337306226969        0.13347516538855        0.01406007339936
C            2.75954456720333       -1.23020143088500        0.02837072687737
N            1.58646321110345       -1.96412873948257        0.02642067091997
C            0.48519901057411       -1.17928733936022       -0.03155051778261
C            1.00542681179242        0.14761601438655       -0.04727183249653
C            0.18252987925912        1.28790883657597       -0.10059526214433
O            0.49729171736623        2.48266939683225       -0.15690982013439
N           -1.19534157765833        0.92572524596446       -0.06839077401601
C           -2.14947999171749        2.02358676721049       -0.04883378000759
C           -1.72972363744623       -0.31162566331557       -0.07253809791545
O           -2.95019224075773       -0.38721128635256       -0.06945054001142
N           -0.91322299060280       -1.49092374665760       -0.06411154922107
C           -1.90537788439798       -2.66558355028998       -0.06117947813341
H            3.92839848959602        1.33259106494977        1.00259754116908
H            3.88626865086879        1.54802923342028       -0.75183443787344
H            2.57207855058972        2.20471941171827        0.28326611882461
H            3.73002954728480       -1.68892620543094        0.09625419141371
H           -1.55367864302673        2.93758637505500       -0.03491211655321
H           -2.77886899151665        1.96449330160424       -0.93330423394603
H           -2.76583229574910        1.94842438588049        0.84463532805621
H           -1.90796510047336       -3.26534630988512        0.84623994681624
H           -1.86792927938125       -3.29259439844695       -0.94809035582398
H           -2.84176576509860       -2.12558221258016       -0.08485790502137
H            1.53325595935337       -2.96716939299500        0.07794689514949
25
 energy: 32.065148837633 xtb: 6.6.1 (8d0f1dd)
C            3.23925447389183        1.37760966513486        0.14377492286843
N            2.43837427595943        0.14609825474979        0.00927450152806
C            2.78500997840104       -1.21074768583096        0.02592015362460
N            1.62469956334784       -1.96706592485971        0.02999905751645
C            0.50084088638889       -1.20871415056698       -0.03720771304861
C            1.01742616201355        0.12724664549226       -0.06033751079858
C            0.20196676839690        1.26932876320492       -0.12345676237720
O            0.52194886399853        2.46226692961841       -0.18952806792124
N           -1.17036169856614        0.90757952134046       -0.08061170123720
C           -2.12801363404362        2.00226468088497       -0.04863571321971
C           -1.70716627190084       -0.32876512310564       -0.07782678210387
O           -2.93176458842338       -0.36300064291903       -0.06702090715031
N           -0.91855085770827       -1.53069890341989       -0.06708857724137
C           -2.00681608151000       -2.67457503831644       -0.06464307594466
H            3.96867812639993        1.35051173940952        0.97099019819871
H            3.82788491242867        1.64257449782119       -0.76369956897143
H            2.54397807530037        2.21502310185176        0.36221278236136
H            3.76208916417226       -1.64962764068106        0.11278112213929
H           -1.52828576047062        2.91248997881227       -0.03807427758416
H           -2.76681684656589        1.94080722388909       -0.92524484384458
H           -2.73628430438798        1.92464276231884        0.85063482269730
H           -2.05908674518577       -3.27284162708700        0.84273920505519
H           -2.01274116933085       -3.31103001622559       -0.94371559316850
H           -2.90714794222414       -2.07063541491298       -0.09065922759142
H            1.59349002201844       -2.97149449309725        0.09085591456315
25
 energy: 46.155812698322 xtb: 6.6.1 (8d0f1dd)
C            3.22618285475124        1.40914553976834        0.15374149805065
N            2.45461505481525        0.15741867577462        0.00051201803193
C            2.81518397667915       -1.19184438140178        0.02430710905914
N            1.66593890887361       -1.96789215183239        0.03492171454524
C            0.52525659827096       -1.23240207912623       -0.04610040228552
C            1.03265725053128        0.11110831238901       -0.08397040663204
C            0.22036765767958        1.25380963141348       -0.15245888064064
O            0.54535925363380        2.44402944495363       -0.22326779377740
N           -1.14451142175322        0.88871429052809       -0.09439053218892
C           -2.10543214491480        1.98034043354958       -0.04810486026657
C           -1.67729466487679       -0.35228317896564       -0.08502801934616
O           -2.90267886468097       -0.35911379598615       -0.06089628559542
N           -0.91198175561705       -1.56739166180008       -0.08451323996298
C           -2.10030933782786       -2.69678309369654       -0.07095410794099
H            4.00450689025114        1.36819048565550        0.93455464505451
H            3.75957374481221        1.73617916898301       -0.77048367365794
H            2.52050152220872        2.21567251258741        0.44597525584402
H            3.79894890986386       -1.61302854406845        0.12930960518809
H           -1.50319967259604        2.88804503914776       -0.04229304963539
H           -2.75254921149605        1.91847953396072       -0.91695029851063
H           -2.70526805249405        1.90116326495802        0.85711445935646
H           -2.20259558554963       -3.28194856087444        0.83996395604445
H           -2.15157495719717       -3.33978941380009       -0.94107572931830
H           -2.94590289907989       -2.02458106213345       -0.10834479334066
H            1.65234511491866       -2.97313412774189        0.10391131191597
25
 energy: 63.629199070735 xtb: 6.6.1 (8d0f1dd)
C            3.21876069115622        1.44860629395464        0.16100891651134
N            2.48276354787886        0.17578734770255       -0.01171768944221
C            2.84415690229489       -1.13362689200374        0.03647558594073
N            1.72258934623865       -1.93769401541112        0.03235151651726
C            0.58113326683794       -1.17721295607296       -0.06101586186141
C            1.09427723015332        0.13809219582314       -0.11219072307478
C            0.23363573639153        1.27170678752665       -0.18018299005755
O            0.57285251094091        2.44628545885791       -0.26885950666920
N           -1.09004425075312        0.89786872793004       -0.10379622059905
C           -2.07731547252458        1.96425879493252       -0.04743074324774
C           -1.59300830504211       -0.39611939881144       -0.08395593781633
O           -2.81400705591313       -0.37286876896496       -0.04004325399244
N           -0.74143225072392       -1.50642811086308       -0.09235585030587
C           -2.50819946749462       -2.87757928899008       -0.07574526215012
H            4.04122185929238        1.38036136341458        0.88590918825958
H            3.68769227994385        1.82849931299177       -0.77281450591750
H            2.50439394349544        2.22044402979370        0.53212946702447
H            3.81966256619312       -1.56356657891713        0.14449829043722
H           -1.48444977475903        2.87474702572808       -0.04617522027868
H           -2.73153889892968        1.89349675618144       -0.90860403053468
H           -2.67071219488286        1.87508818981673        0.86185939867885
H           -2.42114371372967       -3.34637255909893        0.86420465654841
H           -2.36114084633210       -3.42083689446636       -0.96395308895662
H           -3.05894909469984       -1.97900553292123       -0.12122196711072
H            1.70277918470179       -2.94559633418576        0.11857804036591
25
 energy: 64.427149274196 xtb: 6.6.1 (8d0f1dd)
C            3.20924392642942        1.48346636104641        0.17062783170696
N            2.50205547918074        0.19612971377920       -0.01786935129349
C            2.87011243322183       -1.10149185501714        0.04691416565351
N            1.76842403518389       -1.92314322844325        0.03934822819767
C            0.61766388105158       -1.17175124744308       -0.06679528495349
C            1.12221674820162        0.14529065491560       -0.13016965056134
C            0.24759831032252        1.26527456056188       -0.20771846698651
O            0.57804019229834        2.43960976509592       -0.31557256165574
N           -1.06469475326465        0.88476445003416       -0.11652312267466
C           -2.05499506301997        1.94597603988937       -0.04532655543396
C           -1.55605438492936       -0.42077207348057       -0.07891229081992
O           -2.77312380390817       -0.39274344586262       -0.01089618324047
N           -0.68795323878875       -1.51622760980942       -0.08661226631708
C           -2.68367301243933       -2.92183367822556       -0.08502423747563
H            4.07734412657591        1.40373081232556        0.84038130733647
H            3.61178339076661        1.91516777853859       -0.77140006449035
H            2.49824626230983        2.22181265690881        0.61266667395488
H            3.85469442430450       -1.52292917972290        0.15209737039242
H           -1.46007021609942        2.85331279832047       -0.04992057743644
H           -2.71489645526953        1.88080020987027       -0.89960990298416
H           -2.63954755585746        1.85392565401731        0.86895693933533
H           -2.58536798902817       -3.37455022550472        0.86118807409438
H           -2.51755114622978       -3.46233396027216       -0.97100589525322
H           -3.14966540291985       -1.97618050362387       -0.13994182268328
H            1.75756190512622       -2.93188029813055        0.13459017568240
25
 energy: 63.959015477682 xtb: 6.6.1 (8d0f1dd)
C            3.21442362003112        1.50848083661073        0.17091706240827
N            2.52941702517485        0.21303995113045       -0.02169438516945
C            2.90949852767280       -1.07997539860986        0.05744781554266
N            1.81661572601048       -1.90869116953702        0.05125538769473
C            0.65977638481293       -1.16492307127628       -0.06310790550041
C            1.15493670879460        0.15313193884522       -0.13225366477580
C            0.26728393647239        1.26133434403458       -0.23053709305813
O            0.58632022367369        2.43559611567843       -0.35862941931022
N           -1.03783390395935        0.87450595276829       -0.12846382276863
C           -2.02982476144243        1.93235312245979       -0.04350712055588
C           -1.51455324397235       -0.43776719473843       -0.07861877492066
O           -2.72910593477260       -0.41788558758792       -0.00115574400500
N           -0.63528304911750       -1.52282081067761       -0.07962443094512
C           -2.84009902688073       -2.94877811622113       -0.09263509984224
H            4.11457870505321        1.41729517491928        0.78598996462448
H            3.54453309392796        2.00074086855224       -0.77061592290415
H            2.53070168787423        2.20056299642305        0.69050480038458
H            3.90040039822387       -1.48709810035506        0.15700791404155
H           -1.43092186399772        2.83444776648227       -0.05336393513084
H           -2.69406120049638        1.88312436790265       -0.89238314611706
H           -2.60659314155272        1.83609859043391        0.87515126373047
H           -2.74747067675116       -3.39849844721576        0.85417817327838
H           -2.67559299218216       -3.49488959270809       -0.97481036277232
H           -3.24012924970483       -1.97004322794881       -0.14968808166238
H            1.80930049461634       -2.91440772998731        0.14944160184454
25
 energy: 62.286645899233 xtb: 6.6.1 (8d0f1dd)
C            3.20738037184563        1.54169984671230        0.18280146544880
N            2.55608196845875        0.23135531364523       -0.01810807694104
C            2.94794235073660       -1.05599028669830        0.07467634525448
N            1.86480880771424       -1.89509536942334        0.06241302583581
C            0.70277188590514       -1.15836491755067       -0.05690178953185
C            1.18636102676765        0.16151917439054       -0.12805732021643
C            0.29406887094539        1.26015741363072       -0.24936373972622
O            0.61575039665717        2.43178547822780       -0.39444601294376
N           -1.00924615238163        0.86448377494309       -0.14148621724089
C           -2.00516924731819        1.91899522987689       -0.04533474464055
C           -1.47338749552308       -0.45531939947793       -0.07671551144293
O           -2.68485393068121       -0.45403173626121        0.00574111007305
N           -0.58289142591233       -1.52866622108761       -0.07189792427675
C           -2.98028022347614       -2.98337450515834       -0.09746542476488
H            4.14009857745106        1.43897818169547        0.73605922017093
H            3.46682007785793        2.07296612949179       -0.75470930886474
H            2.53297768344538        2.19426520903735        0.76730712260860
H            3.94441369679548       -1.44877473335055        0.16134246363453
H           -1.40573051299615        2.82202504730976       -0.06857708347466
H           -2.68433346049561        1.86145515105108       -0.88241362164261
H           -2.56977784758421        1.82191905299157        0.88217675923875
H           -2.90635561334477       -3.43716187500549        0.84804569555012
H           -2.83148316007864       -3.53682757281835       -0.97711840367480
H           -3.33492503480285       -1.98758183816022       -0.15623773051307
H            1.86585753344183       -2.90287607153080        0.15845563578733
25
 energy: 60.310166000592 xtb: 6.6.1 (8d0f1dd)
C            3.20811711810341        1.57214799844714        0.21146918034563
N            2.58307526451987        0.25309665216450       -0.00702172732719
C            2.98563580461045       -1.02880896271562        0.09095815229124
N            1.91270866017305       -1.87919573175104        0.06857616997068
C            0.74544773873069       -1.14899656345874       -0.04965100657821
C            1.21673792955693        0.17441448320650       -0.11772186885162
C            0.31815042823702        1.26185373561207       -0.26275518703926
O            0.63674336813084        2.43143076585493       -0.43159962694442
N           -0.98290810548615        0.85182896025572       -0.14631267071124
C           -1.98238014849837        1.90300293760699       -0.04715996533774
C           -1.43487289810983       -0.47353145489200       -0.07398068338561
O           -2.64383437828445       -0.49604181392458        0.00690424972431
N           -0.53083825003991       -1.53388143424044       -0.06511394009017
C           -3.10878938442625       -3.02385046838986       -0.10162660727579
H            4.17363231867629        1.47264543984011        0.69987636454822
H            3.38612906711863        2.14013888029392       -0.71283381607326
H            2.55383448197503        2.18638035319484        0.85892310230395
H            3.98735154109645       -1.40964669189748        0.16005850190098
H           -1.37777835202784        2.80354326082603       -0.07843345680958
H           -2.67328142191611        1.83329753603632       -0.87543639823123
H           -2.53527606915348        1.81392010636279        0.88817907468773
H           -3.06286260981874       -3.48710856382468        0.84079157029459
H           -2.98661493087894       -3.58377839474214       -0.98153975198882
H           -3.42456924556238       -2.01494477030851       -0.15910539328076
H            1.92233608934407       -2.88831422400972        0.16578156790784
25
 energy: 57.660869454298 xtb: 6.6.1 (8d0f1dd)
C            3.23897728122833        1.59904477820457        0.20072605984834
N            2.61291521552535        0.27855705743320       -0.00148248166983
C            3.02374131857145       -0.99845464938627        0.09829115891980
N            1.95969192041344       -1.85795383075220        0.07217060892301
C            0.78798847665928       -1.13391203992558       -0.04186069500316
C            1.24756150423324        0.19379390814098       -0.10600968378122
C            0.34086649068729        1.27315780585220       -0.25131364214368
O            0.65984914587305        2.44420033917077       -0.40977170618974
N           -0.95743628564245        0.84262399057962       -0.14571047382735
C           -1.95935058190556        1.89141843294430       -0.04920705948359
C           -1.39813418310136       -0.48908861436611       -0.07136056842188
O           -2.60476509300582       -0.53943015469156        0.00266668137071
N           -0.47915206989791       -1.53423683311411       -0.05752514288562
C           -3.22990297456467       -3.06961099482175       -0.10539447903789
H            4.22571442527618        1.49822316400927        0.64574737886178
H            3.32987330148506        2.20579175052271       -0.71474464208560
H            2.61943754217506        2.19079876514833        0.88984634477391
H            4.02915412614755       -1.36898182458237        0.15797489553494
H           -1.34622345297496        2.78946817692602       -0.08841115135905
H           -2.66104167803992        1.80609017136041       -0.86945910821272
H           -2.50050789153739        1.81530322137565        0.89307395358668
H           -3.21767256790031       -3.54274054838567        0.83329250118310
H           -3.14088573942425       -3.63354932661925       -0.98739007857530
H           -3.50722435491229       -2.04946192417301       -0.15966755280898
H            1.97755316571633       -2.86773298477590        0.16992626820609
25
 energy: 55.380917448816 xtb: 6.6.1 (8d0f1dd)
C            3.26390677562456        1.62673422655699        0.18684886409347
N            2.63907509384881        0.30614957981577        0.00533773982481
C            3.06065190132364       -0.96573524471024        0.10320787880554
N            2.00548252889355       -1.83477502558566        0.07434704145844
C            0.82935812291119       -1.11703542367790       -0.03476179262911
C            1.27507264660525        0.21581641228436       -0.09327851498771
C            0.35708111534392        1.28708634261102       -0.22710957570551
O            0.66602657299274        2.46474866787293       -0.36335142374920
N           -0.93675243216914        0.83316936154613       -0.14782946862428
C           -1.94593885128130        1.87461964243307       -0.04909600176398
C           -1.36354645288982       -0.50458816193951       -0.07168861529614
O           -2.56749544885746       -0.58574939915005       -0.00585223385685
N           -0.42769173933991       -1.53392892676411       -0.05163558327141
C           -3.34689335156580       -3.11977766972960       -0.10768287119710
H            4.26055665036025        1.53097662520371        0.60112680088513
H            3.28528863065384        2.25930965700148       -0.71060780002976
H            2.66435890295029        2.22810968450556        0.87386455259923
H            4.06960632196310       -1.32626463739083        0.15538616406162
H           -1.33752941192839        2.77216348271102       -0.09520738043943
H           -2.65699756903489        1.77795432708844       -0.86344321061768
H           -2.47660831312745        1.80120912642683        0.90003910748776
H           -3.37012031996757       -3.60297756750893        0.82636958820449
H           -3.29369458502455       -3.68596928427045       -0.99235737713250
H           -3.58935481955008       -2.08920282821013       -0.15750521387622
H            2.03235386553764       -2.84591558387171        0.16915925098877
25