25
 energy: 30.785227349869 xtb: 6.6.1 (8d0f1dd)
C            3.83840178578171        2.80428329707267        0.28106658213384
N            2.26472925865115       -0.57178383616357       -0.09211437203228
C            2.34991191360376       -1.85548414416784       -0.06959470114872
N            1.11925334160705       -2.47268347547033       -0.03611035647754
C            0.21064487181736       -1.46282129955648       -0.04316563371412
C            0.93369270450041       -0.28041160048549       -0.07268930752365
C            0.26491137337875        0.99071278353683       -0.07001809685400
O            0.77587709914632        2.08364672653258       -0.05918844026716
N           -1.13270327595915        0.84692685343811       -0.05144706215579
C           -1.92654362484460        2.06813733359874       -0.04055093903709
C           -1.86067864210809       -0.32096476119603       -0.05247434299594
O           -3.07193289657719       -0.31558938931125       -0.05155973461234
N           -1.14607114195317       -1.51794482988725       -0.05665752095195
C           -1.88071313892583       -2.76270570543208       -0.07194048066922
H            4.19674754775588        3.03463801045158        1.25886803727426
H            4.49139999136368        2.77950965898452       -0.55481946681954
H            2.80090994919522        2.69670462580773        0.07377251486762
H            3.28904299841422       -2.36753295313804       -0.04668672687762
H           -1.24538771653596        2.90522416049765       -0.16175446030443
H           -2.62111331887307        2.05676644705675       -0.87978686106005
H           -2.47142544036847        2.14797252710452        0.90109381939582
H           -1.64026403285267       -3.36742060573043        0.80385092299602
H           -1.66628200498351       -3.32850738807849       -0.97961592905979
H           -2.93837328941348       -2.50472815767663       -0.04863100228280
H            0.96935089014234       -3.46936363514066       -0.00608671717500
