25
 energy: 0.000000000000 xtb: 6.6.1 (8d0f1dd)
C            3.23720132972391        1.16630909158653        0.08434468864950
N            2.29877796055224        0.07527476373246        0.03981602671198
C            2.58028186251803       -1.21425391179017        0.03006175752192
N            1.43813944744728       -1.93419254010258        0.00098261751768
C            0.39035684826767       -1.05887462812143       -0.00790371763344
C            0.93510047688824        0.21347817468824        0.01709077332874
C            0.09450143016486        1.40504290868848       -0.00410946993748
O            0.49712746915594        2.54126690785742       -0.00342325656480
N           -1.25076628431515        1.06271869620815       -0.03085477937476
C           -2.21907191394203        2.15522079838987       -0.05001256521996
C           -1.81739470187490       -0.20012724136556       -0.04692818139228
O           -2.99983858926755       -0.37846413507442       -0.07008877579474
N           -0.92618577614240       -1.30210203518959       -0.03682761236648
C           -1.46982251276835       -2.64643077634382       -0.06029819901142
H            3.71247229913541        1.21471443890471        1.06488839270555
H            4.00791460421487        1.03430799217987       -0.67357688121503
H            2.69909982127087        2.09770098766290       -0.09130154035862
H            3.56654087521359       -1.63682977417947        0.04233139674524
H           -1.67107945562430        3.09322822573871       -0.02552706696334
H           -2.82428927394145        2.09428605349656       -0.95318074103337
H           -2.87644002486466        2.07745706351925        0.81450059976605
H           -1.17061985538665       -3.19584861009707        0.83242224714061
H           -1.14560246782873       -3.17511580834413       -0.95688266944647
H           -2.55549768731684       -2.55659960601237       -0.07459039105944
H            1.38130842369251       -2.94313824728853       -0.01389874052104
25
 energy: -1.168493642226 xtb: 6.6.1 (8d0f1dd)
C            3.24673803248888        1.19424831268419        0.08497974189543
N            2.31279196727423        0.11072889315368        0.02805954409212
C            2.61080024883429       -1.21326302586585        0.01222272595867
N            1.44514982498584       -1.92914896847944       -0.01848598577655
C            0.40533953449646       -1.05571443778707       -0.00900665501768
C            0.93473340512534        0.22895216832415        0.00747385745723
C            0.10888217735626        1.40396642699179       -0.00866070174230
O            0.50571314072888        2.56935483898275       -0.00465101608003
N           -1.25081963879744        1.05724860625475       -0.03671820086114
C           -2.21030280450948        2.15783430310865       -0.04623613354206
C           -1.80970844286517       -0.19935535624947       -0.05515337942447
O           -3.00646611599453       -0.37631140883846       -0.07926929719623
N           -0.92597531489921       -1.31375873254457       -0.01789382816638
C           -1.48511605591761       -2.66696761010810       -0.02754515611093
H            3.72249732198458        1.23430458659480        1.06830568156114
H            4.01812155568226        1.06495426249927       -0.67550796080471
H            2.70180528209608        2.12047237399409       -0.08606774309363
H            3.59151542295642       -1.63046434482155        0.02247676676949
H           -1.65329028599222        3.09275507266786       -0.02170658294622
H           -2.82227054124155        2.10938538721428       -0.94631406876206
H           -2.86328907893549        2.08702475622028        0.82306750277559
H           -1.40422204138835       -3.36489119599078        0.87569533559481
H           -1.08788085735835       -3.21923414317632       -0.87368151120985
H           -2.56156214014641       -2.54053598505608       -0.14724320462757
H            1.38902970900875       -2.93255599102882       -0.04110581854808
25
 energy: 15.702790597490 xtb: 6.6.1 (8d0f1dd)
C            3.25698980556776        1.22604099007137        0.08528447216656
N            2.32583477647290        0.15047809840430        0.00744319086145
C            2.64322052627288       -1.20328676508490       -0.01715750910934
N            1.45784203767838       -1.91376233277165       -0.04848192042927
C            0.42287674108200       -1.05437507561631       -0.01486669883102
C            0.93224451314554        0.24651236165233       -0.00591598875393
C            0.12950493159616        1.39926123384764       -0.01387532850476
O            0.50919890722777        2.58795035795676       -0.00597926957367
N           -1.25030480358465        1.05113172693946       -0.04263874770127
C           -2.19670475070933        2.16372165944314       -0.04135725085521
C           -1.79449502478606       -0.20027834442151       -0.05257111783722
O           -3.00064592009136       -0.37100826329670       -0.09362069276781
N           -0.92493106091852       -1.33838359565046        0.01645213255381
C           -1.51359786512308       -2.69696249690976        0.01386518402805
H            3.73393314771211        1.25825776416967        1.07109224987210
H            4.03247975358121        1.10787011851583       -0.67569919113957
H            2.70881797503695        2.15107742527193       -0.07749824595768
H            3.61990861384948       -1.60958310986016       -0.00658139907399
H           -1.62799442170585        3.09449807828081       -0.01733481946140
H           -2.81884957291668        2.13169849621015       -0.93577695035278
H           -2.84260742496945        2.10213421696558        0.83492769711630
H           -1.73978517923406       -3.57530372180920        0.93164693519992
H           -0.98929490480929       -3.28759383270199       -0.74313722055653
H           -2.57212385450292       -2.51714170185713       -0.26208505774876
H            1.41069735910058       -2.91392449900513       -0.07910054094939
25
 energy: 39.353216612812 xtb: 6.6.1 (8d0f1dd)
C            3.26323605682188        1.25090854450049        0.08749757685469
N            2.33331311039519        0.17487962989912       -0.01426882819722
C            2.66180225502396       -1.18800000759674       -0.04826282925904
N            1.47379705798320       -1.89763518106500       -0.07802323783608
C            0.42981110705317       -1.05684311500600       -0.02241530891788
C            0.93136793436527        0.25575246896737       -0.01694976486774
C            0.14461379747375        1.40358291210889       -0.01731261657245
O            0.51187097732124        2.59935082714142       -0.00643032342885
N           -1.24757956972581        1.05316607967474       -0.04747095951507
C           -2.18229578333732        2.17465866693166       -0.03744427118530
C           -1.78425647429033       -0.19880717567774       -0.05011943417693
O           -2.99260448914524       -0.36242365172376       -0.10957613708170
N           -0.92941950581626       -1.36172332280202        0.04590032379716
C           -1.55160226417729       -2.72872660620634        0.04556612980503
H            3.73923179627621        1.27603964306478        1.07550492505590
H            4.04573495756275        1.14919553324938       -0.67030947812413
H            2.71770887821295        2.18021314213193       -0.06537983262915
H            3.64222423060859       -1.58357450573643       -0.03685103228729
H           -1.60118109124085        3.09928786299242       -0.01408777205482
H           -2.81183282120071        2.15666465268279       -0.92689589599841
H           -2.82049341185446        2.12017409633646        0.84507701886085
H           -2.02977445394112       -3.74818441627473        0.96894994799609
H           -0.90415443181366       -3.36024645215463       -0.59618562461466
H           -2.56862045389791       -2.52018772266253       -0.36464092082163
H            1.44131689631527       -2.89849311403141       -0.11883774260679
25
 energy: 62.252679534001 xtb: 6.6.1 (8d0f1dd)
C            3.26732775179626        1.26661857128089        0.08961863795198
N            2.33853555063312        0.18679654008590       -0.03312873257748
C            2.66809923993091       -1.16905437095714       -0.07256884719723
N            1.49046238119880       -1.87893136125328       -0.10017863437432
C            0.43229080372944       -1.05452248024375       -0.03425670780922
C            0.93444969017392        0.26308787005112       -0.02281030191156
C            0.15580743801626        1.41667531289397       -0.01959691844118
O            0.51557215384650        2.60615549820792       -0.00812165051737
N           -1.24248380654069        1.06412664912445       -0.04902250145995
C           -2.17181294853571        2.18790013370306       -0.03606279099616
C           -1.77652058215880       -0.19076261319015       -0.04745153188255
O           -2.98089184071551       -0.35136957453190       -0.12397002503159
N           -0.92996734042491       -1.37099528330938        0.05805911278671
C           -1.57107378815318       -2.74571475565766        0.05727710066864
H            3.73940239977034        1.28660730460360        1.07958973142351
H            4.05522072132722        1.17808684077160       -0.66412586374084
H            2.72508924485784        2.20046076774836       -0.05694276384468
H            3.65465341898276       -1.55707434335379       -0.05825372065999
H           -1.58367412264768        3.10820342238981       -0.01491160878921
H           -2.80525518163632        2.17659644244043       -0.92181854121943
H           -2.80396246760722        2.13715555212235        0.85045163865013
H           -2.28384630422603       -3.94179477119489        0.98139072483350
H           -0.86273550909310       -3.40509551716973       -0.45912253010250
H           -2.52527731675738       -2.54136546343563       -0.41751417079191
H            1.47280471920568       -2.88276158238202       -0.14949519277273
25
 energy: 80.625355638419 xtb: 6.6.1 (8d0f1dd)
C            3.27103476992221        1.27411852032487        0.08625865396777
N            2.34409512343310        0.18650398785521       -0.04752502412885
C            2.66187350504454       -1.14532010295939       -0.08828641022423
N            1.50729519192695       -1.85683026777338       -0.11338735865111
C            0.43252222582406       -1.04295461264107       -0.05119774940480
C            0.94389667143409        0.27256482704521       -0.02417599217921
C            0.16434101838276        1.43841466989730       -0.02229238596702
O            0.52025883359867        2.61055814674850       -0.01061430722672
N           -1.23218778174922        1.08374038698811       -0.04632411966266
C           -2.16637226331741        2.20018473812021       -0.03102628976786
C           -1.76779343921566       -0.17633486256965       -0.05151243984600
O           -2.96297700750939       -0.33918830962100       -0.13263512995797
N           -0.91745786872297       -1.35866170795843        0.04207718640402
C           -1.56100397534497       -2.73355781020614        0.05571425065458
H            3.73924946764664        1.29345320774576        1.07588633153987
H            4.05917421399790        1.19372111041532       -0.66575709747558
H            2.72945239892523        2.21076915185464       -0.05802946198669
H            3.65622793890300       -1.53138815201954       -0.07404737539569
H           -1.58047674614206        3.12022357477927       -0.01263777399795
H           -2.80269002647589        2.18684009777973       -0.91336901534708
H           -2.79342928441454        2.14571599884775        0.85784458682404
H           -2.56921391620505       -4.19524938947891        1.00008446753901
H           -0.81374224382882       -3.42616226768274       -0.30653615238704
H           -2.44903531150729       -2.55667899344574       -0.47201914416326
H            1.49917281036659       -2.86545315330174       -0.16945833696503
25
 energy: 87.393684334609 xtb: 6.6.1 (8d0f1dd)
C            3.27126791281703        1.27399708347523        0.08075198115474
N            2.34763071225041        0.17213361745187       -0.04901184690945
C            2.64529055341792       -1.12146879604916       -0.09251440495112
N            1.52032634982125       -1.84254860166053       -0.11955080868440
C            0.42783078302790       -1.02635413290298       -0.06828104550754
C            0.95876835762492        0.27913395678495       -0.02449202201240
C            0.16421672876628        1.45944282953384       -0.02679869068785
O            0.52372815726324        2.60990260480496       -0.01112129530248
N           -1.21731007508430        1.10344229061582       -0.04476161085253
C           -2.16330287702100        2.20850142151574       -0.02611574814286
C           -1.76342035033894       -0.16303085388199       -0.06063362981798
O           -2.94775576616271       -0.32970691564067       -0.13437191604662
N           -0.89389620522674       -1.32405440212650        0.00188729806297
C           -1.51792107605547       -2.68046894344984        0.04260677149332
H            3.73579999153754        1.29482036868438        1.06858280007191
H            4.05759088527625        1.19808385894465       -0.67038160234241
H            2.72802488283383        2.21156503044577       -0.06253570533481
H            3.64793123361414       -1.51270159597669       -0.08414139500287
H           -1.58533589438108        3.13113955619525       -0.00965943653278
H           -2.80221700228787        2.18784402408208       -0.90621190021510
H           -2.78804601890072        2.14647351895428        0.86323904691858
H           -2.78524035513091       -4.43734604224792        1.02488590778346
H           -0.78129289172636       -3.41635461617024       -0.17715000768093
H           -2.38041362851738       -2.57791576851621       -0.50703286911348
H            1.50995989755526       -2.85550070412190       -0.18015395815281
25
 energy: 86.085142395809 xtb: 6.6.1 (8d0f1dd)
C            3.27050969863723        1.27113306856387        0.07647748700526
N            2.34881488689754        0.15880701276637       -0.03770144246029
C            2.63259777613943       -1.10682658844187       -0.08933712852917
N            1.52715001730707       -1.84328336390843       -0.12404406313237
C            0.42217006410173       -1.01204880243116       -0.08572668095153
C            0.97140258638623        0.28540891715268       -0.02619038443708
C            0.15688183818084        1.46935587089533       -0.02931088946976
O            0.52737290232849        2.61317935713507       -0.00588537655036
N           -1.20435185502323        1.11279164362823       -0.04629022577646
C           -2.16196333766713        2.21130494735055       -0.02223615839179
C           -1.76596203932543       -0.15635217635603       -0.07455286785036
O           -2.94633195246251       -0.32237035334745       -0.13209567226392
N           -0.87530975016704       -1.28928348955165       -0.04926619337749
C           -1.46543252568368       -2.60168115572294        0.02047562169728
H            3.73300115432075        1.29127764619877        1.06310446229455
H            4.05374773145470        1.19154298243078       -0.67527389530595
H            2.72346950024872        2.20595430349110       -0.06747042670079
H            3.63813576434511       -1.50784361380665       -0.08613827567914
H           -1.59428112523255        3.13920446642418       -0.00532131758537
H           -2.80280733256682        2.18380560282236       -0.90187469899481
H           -2.78796595914102        2.14192598025615        0.86602263597485
H           -2.86952616388569       -4.58931693797777        1.05704080746738
H           -0.75751325567344       -3.39767155826836       -0.10002764164607
H           -2.36570107333696       -2.60383403509891       -0.51477907090627
H            1.50410675479017       -2.85615093546004       -0.18256469223576
25
 energy: 85.432477494984 xtb: 6.6.1 (8d0f1dd)
C            3.27132080475283        1.27330422402871        0.07791742428043
N            2.35049892005160        0.15506882065787       -0.01563807845851
C            2.63135733587992       -1.09660364409911       -0.07941178075918
N            1.53820618043678       -1.85229751583712       -0.12865830744200
C            0.42303071875575       -0.99983402457329       -0.10641427853086
C            0.98321180213342        0.29711774495006       -0.02991468023749
C            0.14722356188284        1.46991308444550       -0.03202094226455
O            0.53354829267010        2.62024976701108       -0.00230004213839
N           -1.19264113817286        1.11320049911925       -0.05346230918644
C           -2.16071835293145        2.21030805838512       -0.02684028373786
C           -1.76808286246495       -0.15705607773863       -0.08811080091467
O           -2.95036216369593       -0.31648896911926       -0.12855338987564
N           -0.86180711123277       -1.26825655678134       -0.10830331295705
C           -1.40793751787872       -2.50876974916134       -0.02902329977641
H            3.73134056020673        1.29280437481158        1.06486711912736
H            4.05279745005830        1.18539535818161       -0.67390872045997
H            2.71791319202513        2.20204207111788       -0.06870335152872
H            3.63478141606301       -1.50863414390326       -0.07487801813107
H           -1.60338187803459        3.14472052857403       -0.00930997514314
H           -2.80219642636889        2.17531040227987       -0.90750062122954
H           -2.79062222626224        2.13614938389788        0.85931600282860
H           -2.87342073567121       -4.75239036188401        1.07737320276920
H           -0.80345830337111       -3.34817761979820       -0.10178818134286
H           -2.38427331550730       -2.61704123836042       -0.41061919420902
H            1.49588610164808       -2.86100562746030       -0.17708026848764
25
 energy: 85.994906307928 xtb: 6.6.1 (8d0f1dd)
C            3.27605856956901        1.27420177822972        0.07621005346010
N            2.35094570150073        0.16970020107302       -0.00060373250993
C            2.64264990559583       -1.10382896208147       -0.06999781578925
N            1.53682515233215       -1.86097914917340       -0.13132838978734
C            0.43153221060674       -0.98400542822071       -0.12332316049937
C            0.98461995700619        0.31887392562033       -0.03548588038138
C            0.14605598631883        1.47004271745263       -0.02851567429895
O            0.54516263171801        2.64088196148162        0.00767859335997
N           -1.19311763952418        1.11870995280122       -0.06024264827364
C           -2.16748732346402        2.21443527952878       -0.02075851835324
C           -1.76779816579602       -0.14480763990785       -0.11351956436653
O           -2.96104906589543       -0.30033746812742       -0.12781212082881
N           -0.86637756837746       -1.25936287400670       -0.16627021577772
C           -1.38302864250704       -2.45681638712454       -0.09485044247177
H            3.73760217587724        1.29029162840673        1.06380874992056
H            4.05161129870922        1.17045755860735       -0.68053285186141
H            2.71577754511674        2.19550582836374       -0.07367428844240
H            3.63477688138370       -1.52243532066063       -0.06254893099083
H           -1.61828544342201        3.15430495657230        0.00157205634714
H           -2.80852275856220        2.17378837287412       -0.90228571038058
H           -2.79795598844348        2.12767284633227        0.86513850947957
H           -2.85857186188878       -4.82433613612169        1.12190692069182
H           -0.74752441596545       -3.40467257762281       -0.10328984631459
H           -2.44739045852986       -2.60579752914311       -0.34420460331229
H            1.47570562161401       -2.86245874640936       -0.17003657642459
25
 energy: 81.673355017208 xtb: 6.6.1 (8d0f1dd)
C            3.27854037133077        1.27684372743462        0.07679399746251
N            2.35145175351311        0.18413673261674       -0.00338434099327
C            2.65617253355476       -1.11267489793845       -0.06307788047157
N            1.53411170463419       -1.85963306232022       -0.12443662352473
C            0.44348044468938       -0.98216544219909       -0.10953989118478
C            0.97937760542897        0.32636128076326       -0.03859285242467
C            0.15274955444288        1.46569167241991       -0.02712896563015
O            0.54673795988440        2.64734436451256       -0.00119740052088
N           -1.20104301034993        1.11765336115460       -0.06326508863603
C           -2.17087609427016        2.21402516646447       -0.02791779189747
C           -1.75992721209383       -0.14006214407808       -0.10614943010939
O           -2.95934143770512       -0.30226718562680       -0.12162771467378
N           -0.87184907945312       -1.27504246218685       -0.14018584543085
C           -1.39986375451588       -2.50309042744779       -0.11001126988474
H            3.74177729245728        1.29654760230116        1.06510135099891
H            4.05438118447669        1.17091408532438       -0.68064936211522
H            2.71701959814080        2.19713425298157       -0.07503941403995
H            3.64200306156114       -1.52517383697727       -0.05180128107364
H           -1.61727846090419        3.15150765109991       -0.00715230661762
H           -2.80960067022018        2.17022442796907       -0.90994377008517
H           -2.80018443884223        2.12849780421434        0.85860684859927
H           -2.81046532951654       -4.86545337599435        1.13467620866928
H           -0.77510604529925       -3.36616421538504       -0.19868820195843
H           -2.48281452209060       -2.56656992611178       -0.28984824681083
H            1.47276129611909       -2.85955636424671       -0.15850681545226
25
 energy: 80.775727256789 xtb: 6.6.1 (8d0f1dd)
C            3.27746515015093        1.27460347501977        0.08264728152527
N            2.35104942161660        0.17961298678194       -0.00947895708690
C            2.65177293857423       -1.11448941594416       -0.06144638647221
N            1.52949649424021       -1.85342820369746       -0.12725446367940
C            0.44378461861752       -0.98321916873577       -0.11640241611323
C            0.97721026176077        0.32225327712060       -0.04570779620960
C            0.15373602291502        1.46572922792704       -0.02955552165854
O            0.54142767102895        2.64316977580166       -0.00211552941590
N           -1.20624829888563        1.11934882590798       -0.06512456606334
C           -2.17122555184187        2.21431480291132       -0.02844089713845
C           -1.75824366679860       -0.13431683191522       -0.11423647149035
O           -2.95568833552022       -0.30990359825246       -0.12660722611471
N           -0.86984974140967       -1.27095694384037       -0.15423763970163
C           -1.40190778324678       -2.51140704308443       -0.13179501897702
H            3.74088433303818        1.29733203684814        1.07068585965963
H            4.05674713839532        1.17984740493153       -0.67277826669766
H            2.71866416407409        2.19951053444609       -0.06532043488178
H            3.64060488034422       -1.52372947675833       -0.05157721946524
H           -1.60879977257402        3.14550467352681       -0.00592044718942
H           -2.80941198875320        2.17552070780678       -0.91050388401304
H           -2.79929965554332        2.12923550033363        0.85813215049860
H           -2.79299331109624       -4.87243627062294        1.17945209207751
H           -0.79554633472059       -3.37949003362532       -0.22771528688601
H           -2.47431849466434       -2.54653982105439       -0.25276229226930
H            1.47290414527090       -2.85703763308832       -0.16490275004270
25
 energy: 80.359932227300 xtb: 6.6.1 (8d0f1dd)
C            3.27684913406463        1.27032300845296        0.08034623811656
N            2.35217394752370        0.17291835816447       -0.01355708589808
C            2.64547201293949       -1.11771192981703       -0.05453562310181
N            1.52347938285174       -1.84600559156543       -0.11815881276496
C            0.44269279229298       -0.98690209899946       -0.10479214045452
C            0.97457187280197        0.31624040011512       -0.04285045131546
C            0.15818305342576        1.46718915700148       -0.02585571320824
O            0.53738208749691        2.63891031472610       -0.00445219161140
N           -1.21168626158052        1.12223294175607       -0.05725910042513
C           -2.17153097491278        2.21547035021732       -0.02979222991453
C           -1.75912359919924       -0.12369083302661       -0.10591730702217
O           -2.95407093778885       -0.31580800880018       -0.12115677184468
N           -0.87017342043821       -1.26308599974339       -0.15549285629904
C           -1.40788491301111       -2.50719664669713       -0.19041095072308
H            3.74333231511015        1.29820024979874        1.06648516929059
H            4.05503881076049        1.18013567486936       -0.67639228639877
H            2.72020799465241        2.19890930566367       -0.06820618726400
H            3.63944070539303       -1.52189475397189       -0.05293767146875
H           -1.60698346449514        3.14471270871408       -0.01157396549579
H           -2.80852105789519        2.17454552975415       -0.91193670304366
H           -2.80075398879028        2.13557286029690        0.85538027529591
H           -2.77733978573693       -4.89857243380158        1.25917413315378
H           -0.78666516457389       -3.36329710522046       -0.28437090272886
H           -2.47837113908238       -2.54780920202502       -0.24484915303309
H            1.47649490316374       -2.85435746711813       -0.15985379964622
25
 energy: 80.269684554341 xtb: 6.6.1 (8d0f1dd)
C            3.27670703034866        1.27084678400498        0.08365957502768
N            2.35414386743439        0.17220001963826       -0.01520479011596
C            2.64395964059187       -1.11756202798072       -0.05922832054514
N            1.52363186502980       -1.84539589087688       -0.12502792565518
C            0.44150310085527       -0.99118508547140       -0.10860752042981
C            0.97409396284668        0.31443361608839       -0.04553694727975
C            0.16308607932456        1.46895738397731       -0.03163977744708
O            0.53682149780992        2.63958289211552       -0.00356422106130
N           -1.21049118088864        1.12210558681348       -0.06051528889698
C           -2.17012974019743        2.21619452518171       -0.02780201585066
C           -1.76084408106268       -0.12119222030264       -0.11311242266273
O           -2.95410721105637       -0.31637358302760       -0.12420373273446
N           -0.87067645705511       -1.26082248691821       -0.16237291931902
C           -1.41537078057831       -2.49904084320121       -0.21927290359836
H            3.73911296897370        1.29511652588158        1.07177386998514
H            4.05654965097358        1.18033814945003       -0.67156085333134
H            2.72016393167182        2.19889880585088       -0.06594442566593
H            3.63980042903149       -1.51937681133038       -0.05499315794815
H           -1.61031825293631        3.14859929042323       -0.00677925696957
H           -2.80889126400655        2.17828694898296       -0.90967856979670
H           -2.79965641181805        2.13326655797348        0.85750413879411
H           -2.77001596094580       -4.90490033977582        1.33026617217713
H           -0.78943444941219       -3.36640770045447       -0.29101797915065
H           -2.48108598946572       -2.55287245081971       -0.25329257513157
H            1.48366205950390       -2.85466885747864       -0.16681424019916
25
 energy: 80.163645249096 xtb: 6.6.1 (8d0f1dd)
C            3.27701409564280        1.27226527186162        0.08109784581344
N            2.35430258940672        0.17366799304738       -0.01258030093681
C            2.64362948547703       -1.11710485316978       -0.06098603094998
N            1.52390086078270       -1.84753759606758       -0.12546311619208
C            0.43914588919313       -0.99267714300349       -0.10729599625738
C            0.97329932861977        0.31553545585184       -0.03943441376343
C            0.16398235932284        1.46954570971744       -0.02772745343554
O            0.53605701869015        2.64142915883632       -0.00045349449887
N           -1.20940600889395        1.12096095617672       -0.05712401564046
C           -2.16922762621408        2.21668745161094       -0.02803509062209
C           -1.76432437409127       -0.12261096712857       -0.10906051116498
O           -2.95682672470017       -0.31376489702464       -0.12396045410257
N           -0.87275062322022       -1.26160715164879       -0.16068016718027
C           -1.41824866335505       -2.49171449034825       -0.24033325831619
H            3.74123961962550        1.29590933871544        1.06808235085864
H            4.05528362463678        1.17890380441500       -0.67553972778423
H            2.71994288790827        2.19871158997403       -0.06847319078238
H            3.63875974143930       -1.52022129668133       -0.05493663364299
H           -1.60878641177980        3.14914607895540       -0.00812670426772
H           -2.80699502568423        2.17753529486035       -0.91099297684617
H           -2.80023572872682        2.13623654833797        0.85697956494020
H           -2.75904690974491       -4.91538965469882        1.36205107997008
H           -0.79054064124405       -3.36173254322426       -0.28899295980668
H           -2.48303350681850       -2.55750989714429       -0.27628650867283
H            1.48507904870055       -2.85563537347647       -0.16469392452415
25