25
 energy: 0.000000000000 xtb: 6.6.1 (8d0f1dd)
C            3.23720163006194        1.16630919979326        0.08434469647475
N            2.29877817382611        0.07527477071623        0.03981603040599
C            2.58028210190900       -1.21425402444508        0.03006176031096
N            1.43813958087363       -1.93419271955128        0.00098261760884
C            0.39035688448383       -1.05887472636071       -0.00790371836672
C            0.93510056364412        0.21347819449412        0.01709077491437
C            0.09450143893243        1.40504303904423       -0.00410947031874
O            0.49712751527797        2.54126714362870       -0.00342325688240
N           -1.25076640035757        1.06271879480407       -0.03085478223738
C           -2.21907211982101        2.15522099834493       -0.05001256985998
C           -1.81739487048744       -0.20012725993278       -0.04692818574614
O           -2.99983886758376       -0.37846417018721       -0.07008878229737
N           -0.92618586207120       -1.30210215599479       -0.03682761578324
C           -1.46982264913417       -2.64643102187190       -0.06029820460571
H            3.71247264356769        1.21471455160235        1.06488849150277
H            4.00791497605742        1.03430808813993       -0.67357694370751
H            2.69910007168542        2.09770118228144       -0.09130154882931
H            3.56654120610678       -1.63682992603973        0.04233140067262
H           -1.67107961066214        3.09322851271934       -0.02552706933167
H           -2.82428953597071        2.09428624779827       -0.95318082946668
H           -2.87644029173232        2.07745725625962        0.81450067533302
H           -1.17061996399332       -3.19584890659852        0.83242232437030
H           -1.14560257411436       -3.17511610292205       -0.95688275822323
H           -2.55549792440841       -2.55659984320617       -0.07459039797972
H            1.38130855184625       -2.94313852034425       -0.01389874181052
25
 energy: -5.397861647123 xtb: 6.6.1 (8d0f1dd)
C            3.24395868758242        1.17746843414370        0.08683464007762
N            2.30803235381218        0.09559527663873        0.03767309161071
C            2.59949051328358       -1.23255158738754        0.02990131174294
N            1.42736770133927       -1.94012726893439        0.00059956265331
C            0.39631060912803       -1.05601048926291       -0.00834331151685
C            0.93019618294319        0.22269426826203        0.01521952838341
C            0.10168623673702        1.39615722641937       -0.00518921842133
O            0.49831866394155        2.56202417986037       -0.00451561216167
N           -1.26032549723330        1.05072549369973       -0.03107327073101
C           -2.22048832075994        2.14688490615509       -0.04993464633185
C           -1.82365649188439       -0.20058881743204       -0.04724904506127
O           -3.02029820389380       -0.38294262038662       -0.07034684850021
N           -0.93424767093367       -1.30084211539107       -0.03700005829306
C           -1.47188626646883       -2.64295056421439       -0.06007326794034
H            3.72214724322815        1.22320710012234        1.06892277399363
H            4.01204425781636        1.04267029862185       -0.67614879965385
H            2.69727458754600        2.10216851638310       -0.08863375986631
H            3.57767301426717       -1.65892123166493        0.04253255203795
H           -1.65894273071419        3.07816407226551       -0.02539396529971
H           -2.82569677102408        2.09329260983216       -0.95443040476802
H           -2.87818324043640        2.07683308532630        0.81582524961847
H           -1.16836324058911       -3.19413989225437        0.83203093947731
H           -1.14335534458146       -3.17366881394997       -0.95583246780901
H           -2.55721280055263       -2.55227601439651       -0.07442283232996
H            1.36037119538310       -2.94383745028353       -0.01391824476364
25
 energy: -6.560884979309 xtb: 6.6.1 (8d0f1dd)
C            3.25353907963490        1.18657919258518        0.09045867832414
N            2.31759089707886        0.10807575212814        0.03364666420697
C            2.61075870882150       -1.24890230848042        0.02936462447962
N            1.41254344331439       -1.93844034172822        0.00019789371621
C            0.39959473214905       -1.04974518040997       -0.00959583166786
C            0.92788436451547        0.23235345974535        0.01171135211488
C            0.10758587998483        1.38402951017624       -0.00812009438608
O            0.48368394602223        2.56746931343332       -0.00821182287409
N           -1.27206157744629        1.03714494916586       -0.03195502771320
C           -2.22131112748990        2.13706636457965       -0.04996801929358
C           -1.82892282412871       -0.20302329266878       -0.04772623891042
O           -3.03056488836465       -0.39200895452974       -0.07018156888298
N           -0.94128872600153       -1.29651689352535       -0.03731443153819
C           -1.47236339752880       -2.63728858562337       -0.05937997413914
H            3.74109512190600        1.23692442438582        1.07048639481969
H            4.02046327677458        1.06397124719958       -0.67816672442858
H            2.69947124083717        2.10856664119905       -0.07852366441363
H            3.58094475042027       -1.68675019799277        0.04283662941565
H           -1.63599500692186        3.05447434835499       -0.02534176058126
H           -2.82732047688090        2.09299854344751       -0.95520546895394
H           -2.87960086155289        2.07705971593560        0.81689641706871
H           -1.16560813760112       -3.18973322928529        0.83216524321839
H           -1.14065974910691       -3.17024245694790       -0.95397960470338
H           -2.55778798819794       -2.54537062845100       -0.07378878839276
H            1.33054398769844       -2.93966279052146       -0.01327098033789
25
 energy: -6.301218532719 xtb: 6.6.1 (8d0f1dd)
C            3.26242162562069        1.19256220468806        0.09486571893103
N            2.32619885341604        0.11091305192940        0.02898626715505
C            2.61220981466592       -1.26067374854582        0.02751264938513
N            1.40066811993218       -1.93470269278809       -0.00044331699895
C            0.39975038327627       -1.04340640849411       -0.01178724088319
C            0.93013796992246        0.23902905848011        0.00709541595011
C            0.10807710309662        1.37838664433441       -0.01371569436786
O            0.46122959208556        2.56939894857446       -0.01600047558364
N           -1.28190621782756        1.02693787499237       -0.03429457849687
C           -2.22093123241148        2.13023670341904       -0.05056422318685
C           -1.83435194402116       -0.20860284448022       -0.04855139247570
O           -3.03589320232853       -0.40552696545912       -0.06943339541822
N           -0.94377068237652       -1.29304306088689       -0.03788132880507
C           -1.46992157304139       -2.63350835476903       -0.05771634513955
H            3.76395001511901        1.24455218998741        1.06938074225965
H            4.02728099458284        1.09498961180537       -0.68122681004812
H            2.70293387691762        2.11553145976942       -0.05715078677754
H            3.57495594969575       -1.71534766353192        0.04262868937187
H           -1.61042551698635        3.03173919726712       -0.02615822572811
H           -2.82844829442984        2.09524237229868       -0.95541553483639
H           -2.87867703042314        2.07962213354894        0.81760066064533
H           -1.16191294009278       -3.18402208099893        0.83470846344270
H           -1.13725556308561       -3.16710971873211       -0.95168810370466
H           -2.55552211525102       -2.53924864290089       -0.07203882466476
H            1.30141668188060       -2.93492066733561       -0.01167843387808
25
 energy: -1.899914899666 xtb: 6.6.1 (8d0f1dd)
C            3.28835264975412        1.20927478192155        0.11358408727719
N            2.35360785828518        0.11347974362585        0.01167761187275
C            2.60915055964330       -1.29416958103596        0.01680386860467
N            1.36568772065461       -1.92250379134454       -0.00422532907887
C            0.39747373274333       -1.02156475672912       -0.02150209915707
C            0.94140774137744        0.25889562893810       -0.01156926729555
C            0.10494744204620        1.36744260219313       -0.03944965425638
O            0.38626128842207        2.57639649169675       -0.05246210565306
N           -1.31084010981717        0.99686066603059       -0.04647224079776
C           -2.21737296233197        2.11323616764848       -0.05448935906722
C           -1.85318908420722       -0.22929646156411       -0.05254940095818
O           -3.05198717906341       -0.45225549911826       -0.06538893609265
N           -0.94767992200867       -1.28360444120170       -0.04059954698745
C           -1.45657754265069       -2.62554699778952       -0.04899376830994
H            3.84622402230291        1.24467423288576        1.06442219250654
H            4.03704021039248        1.21324342416779       -0.69801691091707
H            2.70797841951870        2.13783884468104        0.04407366410217
H            3.54537518542742       -1.80945720224771        0.03994370280346
H           -1.52879952361129        2.96401336751839       -0.03233911995960
H           -2.83220016226507        2.10872183257519       -0.95582080366736
H           -2.87011265024101        2.09356364430291        0.81969053425293
H           -1.14474570673204       -3.16459537744131        0.84885395239246
H           -1.12209583314186       -3.16138162921451       -0.94055740120483
H           -2.54270576413249       -2.52510192917809       -0.06252604135150
H            1.20701427757126       -2.91913515914866       -0.00505373291043
25
 energy: 15.596217954676 xtb: 6.6.1 (8d0f1dd)
C            3.32160842973044        1.23295472559295        0.14697718863145
N            2.39260334290124        0.11588920035512       -0.01811166022688
C            2.60069447946858       -1.34119747604604       -0.00306916235465
N            1.31484634351580       -1.90173895786270       -0.01125346989124
C            0.39253709800278       -0.98625852189600       -0.03904004716278
C            0.95896439341529        0.29021513480999       -0.04435925560766
C            0.10163974551439        1.35599819766564       -0.08621483451241
O            0.27349458115215        2.58725820909938       -0.11874737377217
N           -1.35306559464100        0.95411492870660       -0.06963813307339
C           -2.20894397584274        2.09088663905932       -0.06212203394937
C           -1.88166915950787       -0.26020077107926       -0.05999296497770
O           -3.07463052743512       -0.52282341662425       -0.05760289650206
N           -0.95153097784723       -1.26901981733565       -0.04599142854209
C           -1.43139284491473       -2.61534723514025       -0.03262262071908
H            3.97512609066037        1.21461360510619        1.05636545819647
H            4.03012731304133        1.39859817534671       -0.73059667237956
H            2.71005388980606        2.17309697020442        0.22859940784521
H            3.49535043989402       -1.94823982347706        0.03443096297883
H           -1.40793879993438        2.86542227545587       -0.04481911136866
H           -2.83494923367038        2.12964200262520       -0.95676144306871
H           -2.84880723912718        2.11376358163443        0.82369828565111
H           -1.11252658008084       -3.13241043481933        0.87544654801101
H           -1.09425337697004       -3.15583675511681       -0.91940680193459
H           -2.51868805732176       -2.50866600654638       -0.04437210478931
H            1.06356488812678       -2.89168582754599        0.00623805966550
25
 energy: 20.580676066169 xtb: 6.6.1 (8d0f1dd)
C            3.32053357133508        1.23660969725103        0.16681065632209
N            2.40191273827731        0.11015686726886       -0.03594201357035
C            2.58724286612005       -1.34972562562583       -0.01155424741833
N            1.30457730761687       -1.88792381058237       -0.01382515021319
C            0.38776392340870       -0.96855862955650       -0.05105230418293
C            0.96937360852576        0.30361772523107       -0.06593356910066
C            0.10962395638245        1.36717084393195       -0.11855977315397
O            0.24301180208938        2.58640783034592       -0.16335619793114
N           -1.36450153580051        0.95027207199413       -0.08634132508255
C           -2.20410279396435        2.09023618291664       -0.06476602653102
C           -1.89012973049909       -0.26859161817544       -0.06509397019817
O           -3.07429686829292       -0.54817384754242       -0.05139058335655
N           -0.94548161293126       -1.26144167781562       -0.05157733259558
C           -1.41111818368805       -2.61374334098617       -0.02290081114411
H            4.01948918310913        1.15367728781925        1.04916705381607
H            3.98670998159655        1.45857622528920       -0.74290951624270
H            2.71084643433543        2.18428307055803        0.33440300098996
H            3.46329353203957       -1.98819615426120        0.03187546607548
H           -1.39122166677504        2.84330546332002       -0.05007736847124
H           -2.83099574060332        2.13334568604339       -0.95464768538918
H           -2.82714988100038        2.10977211274155        0.82905393618850
H           -1.09000691961308       -3.11415376508049        0.89263750130250
H           -1.07578612608242       -3.15706888123943       -0.90677354182782
H           -2.49997014758873       -2.50943504435771       -0.03276792899191
H            1.01259696993883       -2.87139006731574        0.01255562685405
25
 energy: 19.356475405127 xtb: 6.6.1 (8d0f1dd)
C            3.28902141564351        1.21936297284917        0.20331405159954
N            2.39620237394144        0.07910590241991       -0.06394633925851
C            2.54570361717678       -1.32379056694789       -0.01757943057646
N            1.33129485086069       -1.86985046253915       -0.01522517868193
C            0.37337188678671       -0.94723890077436       -0.07614781210796
C            0.99337597265650        0.30791897792884       -0.10731541847166
C            0.14126630530968        1.42137038428850       -0.18435680201727
O            0.27688349645244        2.57164082200545       -0.26107640694425
N           -1.35530614380962        0.98039150038201       -0.12244058879780
C           -2.20403656017822        2.11548541635750       -0.06287333884229
C           -1.89527447259931       -0.26707276436958       -0.07532407942533
O           -3.05632551671107       -0.56085964285643       -0.03578012431513
N           -0.91881820903845       -1.25699819412702       -0.06774292111232
C           -1.36815004684761       -2.62573570002481       -0.00616743107175
H            4.03871734167825        0.99491514249626        1.01770279825495
H            3.85426375025707        1.48985427856715       -0.72130056454166
H            2.72079233070268        2.15204509485520        0.49965784048168
H            3.39599840661175       -1.97634267221200        0.02443468920818
H           -1.48052307988585        2.88068976194438       -0.05267382365875
H           -2.82810000880786        2.14597225484371       -0.94200442381047
H           -2.78570112867074        2.09028116497420        0.84662647232446
H           -1.04592964622226       -3.08994428651435        0.92467654601647
H           -1.04181933920250       -3.17391926417962       -0.88512381442205
H           -2.46062241661813       -2.53809938549622       -0.01049679800953
H            0.99592948844994       -2.83015323169866        0.01819679432708
25
 energy: 34.236225322644 xtb: 6.6.1 (8d0f1dd)
C            3.29994467582579        1.21896255967328        0.24639775505188
N            2.41755179391244        0.07128785284194       -0.09432310633060
C            2.53034830532685       -1.34112119787165       -0.03347946969447
N            1.30481673350799       -1.85279583181434       -0.02251591844473
C            0.36594045563417       -0.91758472058605       -0.09981032370571
C            1.01028500892110        0.32977506277707       -0.14784714222992
C            0.15179944631130        1.43150472834694       -0.24516745198692
O            0.21575098074653        2.59703704406028       -0.37714268216964
N           -1.37361516384409        0.96397622799051       -0.15548979198713
C           -2.19953064357056        2.11315971177078       -0.06590017905262
C           -1.91269542824325       -0.28167820230526       -0.08704549038642
O           -3.06606294719428       -0.60106649720356       -0.02051961103395
N           -0.91626204332712       -1.24778342266150       -0.08017895407562
C           -1.33463322714583       -2.62716591114647        0.01253234150950
H            4.13109016909827        0.89107366150925        1.00091304929460
H            3.78891288979420        1.62612223173889       -0.73343461522760
H            2.72090744732597        2.14457706747241        0.71011366127001
H            3.34736976741208       -2.04991920057497        0.01684892181115
H           -1.44279098864151        2.85292694382852       -0.06115782117908
H           -2.84001374557250        2.17081921521133       -0.93236845170062
H           -2.75546905830968        2.09489365142796        0.86020286448282
H           -1.00078220521579       -3.06079047452424        0.95617200283281
H           -1.00510729625888       -3.18491021138663       -0.85850767475263
H           -2.42846503824516       -2.55234846460933        0.01246705674672
H            0.90292477968762       -2.79992322179291        0.02627492710544
25
 energy: 36.200312867655 xtb: 6.6.1 (8d0f1dd)
C            3.32908563364891        1.18831849626622        0.27346782758929
N            2.42925764511537        0.08318122446089       -0.09410464486665
C            2.55908774634863       -1.31919206446009       -0.02981616902817
N            1.27613227426185       -1.87807316830323       -0.03236709235790
C            0.36990067911094       -0.91700433534586       -0.11235726450483
C            1.00595953914830        0.32283096956305       -0.16394668758419
C            0.12882089138805        1.39598271266877       -0.24062953044266
O            0.18616177173738        2.71992126818555       -0.51585506057636
N           -1.34635978675352        0.92970280309224       -0.16295902434258
C           -2.20124163941884        2.10771627695693       -0.05734112172999
C           -1.91432815159532       -0.27950694022638       -0.10087738913081
O           -3.09668206362262       -0.58038348826180       -0.00441872374514
N           -0.94407424629467       -1.26828221311370       -0.09227965849520
C           -1.33750280949253       -2.64490147649085        0.01682536551312
H            4.13483805550778        0.88012959250329        0.96306934465671
H            3.77479756891906        1.69442824466281       -0.67827325743038
H            2.72381502779338        2.02109211191025        0.78840062103557
H            3.36891417877816       -2.03201122220333        0.00738310829647
H           -1.40529593745464        2.92194675544924       -0.05805398747536
H           -2.88657277631670        2.22206669137877       -0.91167012936891
H           -2.76456308008184        2.11833557617122        0.87840399321176
H           -0.97738259509776       -3.06964609159206        0.96055383296940
H           -0.98594467449359       -3.21704127084840       -0.84651367592842
H           -2.42219337084389       -2.59862250528306        0.02142897625840
H            0.90758478764376       -2.81195934496822        0.01896424362409
25
 energy: 32.708821246129 xtb: 6.6.1 (8d0f1dd)
C            3.31356595374984        1.17980861257415        0.31396589045397
N            2.42197685107187        0.07358576709379       -0.11587572928488
C            2.53311081340331       -1.31379954775015       -0.03427216492431
N            1.27350605339389       -1.85993946024911       -0.04123486477923
C            0.35955983888798       -0.89900401265910       -0.14296751121189
C            1.00738971178856        0.33612513902552       -0.22005255113458
C            0.13591036511631        1.42152784381314       -0.34674036302955
O            0.20878716123456        2.68746659570905       -0.58883833560861
N           -1.35583715482434        0.95183368529718       -0.20603313129129
C           -2.20620694620882        2.11916246850638       -0.05160405660318
C           -1.92080833064344       -0.27217641247510       -0.11179658272800
O           -3.08939195503329       -0.58597800283664        0.00904043208490
N           -0.93672955309549       -1.25793081791989       -0.11316936166109
C           -1.30459886667041       -2.64729769903768        0.03573538663067
H            4.19038905216135        0.77421955171374        0.93863242309919
H            3.69578483905295        1.76217102654843       -0.64451608381162
H            2.73020405857288        1.99229646434651        0.94772362353767
H            3.32765981612300       -2.04618744057338        0.00015976707205
H           -1.42806674894468        2.91978272404943       -0.05998047398472
H           -2.90100024280735        2.23836224146913       -0.88925345963383
H           -2.73603641190755        2.10485920864596        0.90101879670227
H           -0.92923800366107       -3.04092438341045        0.99016799331413
H           -0.95112767855092       -3.23444665947284       -0.81558908707620
H           -2.39340923954244       -2.62842425633317        0.04879301591173
H            0.86682128526881       -2.78606403390262        0.02372032410364
25
 energy: 22.864641059257 xtb: 6.6.1 (8d0f1dd)
C            3.28585006118119        1.16126308428528        0.34921752615562
N            2.38635325705628        0.07913608991925       -0.12754203995767
C            2.50726985792096       -1.29155024179817       -0.02362353582116
N            1.28629670534177       -1.84787351371833       -0.05609652653624
C            0.35107477196719       -0.89844719641801       -0.18026253741246
C            0.98066599831797        0.34204738425523       -0.28542381777445
C            0.10811687979928        1.44683630520419       -0.48720004136431
O            0.29451450105147        2.59368222741122       -0.61169569085592
N           -1.35931242737453        0.99905222372378       -0.25461607009131
C           -2.20845908649253        2.14139935676537       -0.03997491178123
C           -1.91554939731876       -0.24627120470216       -0.11972795636781
O           -3.07253766657556       -0.55043439232101        0.02002833878579
N           -0.93404664531184       -1.25193599173019       -0.14494149737863
C           -1.28011043692376       -2.64741124369785        0.05408843846786
H            4.18790246737605        0.71740981307925        0.89391164113198
H            3.63160907563238        1.77629979648362       -0.54234449521998
H            2.75387323125229        1.90654675666853        1.03631478299188
H            3.31080952125390       -2.00605182499294       -0.01608367464628
H           -1.48364998422602        2.93949017110180       -0.05260319011011
H           -2.92083686096908        2.25991294549408       -0.84844758020723
H           -2.70826259317433        2.08520895161159        0.92572540810086
H           -0.88099147733282       -3.01305944373531        1.01222780134645
H           -0.92034148482850       -3.25714170096795       -0.77906105570176
H           -2.37137146685519       -2.67346488756500        0.08277335321840
H            0.88334786716764       -2.77561486218397        0.02239122717499
25
 energy: 24.784205837438 xtb: 6.6.1 (8d0f1dd)
C            3.27418410133728        1.13744020944515        0.40039940141924
N            2.37574163227395        0.08390648173296       -0.15504008769666
C            2.49764964104122       -1.27689396981211       -0.02001883775718
N            1.27292397164714       -1.84453963222279       -0.07334812911475
C            0.34549206950033       -0.88945912288121       -0.22442259361996
C            0.97025630133531        0.34673230223915       -0.34840314453281
C            0.09226830103993        1.44460328635421       -0.57691919965719
O            0.30428930469905        2.61430866034604       -0.76125431650041
N           -1.35234423369986        1.00794732835117       -0.30514968522419
C           -2.20430898217444        2.15042991204659       -0.03054415196270
C           -1.91437451434572       -0.23392850457833       -0.14363227545804
O           -3.07213169529067       -0.52958228761551        0.03950460765287
N           -0.94245094381461       -1.25050329659186       -0.18075182703395
C           -1.25399625832897       -2.65019684090644        0.07598854157645
H            4.21938425377192        0.61069503901775        0.84756510144173
H            3.54247923597802        1.85913179603296       -0.46503468612475
H            2.76504110991176        1.81255541505140        1.22699565108074
H            3.29409590676706       -1.99514874193729       -0.03289296362363
H           -1.49602671340127        2.97197157107381       -0.04534033511438
H           -2.95477680950962        2.29607089494097       -0.80799761658827
H           -2.67088383296747        2.06743483449172        0.95512979554873
H           -0.82347103789844       -2.97469772228938        1.04395949008492
H           -0.88184887516763       -3.28515542566109       -0.73764097551419
H           -2.34260211308707       -2.72006227340773        0.12061894901701
H            0.86762484831811       -2.76403131104773        0.02526318384859
25
 energy: 16.349082159565 xtb: 6.6.1 (8d0f1dd)
C            3.24982565782473        1.10879558662553        0.43695695788786
N            2.34367265887133        0.11528077161995       -0.17416191331595
C            2.50391210705803       -1.25186537307748        0.00525990354318
N            1.26522733218251       -1.85754414712119       -0.09865720869255
C            0.34826504263202       -0.90756968836532       -0.27247101946714
C            0.93417832276640        0.33323373746965       -0.39713594049025
C            0.03735859718912        1.40963742530768       -0.62531518417994
O            0.34695919923659        2.63316548127829       -0.88508466358535
N           -1.32855144158202        1.02670171597435       -0.34805525298330
C           -2.19490511316662        2.15845460680582       -0.01835183470600
C           -1.89325387265885       -0.20712557097911       -0.16727734502502
O           -3.06306407801902       -0.45833111270133        0.05393744238374
N           -0.96311688416946       -1.25715344828473       -0.22725331025648
C           -1.24810020593294       -2.64325277656608        0.09169867001230
H            4.17704888574743        0.57564570577411        0.78407635555777
H            3.47439791136341        1.87732995139456       -0.32233763788798
H            2.79161960489718        1.66128778851872        1.31363976835613
H            3.32486928172637       -1.93040182763795       -0.06405110651483
H           -1.52177573863596        3.02859366922321       -0.02745852852209
H           -2.99021499669926        2.32258266009241       -0.75336682066572
H           -2.63674249345161        2.03727459344453        0.97758255100209
H           -0.78370562854508       -2.93244869599462        1.05739737139232
H           -0.85930960169431       -3.30524577949441       -0.69760892096256
H           -2.32479319428829       -2.76314871503672        0.16038433734530
H            0.92241331528359       -2.78486795609746        0.02468722592172
25
 energy: 20.983605417733 xtb: 6.6.1 (8d0f1dd)
C            3.22408038113997        1.07724951842897        0.49578401447508
N            2.32812925518590        0.12205918139288       -0.20809979242516
C            2.49128509342374       -1.24555005692470        0.01818666998036
N            1.26565367834282       -1.85393532494509       -0.12018223155987
C            0.34394928411957       -0.90954598210969       -0.33229011716962
C            0.92375421346303        0.33421545252049       -0.46617827886596
C            0.01421392975212        1.40978782049006       -0.73560850972494
O            0.33803919705868        2.60389492475098       -1.02513122712673
N           -1.32771695791602        1.04311363359247       -0.40997756995639
C           -2.17748703648471        2.17563665851338       -0.00918826376907
C           -1.88885663477436       -0.19455024857379       -0.19512244638136
O           -3.05414594744106       -0.42170961582471        0.07298031325018
N           -0.96941016552766       -1.25318595221226       -0.28265313003587
C           -1.22484634036947       -2.63467641437314        0.11696101156702
H            4.16753278111299        0.49494583243395        0.72859622187556
H            3.37886325402798        1.98061954886758       -0.20710947089062
H            2.80002772351485        1.52102115020975        1.50015386183530
H            3.32149999359598       -1.90654811678321       -0.10342477251382
H           -1.52663107134213        3.04811923161252       -0.01485967748916
H           -3.01904116379878        2.35917075959248       -0.69670663013847
H           -2.57363380581505        2.01236442970567        1.00701737406742
H           -0.72983400268554       -2.86448945887159        1.09193877413383
H           -0.82986539914525       -3.32626153862109       -0.64544536842207
H           -2.29544066654054       -2.79986722776931        0.21374334703864
H            0.93209507503812       -2.78284960293009        0.03364979439291
25