25
 energy: 0.000000000000 xtb: 6.6.1 (8d0f1dd)
C            3.23720163006194        1.16630919979326        0.08434469647475
N            2.29877817382611        0.07527477071623        0.03981603040599
C            2.58028210190900       -1.21425402444508        0.03006176031096
N            1.43813958087363       -1.93419271955128        0.00098261760884
C            0.39035688448383       -1.05887472636071       -0.00790371836672
C            0.93510056364412        0.21347819449412        0.01709077491437
C            0.09450143893243        1.40504303904423       -0.00410947031874
O            0.49712751527797        2.54126714362870       -0.00342325688240
N           -1.25076640035757        1.06271879480407       -0.03085478223738
C           -2.21907211982101        2.15522099834493       -0.05001256985998
C           -1.81739487048744       -0.20012725993278       -0.04692818574614
O           -2.99983886758376       -0.37846417018721       -0.07008878229737
N           -0.92618586207120       -1.30210215599479       -0.03682761578324
C           -1.46982264913417       -2.64643102187190       -0.06029820460571
H            3.71247264356769        1.21471455160235        1.06488849150277
H            4.00791497605742        1.03430808813993       -0.67357694370751
H            2.69910007168542        2.09770118228144       -0.09130154882931
H            3.56654120610678       -1.63682992603973        0.04233140067262
H           -1.67107961066214        3.09322851271934       -0.02552706933167
H           -2.82428953597071        2.09428624779827       -0.95318082946668
H           -2.87644029173232        2.07745725625962        0.81450067533302
H           -1.17061996399332       -3.19584890659852        0.83242232437030
H           -1.14560257411436       -3.17511610292205       -0.95688275822323
H           -2.55549792440841       -2.55659984320617       -0.07459039797972
H            1.38130855184625       -2.94313852034425       -0.01389874181052
25
 energy: -5.393837082247 xtb: 6.6.1 (8d0f1dd)
C            3.24417771726624        1.17774626615676        0.08723850743657
N            2.30811238038810        0.09599033596755        0.03749207466565
C            2.59962655892274       -1.23208992237072        0.02916976421044
N            1.42755932605398       -1.93974169370650       -0.00042250713413
C            0.39625005841319       -1.05587139525272       -0.00867280384464
C            0.93024079251262        0.22294369575368        0.01513648097569
C            0.10187857396479        1.39642905761689       -0.00477779006205
O            0.49844893300504        2.56234711661608       -0.00381192600330
N           -1.26004364015396        1.05069225553481       -0.03087690535799
C           -2.22010819547969        2.14679462571171       -0.05036679830524
C           -1.82355668041572       -0.20072592872335       -0.04694427700632
O           -3.02019244731197       -0.38293975510225       -0.07002798376169
N           -0.93443682714482       -1.30119335179374       -0.03673316246058
C           -1.47271400457683       -2.64337489412975       -0.05943688725147
H            3.72235926411315        1.22290884834968        1.06935088170505
H            4.01234747079906        1.04323018472615       -0.67571526105957
H            2.69768196014948        2.10261894511696       -0.08775934306422
H            3.57786386609902       -1.65833426344250        0.04177452919471
H           -1.65893454540112        3.07828943331981       -0.02557886985617
H           -2.82433400006523        2.09230092104441       -0.95534905281333
H           -2.87839674298025        2.07669830787141        0.81483474915216
H           -1.16956456669988       -3.19483082793749        0.83265579280484
H           -1.14472540237282       -3.17463510043291       -0.95508073340724
H           -2.55811845330410       -2.55279968835967       -0.07367458173214
H            1.36079327215520       -2.94342457036227       -0.01539000087773
25
 energy: -6.556090289794 xtb: 6.6.1 (8d0f1dd)
C            3.25059060638368        1.18405398639861        0.09036782598196
N            2.31394729876805        0.10762151750366        0.03352270764085
C            2.60894133772551       -1.24400651865072        0.02755641004447
N            1.41632977544193       -1.93789003404503       -0.00227311453635
C            0.39945258730511       -1.05190360428595       -0.00994590991704
C            0.92642134745822        0.23065916686785        0.01259130400212
C            0.10805063865916        1.38521292126243       -0.00566717223584
O            0.48760166577013        2.56549201609067       -0.00467734597399
N           -1.26936222279426        1.04044507860639       -0.03091476006570
C           -2.22008161518782        2.14051041960109       -0.05133304678528
C           -1.82518573830858       -0.20195394960679       -0.04662428187339
O           -3.02566646344883       -0.38959229818138       -0.06940391249937
N           -0.94010904580813       -1.29868931358812       -0.03637559503382
C           -1.47384424922791       -2.63972875019348       -0.05779961832846
H            3.73508455689217        1.23045945708702        1.07130508188151
H            4.01841474364785        1.05765738924841       -0.67618862767559
H            2.70008563338153        2.10756233692504       -0.07945821819693
H            3.58079407467844       -1.67515503078775        0.04035995429891
H           -1.64383577473279        3.06354261626492       -0.02601479766103
H           -2.82358607609213        2.09197180759834       -0.95756234719634
H           -2.88023320130625        2.07770890892642        0.81344147344752
H           -1.16922996941569       -3.19297209975395        0.83391307514595
H           -1.14480653056701       -3.17404667774134       -0.95246135300405
H           -2.55928680288756       -2.54842821678629       -0.07184695454487
H            1.34172809160136       -2.93950252658804       -0.01747688076798
25
 energy: -6.668582229584 xtb: 6.6.1 (8d0f1dd)
C            3.25312569321883        1.18509130417862        0.09240809621655
N            2.31621228775857        0.10866630063168        0.03015347923840
C            2.60942648973508       -1.24832964516884        0.02564798896995
N            1.41261799032373       -1.93593177419082       -0.00379911316719
C            0.40005899786810       -1.05081952226828       -0.01102124614137
C            0.92619243143683        0.23315342487991        0.01088283240441
C            0.11008508695300        1.38292285780003       -0.00628985977516
O            0.47765514904714        2.56578143690090       -0.00531898078587
N           -1.27397191965141        1.03778614001612       -0.03107926609866
C           -2.22011010917275        2.13943495766990       -0.05262954646186
C           -1.82551690237940       -0.20353643519818       -0.04627276455406
O           -3.02547807097843       -0.39527788982370       -0.06870308974717
N           -0.94079078593852       -1.29779613591722       -0.03591484985020
C           -1.47315478637412       -2.63868563351978       -0.05597044731019
H            3.74180723709065        1.23009563679990        1.07180937903665
H            4.02082131626473        1.06795985994167       -0.67623915692038
H            2.70235602978069        2.11031409500660       -0.07065900293530
H            3.57931275246958       -1.68291535442887        0.03820165983963
H           -1.63652319037134        3.05772339440631       -0.02683072511655
H           -2.82271267483321        2.09341498759275       -0.95956492652238
H           -2.88148940840038        2.07989164183960        0.81138612338917
H           -1.16885892732091       -3.19149621426667        0.83618129549539
H           -1.14498260045118       -3.17415161937886       -0.95031554452524
H           -2.55874288209911       -2.54655796194722       -0.06973841875652
H            1.33487546396002       -2.93770924938352       -0.01929001977478
25
 energy: -6.714849665781 xtb: 6.6.1 (8d0f1dd)
C            3.25505596395686        1.18495221561936        0.09552293161480
N            2.31870392891968        0.10752965118228        0.02505851906011
C            2.60837227236116       -1.25147151865391        0.02211066729756
N            1.41060993551649       -1.93384670495711       -0.00628276119046
C            0.40010427672771       -1.04994623331880       -0.01269535874824
C            0.92710832330409        0.23509620438084        0.00845149728254
C            0.11212928635600        1.38304685541596       -0.00725918542559
O            0.46681389625409        2.56697980377003       -0.00592949149655
N           -1.27803302406413        1.03625274118701       -0.03156101692159
C           -2.22021937633109        2.13939026067014       -0.05501331479048
C           -1.82621531839804       -0.20542227981150       -0.04579857455659
O           -3.02512693329068       -0.40152338024948       -0.06753418405742
N           -0.94042505741562       -1.29717165702155       -0.03512651614049
C           -1.47166057463124       -2.63837378844346       -0.05272251742663
H            3.74861209108252        1.22357452356385        1.07301606808745
H            4.02138469198731        1.08067386943932       -0.67677809368869
H            2.70364481777937        2.11245516240543       -0.05612465860414
H            3.57666795864436       -1.68997586029840        0.03388723263674
H           -1.63069068654340        3.05357539769130       -0.02846517707966
H           -2.82134320458149        2.09608276425842       -0.96302260055920
H           -2.88346075368131        2.08340331467696        0.80772287673228
H           -1.16759572655451       -3.18953831147071        0.84037239453089
H           -1.14479916738885       -3.17508190578060       -0.94662487384308
H           -2.55743882356665       -2.54563108412618       -0.06595723299005
H            1.33001587149356       -2.93600143795721       -0.02221273357619
25
 energy: -6.725737668182 xtb: 6.6.1 (8d0f1dd)
C            3.25600432197347        1.18410495801041        0.09980001469436
N            2.32082480389196        0.10580937695223        0.01865456661318
C            2.60693479485697       -1.25278856460265        0.01681508166918
N            1.41004409433462       -1.93222554027349       -0.00981670389369
C            0.39960831148610       -1.04897247801638       -0.01491313128821
C            0.92830995983713        0.23654038203739        0.00540863048910
C            0.11418001424442        1.38447197621545       -0.00853512965229
O            0.45942747330447        2.56897640921110       -0.00622754131639
N           -1.28042268465685        1.03542945888966       -0.03249563921858
C           -2.22027855464779        2.13978175038118       -0.05847082513351
C           -1.82730612740712       -0.20665892158419       -0.04528842108454
O           -3.02539140864760       -0.40576468338504       -0.06599023807076
N           -0.93986669811949       -1.29679539682712       -0.03407524955404
C           -1.46991820683863       -2.63873114200608       -0.04807540873589
H            3.75476434972744        1.21061818856075        1.07523602993247
H            4.01925609407942        1.09406329879410       -0.67774926334364
H            2.70288649727812        2.11342761197605       -0.03651537325799
H            3.57408558043050       -1.69456239161525        0.02720731775103
H           -1.62787583388891        3.05187606270629       -0.03089708788799
H           -2.81935585472844        2.09872126946780       -0.96796537125825
H           -2.88588506160828        2.08684240266026        0.80259928723344
H           -1.16515505774331       -3.18727149950497        0.84624767373813
H           -1.14406961523109       -3.17703573824593       -0.94119948446729
H           -2.55585183453449       -2.54627865558452       -0.06048067930101
H            1.32726531054355       -2.93454953204500       -0.02623915850956
25
 energy: -6.694099541957 xtb: 6.6.1 (8d0f1dd)
C            3.25681593868755        1.18225378112029        0.10975865533329
N            2.32387674554980        0.10325186409041        0.00489732688679
C            2.60454789439424       -1.25361479834060        0.00410882148940
N            1.40948467533567       -1.92985821884928       -0.01830521825315
C            0.39831127400099       -1.04694319724549       -0.01994348443369
C            0.93003236101035        0.23890250258699       -0.00121673043976
C            0.11771778085978        1.38733263684619       -0.01130653813850
O            0.45083219699700        2.57291635377892       -0.00623911300596
N           -1.28311327961622        1.03441217870653       -0.03500962950140
C           -2.22027233745776        2.14055535419187       -0.06655554804726
C           -1.82950130056023       -0.20774782516481       -0.04430651744612
O           -3.02652385939218       -0.41059061597242       -0.06261420420604
N           -0.93931085997014       -1.29623858223182       -0.03177524378731
C           -1.46677773153660       -2.63977495825218       -0.03724246878043
H            3.76652140304764        1.17920419728866        1.08067302518874
H            4.01217616334267        1.12104592716865       -0.67952873619663
H            2.69943125677550        2.11450533094701        0.00766780098745
H            3.57001320740745       -1.70029070557416        0.01104770636364
H           -1.62541355504742        3.05083904685155       -0.03657442744898
H           -2.81451376244537        2.10246951355210       -0.97947888862787
H           -2.89091984996447        2.09201044949824        0.79085194385140
H           -1.15912852096473       -3.18228782991336        0.85966393293886
H           -1.14238460577905       -3.18201350067791       -0.92830766645635
H           -2.55294921673292       -2.54914703795090       -0.04752508017965
H            1.32326264999463       -2.93216326428240       -0.03570582194317
25
 energy: -6.272121213274 xtb: 6.6.1 (8d0f1dd)
C            3.25794764738016        1.17709828740792        0.14011540363499
N            2.33043952617395        0.09815799735693       -0.03498498871110
C            2.59893974484879       -1.25429488717371       -0.03501876898450
N            1.40777889102487       -1.92435268996513       -0.04482614995636
C            0.39477619709585       -1.04142162366196       -0.03518490734781
C            0.93348341461606        0.24482526357626       -0.02065590342055
C            0.12610234974024        1.39442825634392       -0.01927747787217
O            0.43431252213767        2.58268010324774       -0.00496735633939
N           -1.28850592740215        1.03251498262342       -0.04315596436173
C           -2.22020427455489        2.14253117001588       -0.09109027919416
C           -1.83507079511810       -0.20898671130226       -0.04165062706691
O           -3.02984903005381       -0.41963415738406       -0.05274209681026
N           -0.93869811772213       -1.29477295702494       -0.02510317548954
C           -1.45879221573677       -2.64250665581291       -0.00430340762995
H            3.79943146069746        1.08564578753224        1.09649289130395
H            3.98920732518572        1.19829812991981       -0.68229503311122
H            2.68879910891707        2.11633352395786        0.13871401333635
H            3.56050972286196       -1.71214569551096       -0.03887087398834
H           -1.62148246732749        3.04995514439839       -0.05362078976388
H           -2.79959185501939        2.11021895605263       -1.01430566763290
H           -2.90549440600781        2.10336174214238        0.75537737036891
H           -1.14108890851306       -3.16704518053445        0.90002583242676
H           -1.13832952149680       -3.19729662432468       -0.88883925874849
H           -2.54555647478485       -2.55827592229281       -0.00766501406982
H            1.31315075099354       -2.92628763741543       -0.06513387442461
25
 energy: -5.631959696409 xtb: 6.6.1 (8d0f1dd)
C            3.25764111780544        1.17170149374575        0.16896496025178
N            2.33407000881492        0.09614275618514       -0.06966705239057
C            2.59496322306543       -1.25259848335603       -0.07186826020134
N            1.40660127588574       -1.92043788974571       -0.07106278098810
C            0.39187361834387       -1.03674654048078       -0.04997299827588
C            0.93531829859180        0.24928794264857       -0.03840226961708
C            0.13141192125450        1.40017878901120       -0.02621015720179
O            0.42691745212645        2.58974168234229       -0.00130174021961
N           -1.29111816296992        1.03215594628586       -0.05120745488711
C           -2.22038393873450        2.14414575722125       -0.11361747137615
C           -1.83922981109192       -0.20846830111449       -0.03947554569574
O           -3.03269237054016       -0.42334619851111       -0.04357840862020
N           -0.93871544211222       -1.29350047636788       -0.01938795964842
C           -1.45249188171440       -2.64440486641687        0.02660138789278
H            3.82402586484567        1.00488514130424        1.10859090373051
H            3.96787470088658        1.26272998103554       -0.67538881785146
H            2.68136573490585        2.11159556780125        0.25212954985702
H            3.55409248720713       -1.71733676162105       -0.08720105481350
H           -1.62170089724563        3.05137179545690       -0.06841193824704
H           -2.78551847585679        2.11454282459758       -1.04633119748731
H           -2.91883677442384        2.10966141417033        0.72248325888062
H           -1.12410282878030       -3.15223171958645        0.93728886509329
H           -1.13583401457587       -3.21149524779396       -0.85159490827295
H           -2.53966912894671       -2.56674298031836        0.03064222309384
H            1.30635269119489       -2.92180302432107       -0.09498723685832
25
 energy: -5.031781812442 xtb: 6.6.1 (8d0f1dd)
C            3.25395376162609        1.16275725378136        0.20963488056507
N            2.33391509702738        0.09863057178911       -0.11321402650311
C            2.59174016168771       -1.24439142772691       -0.12277573570555
N            1.40660569602650       -1.91775475649348       -0.10973636765161
C            0.38830535756828       -1.03113734468737       -0.07151978655632
C            0.93516265303195        0.25306735828656       -0.06225957185245
C            0.13374458299340        1.40699282629890       -0.03492988690501
O            0.43498159805113        2.59592185833046        0.00913157401936
N           -1.28878062321960        1.03470054873741       -0.06328768034546
C           -2.22097194760930        2.14603400046189       -0.14385844014055
C           -1.84313138646381       -0.20397744630631       -0.03695035041700
O           -3.03643639972742       -0.41771036741522       -0.03091106238115
N           -0.93982700544202       -1.29214885848606       -0.01250861382464
C           -1.44596962201773       -2.64609213163639        0.06945107033212
H            3.84403216979899        0.90522298778278        1.12050142324832
H            3.93812867746088        1.33449645510284       -0.64709794923717
H            2.67457745633934        2.09123128889678        0.38978040406540
H            3.55013355430668       -1.71125984082702       -0.15737483414037
H           -1.63139630419747        3.05917520109886       -0.08618314727657
H           -2.76555778085444        2.11479902271430       -1.08954732714691
H           -2.93662384669488        2.10932932416145        0.67758453141431
H           -1.09992488660470       -3.13091561337230        0.98767446545922
H           -1.13441412319299       -3.23109438832349       -0.79948004622486
H           -2.53337606398685       -2.57912258885944        0.08547450390364
H            1.30334389202885       -2.91772533113654       -0.14056413055148
25
 energy: -4.859378816956 xtb: 6.6.1 (8d0f1dd)
C            3.24050813105661        1.15031851960261        0.25184658343890
N            2.31817301091589        0.11805109682638       -0.14838318050984
C            2.59578238465203       -1.21821314995494       -0.17315255485979
N            1.41102190161471       -1.92389450419409       -0.15224913950617
C            0.38602243704755       -1.02778413787872       -0.09500888472730
C            0.92646516561527        0.24967026850020       -0.08441318658742
C            0.11927448103667        1.40945415949294       -0.04240337812130
O            0.49920638596763        2.59145075015000        0.03307932558585
N           -1.26810874123293        1.04539207869294       -0.07877224244124
C           -2.22180785422809        2.14682404804672       -0.17249712348493
C           -1.84192383693665       -0.18834117084531       -0.03525741684564
O           -3.04027575496861       -0.37967240134452       -0.01851498946945
N           -0.94456836504934       -1.29265433640000       -0.00767174803845
C           -1.44598693180685       -2.64538659282688        0.11230916104190
H            3.83169661586712        0.82733206212603        1.11373217901758
H            3.89983724662849        1.36747078510199       -0.57476081053270
H            2.67420949450765        2.03245702564481        0.48924548816459
H            3.56075805489114       -1.66605075919810       -0.23474574797159
H           -1.66681722257325        3.08381063965403       -0.09792219114779
H           -2.74351533425248        2.09829461740082       -1.13055838761726
H           -2.95145406193716        2.08356011589992        0.63371080164753
H           -1.07465544919122       -3.10822186163180        1.03424966626235
H           -1.13750563674384       -3.25053701744130       -0.74572687389734
H           -2.53240063476395       -2.59400542863537        0.14383739329939
H            1.31827918181952       -2.92029620461616       -0.19293884655261
25
 energy: -3.955551592208 xtb: 6.6.1 (8d0f1dd)
C            3.23952319091834        1.13733356092239        0.29465870211723
N            2.32027537580291        0.12558025496902       -0.20481529329436
C            2.59396903359017       -1.21637596383167       -0.23134925552196
N            1.40560459360765       -1.91822125650839       -0.19232218897655
C            0.38535998161784       -1.02182020662624       -0.11997468095070
C            0.92529546914157        0.25590675051410       -0.11104279610604
C            0.11929830230140        1.41137526511719       -0.04984703684120
O            0.49213497521779        2.59355830787665        0.04462893030191
N           -1.27144796923397        1.04639046170965       -0.09375135643521
C           -2.22212495322508        2.14779791214364       -0.20843864206071
C           -1.84247420157193       -0.18567779547500       -0.03274314822308
O           -3.03980991488217       -0.38048229253185       -0.00748036920576
N           -0.94483323115823       -1.28892382620138       -0.00025408481306
C           -1.43711538583324       -2.64179292196700        0.16267708474551
H            3.86193162827896        0.71035312325539        1.11339049719201
H            3.87210715776881        1.47373976163773       -0.54631368702883
H            2.66068995104240        2.00275411632192        0.66726592891133
H            3.55582733908602       -1.66810834926299       -0.31699496059195
H           -1.66634027763262        3.08288670956905       -0.11244126652701
H           -2.71613558406693        2.10431859527071       -1.18319445093024
H           -2.97614989275457        2.07874489626799        0.57644187224179
H           -1.05046274623363       -3.07780945492173        1.09311849628499
H           -1.13636884726338       -3.26995279674522       -0.68280984402846
H           -2.52353185454704       -2.59834462956262        0.20700170004454
H            1.30699252796474       -2.91420161976914       -0.23837625415695
25
 energy: -3.481275337470 xtb: 6.6.1 (8d0f1dd)
C            3.23981881326410        1.12510771658514        0.32119837651118
N            2.32331543250287        0.13597366873137       -0.23429695691339
C            2.59493761439724       -1.22202162366221       -0.26692993817936
N            1.39900138351547       -1.91077605465551       -0.21989029784296
C            0.39004816905060       -1.02012195931897       -0.13413755025806
C            0.92414460655657        0.26065528285258       -0.12152541694652
C            0.11349162912877        1.40581347627392       -0.04727378142186
O            0.46625486477353        2.58657252594631        0.04454079699391
N           -1.27998307293456        1.04609041002887       -0.10091466472070
C           -2.22221968744012        2.14745918989933       -0.23165227087056
C           -1.83638133513374       -0.18841697819072       -0.02837819954203
O           -3.03208840696745       -0.39028344550028       -0.00159732842674
N           -0.94165494001798       -1.28377058577358        0.00281455993033
C           -1.42984080054207       -2.63154439207695        0.19543987574198
H            3.87773099834729        0.65345534103710        1.10210114401253
H            3.86546889704764        1.54615231457635       -0.51223061659147
H            2.65031605492810        1.96751280810378        0.77486024164568
H            3.55294942101324       -1.67524066099038       -0.37878149922950
H           -1.65511382918055        3.07091612749324       -0.11733313232546
H           -2.69359294002975        2.11378520622622       -1.21787545513690
H           -2.99640385900366        2.07217570320284        0.53386648787808
H           -1.03921441102308       -3.05073206419074        1.12983076741872
H           -1.14027631945235       -3.27645062244525       -0.64056528166293
H           -2.51585903042051       -2.58471798871787        0.25060004975437
H            1.29736541555621       -2.90856479326239       -0.27483601367111
25
 energy: -3.504305548997 xtb: 6.6.1 (8d0f1dd)
C            3.23553479448739        1.11251106240361        0.35989016676186
N            2.32224219724274        0.15080388776090       -0.24992962287251
C            2.59611454820464       -1.22054391464984       -0.30943170152362
N            1.39706310697237       -1.90227776127883       -0.26671805408670
C            0.39584554317402       -1.01959879948078       -0.15230013156183
C            0.92221443300302        0.26391178223411       -0.13015031203858
C            0.10160206925126        1.40166244294252       -0.04423619712846
O            0.44232562476698        2.57923046189214        0.04884657105055
N           -1.28632715131399        1.04833063009760       -0.10910600377372
C           -2.22382199916640        2.14679641852025       -0.25848337242428
C           -1.82848113661140       -0.19240841457739       -0.02416424301088
O           -3.02367973113283       -0.39848374112187        0.01151512297585
N           -0.93667927089420       -1.27821687648466        0.00300304113108
C           -1.42317821108345       -2.61939574424276        0.23644635493014
H            3.87889153116573        0.60634410410414        1.10378979517975
H            3.86194441121130        1.58108267452927       -0.43816599581700
H            2.65168258723845        1.92359336954308        0.85519420852864
H            3.55242297887454       -1.66802349257074       -0.46528906953869
H           -1.65204293692025        3.06213733166002       -0.12409332593865
H           -2.66747654219424        2.11924910283625       -1.25778269741348
H           -3.02057724717555        2.06260939577717        0.48349076033352
H           -1.02135293555272       -3.01646688036221        1.17534556019080
H           -1.15286146600454       -3.28550991966470       -0.58900386969336
H           -2.50891126670752       -2.56639425071342        0.31057310078581
H            1.29972073710042       -2.90191426698163       -0.34220618889907
25
 energy: -3.311580395517 xtb: 6.6.1 (8d0f1dd)
C            3.22646882428470        1.08940204079882        0.40948046300778
N            2.31935392353678        0.17024469637697       -0.26114651213798
C            2.59648073085203       -1.20671533153737       -0.35827385226963
N            1.40090309571604       -1.89221629710166       -0.33144724007504
C            0.40035984721060       -1.01810608378636       -0.17560278655188
C            0.92130004457502        0.26649170343004       -0.13791201418181
C            0.08723846907878        1.40201358848218       -0.04469653956158
O            0.42748631250982        2.57589410334145        0.06857396385171
N           -1.28808519140778        1.05261649025513       -0.12424462043872
C           -2.22676066648292        2.14504480146119       -0.29379269652059
C           -1.82163302121366       -0.19679014350979       -0.02409895625342
O           -3.01754604826236       -0.40173767086867        0.02988019490984
N           -0.93049209233670       -1.27251598539343       -0.00016410789186
C           -1.41433987777877       -2.60452133990381        0.29096278545214
H            3.87313333487668        0.54540004049917        1.09893525953575
H            3.84714272328163        1.60176420395531       -0.33076410013612
H            2.65184055921948        1.84394382395899        0.94444195703884
H            3.55005906809860       -1.63866443242042       -0.58424738279069
H           -1.66550910416669        3.06127363372187       -0.12417968190323
H           -2.62967593853736        2.12654753002216       -1.31105334520479
H           -3.05239681048714        2.04301494037574        0.41349968899554
H           -0.99215762801273       -2.96901461470852        1.23422194685672
H           -1.16776511312374       -3.29870835483439       -0.51740881361177
H           -2.49859042456914       -2.54382363905269        0.38916308984550
H            1.31539965107455       -2.89180910138962       -0.43309280381756
25