25
 energy: -42.136368477327 gnorm: 0.001584819282 xtb: 6.6.1 (8d0f1dd)
C            3.96836953476713        3.34469172572366        0.19006412769511
N            2.17259806080701       -1.10901458067389       -0.06097499931853
C            2.05889502915507       -2.40128132975665       -0.12080165656616
N            0.74887734045502       -2.80424078264172       -0.13228708903143
C            0.00310409094198       -1.67286990105123       -0.07502578080972
C            0.91495013532550       -0.60861270470183       -0.03056036769940
C            0.45255642315034        0.75883924698717        0.02978098435258
O            1.14642788071688        1.75049036435220        0.06734921756968
N           -0.94162303327335        0.83584222789197        0.03880856591555
C           -1.54636971812045        2.15750842086198        0.08862042894361
C           -1.84945134094006       -0.20877304851956        0.00267351594992
O           -3.03677006332014       -0.01922042918881        0.02227968925001
N           -1.33094830306009       -1.51289207555880       -0.05894997220595
C           -2.24828507389123       -2.63130760407277       -0.10814315321634
H            4.30011304880423        3.78621862623193        1.11186012968729
H            4.56659115096620        3.45991693223364       -0.69386524249604
H            3.04526462375478        2.79375070294881        0.15244015645362
H            2.88543465093833       -3.08237209877462       -0.15838189912000
H           -0.74988110805059        2.89785440489508        0.07639108674196
H           -2.20632804098515        2.29394775802793       -0.76896894764666
H           -2.14421212192394        2.26014489980689        0.99505917191218
H           -2.10210941203825       -3.28255046288618        0.75464636733110
H           -2.10564423450128       -3.19908559533145       -1.02867286569869
H           -3.26144458349534       -2.23107955078812       -0.08679220847938
H            0.42031657799344       -3.75766660430969       -0.17537764168848
