25
 energy: -47.443475113207 gnorm: 9.114670628211 xtb: 6.6.1 (8d0f1dd)
C            3.21786164340000        1.13591514650000        0.01837059260000
N            2.27034809790000        0.05199982890000        0.00038279530000
C            2.54167221030000       -1.23971668410000       -0.00834188300000
N            1.39367826450000       -1.95088267900000       -0.00850347120000
C            0.35269634020000       -1.06748964300000        0.00059917290000
C            0.90759959010000        0.20069750900000        0.00663590170000
C            0.07590235260000        1.39864294500000       -0.00284827040000
O            0.48715076820000        2.53168346660000       -0.01725767220000
N           -1.27221500230000        1.06666939660000        0.00165480230000
C           -2.23229981500000        2.16656245330000       -0.00245172030000
C           -1.84872931540000       -0.19179276200000        0.00496135950000
O           -3.03273030250000       -0.36103538130000        0.00858583760000
N           -0.96599111670000       -1.30060631840000        0.00174701630000
C           -1.52030655580000       -2.64076660390000       -0.00239033190000
H            3.71480285180000        1.18589984860000        0.98803183970000
H            3.97079415090000        0.99383197990000       -0.75543416370000
H            2.68321036910000        2.07051068580000       -0.15067179540000
H            3.52469367910000       -1.66989040330000       -0.01523639120000
H           -1.67672429040000        3.10039111610000        0.00486339690000
H           -2.85755792270000        2.10547813320000       -0.89185337000000
H           -2.87119733260000        2.09858159720000        0.87661144540000
H           -1.20589108080000       -3.18768007210000        0.88663215920000
H           -1.21982032550000       -3.17678505510000       -0.90288069810000
H           -2.60531402170000       -2.54255916880000        0.00649952960000
H            1.32879827740000       -2.95942079410000       -0.01653446370000
25
 energy: -60.345403719403 gnorm: 16.753969239459 xtb: 6.6.1 (8d0f1dd)
C            3.21280764050711        1.13066184918074        0.01865493241343
N            2.00872324089472       -0.19108213070672        0.07004627860481
C            2.53904264593406       -1.24534252830990       -0.00807962191724
N            1.39340742689607       -1.95220490002585       -0.00851383414496
C            0.35179893772517       -1.06783401520803        0.00055712030390
C            0.90175061953019        0.19840441392552        0.00698075907900
C            0.07607723796319        1.39865628603208       -0.00291278449568
O            0.48721765575819        2.53177805975271       -0.01721593919635
N           -1.27231412340681        1.06672244844053        0.00164337049445
C           -2.23227943843532        2.16653874190788       -0.00244595111067
C           -1.84864599464614       -0.19181101830852        0.00497182386043
O           -3.03279672829193       -0.36104076053269        0.00857708089499
N           -0.96632494440445       -1.30041460412971        0.00128079338603
C           -1.51985041099494       -2.63905769214931       -0.00402487408131
H            3.71471790803269        1.18587825508398        0.98791278976939
H            3.97053664879264        0.99367650654579       -0.75533779156914
H            2.68320703473950        2.07032953893613       -0.15062986971097
H            3.52488485570185       -1.66937310611737       -0.01526219762477
H           -1.67672821025273        3.10039293851784        0.00487504065008
H           -2.85757038750666        2.10547437055215       -0.89185405242150
H           -2.87121529812860        2.09856823739909        0.87661761784004
H           -0.92972867614031       -2.93155718528310        0.81789989415146
H           -1.21976897522075       -3.17681696939529       -0.90289776289762
H           -2.60531659958075       -2.54280792219919        0.00690621154228
H            1.32879944863399       -2.95950027230877       -0.01657741592008
25
 energy: -80.979308096374 gnorm: 24.637113443235 xtb: 6.6.1 (8d0f1dd)
C            3.20882313941381        1.12655253700062        0.01905037472564
N            1.74878727970430       -0.43351333327640        0.14053472063976
C            2.53819897564385       -1.25290744478290       -0.00799506180869
N            1.39216715075023       -1.95492028162356       -0.00862927754939
C            0.34989559478013       -1.06907299976548        0.00040557231650
C            0.89255811145371        0.19753990770415        0.00709612814717
C            0.07606462951528        1.39891184000357       -0.00292657344272
O            0.48726206668860        2.53177126165971       -0.01719394662453
N           -1.27228604379846        1.06679712472672        0.00164474699710
C           -2.23227409420859        2.16653556164677       -0.00244010860794
C           -1.84858053704162       -0.19182189669764        0.00492256125127
O           -3.03280573064039       -0.36106943612759        0.00857543457496
N           -0.96676780829110       -1.29980637285223        0.00054318359955
C           -1.51932515076975       -2.63758604327849       -0.00545366117319
H            3.71448940105080        1.18571892531801        0.98776124067135
H            3.97010696469571        0.99336413028798       -0.75525073927097
H            2.68310303462180        2.07002514079075       -0.15060553904708
H            3.52498574688230       -1.66885726298014       -0.01525239510589
H           -1.67674167745817        3.10039050600123        0.00488320629959
H           -2.85757981169918        2.10546434558062       -0.89184988551028
H           -2.87122596456626        2.09855244931582        0.87662251254927
H           -0.65209434663376       -2.67421396798814        0.74888135431078
H           -1.21975931903273       -3.17684623984973       -0.90296629317270
H           -2.60521470311097       -2.54311981209778        0.00745032946961
H            1.32864460615046       -2.95965009711588       -0.01663626633917
25
 energy: -109.688853459991 gnorm: 32.699182451771 xtb: 6.6.1 (8d0f1dd)
C            3.20645955273011        1.12414452130363        0.01933910401771
N            1.48956370119355       -0.68027982373095        0.21205986125211
C            2.53949857253975       -1.25870943037936       -0.00820624646123
N            1.39066241645706       -1.95923242183656       -0.00900421380100
C            0.34704738088759       -1.07064721613136       -0.00002644110014
C            0.88200426730360        0.20126832860927        0.00630753166360
C            0.07594518831530        1.39932586746710       -0.00294105884821
O            0.48726470719958        2.53175986011242       -0.01717461884855
N           -1.27233648661678        1.06682101261620        0.00166371719121
C           -2.23230487681936        2.16651209480657       -0.00241809926350
C           -1.84859217131687       -0.19171373773972        0.00483990769381
O           -3.03278839335482       -0.36118167034436        0.00860096019907
N           -0.96751105426109       -1.29892452273642       -0.00027922609183
C           -1.51813755618116       -2.63667166091474       -0.00593459457674
H            3.71430128697750        1.18564305652881        0.98760433503543
H            3.96975508073053        0.99319517975234       -0.75519600487484
H            2.68301756521267        2.06977157056209       -0.15060830892971
H            3.52513189716529       -1.66837962864551       -0.01523080790138
H           -1.67679919019777        3.10036225906535        0.00489980751224
H           -2.85762227813441        2.10541357994274       -0.89182524175392
H           -2.87125695024265        2.09849860292771        0.87664633225316
H           -0.37652189803737       -2.41826473471987        0.67980515471456
H           -1.21973616227637       -3.17688375723602       -0.90303074196313
H           -2.60506472885127       -2.54343717323839        0.00802440572037
H            1.32845164367738       -2.96015161444096       -0.01674389493908
25
 energy: -146.100249323477 gnorm: 40.106598415145 xtb: 6.6.1 (8d0f1dd)
C            3.20505491377626        1.12274565989487        0.01943070912437
N            1.22811551631411       -0.92957272371607        0.28391219101237
C            2.54058669217727       -1.26129890235331       -0.00829002885121
N            1.38985071656998       -1.96445384631309       -0.01007659248924
C            0.34213974447120       -1.07283795130517       -0.00104040852190
C            0.87621058377704        0.20720069558539        0.00509112678364
C            0.07605364394909        1.39927058721426       -0.00292526829559
O            0.48731031413108        2.53187944825964       -0.01713249210501
N           -1.27260974667588        1.06677924725555        0.00168024494138
C           -2.23234620382813        2.16648538795994       -0.00239421565954
C           -1.84860595733331       -0.19143326956560        0.00470188466647
O           -3.03280940310341       -0.36134342580455        0.00861638808303
N           -0.96838319827607       -1.29783309211261       -0.00097601555983
C           -1.51688574787369       -2.63602520372152       -0.00621747595331
H            3.71411510802015        1.18554836144100        0.98750889143011
H            3.96948961238775        0.99310108428617       -0.75513293592807
H            2.68291669648302        2.06956990778047       -0.15059023983672
H            3.52520188142003       -1.66797619196335       -0.01514581177729
H           -1.67685007686038        3.10032768090010        0.00492706956440
H           -2.85766145263573        2.10537097546208       -0.89180289059799
H           -2.87129284514390        2.09844088278577        0.87667050754337
H           -0.10284881138511       -2.16465155980062        0.61177742912871
H           -1.21970900506328       -3.17690659746568       -0.90311535465524
H           -2.60491428053641       -2.54368666315179        0.00847752753698
H            1.32830281933833       -2.96046194995190       -0.01678262168388
25
 energy: -189.837053579446 gnorm: 47.735182720260 xtb: 6.6.1 (8d0f1dd)
C            3.20376282324529        1.12143585568812        0.01931671034376
N            0.97128576199256       -1.17498604581855        0.36080122601658
C            2.54101227846343       -1.26272425090017       -0.00842570125029
N            1.39168306528060       -1.97359539008576       -0.01296780968118
C            0.32388432023775       -1.07549111525550       -0.00615507072823
C            0.87403208728467        0.21053428334312        0.00424504286896
C            0.07623789949249        1.39913848394750       -0.00293004790611
O            0.48730078880965        2.53191316680668       -0.01724687995917
N           -1.27291755583470        1.06673782029819        0.00170620670314
C           -2.23240201839380        2.16645901246314       -0.00239553242776
C           -1.84872695164780       -0.19102877105040        0.00458999889058
O           -3.03283125652103       -0.36149229858204        0.00879294755369
N           -0.96908502224277       -1.29711796503612       -0.00144768261191
C           -1.51635701799587       -2.63567256940207       -0.00645552988891
H            3.71397574694943        1.18549618417975        0.98722858344396
H            3.96921927408964        0.99297807936696       -0.75527870343978
H            2.68280051225113        2.06938633105331       -0.15078051554711
H            3.52526518598883       -1.66772800180534       -0.01497110639138
H           -1.67689251468168        3.10029435556512        0.00486633202974
H           -2.85773535589745        2.10529168312725       -0.89177442144585
H           -2.87129431498225        2.09843128136771        0.87670436128944
H            0.17455249092318       -1.90843570229127        0.54440089291961
H           -1.21969345521943       -3.17697619765024       -0.90296067766638
H           -2.60480184576053       -2.54388258218974        0.00899105801601
H            1.32815658826865       -2.96072710553966       -0.01668206323141
25
 energy: -239.343928241788 gnorm: 41.417981255925 xtb: 6.6.1 (8d0f1dd)
C            3.20255895904095        1.12062781778034        0.01864899151735
N            0.72984206568216       -1.42625936924340        0.45186062698436
C            2.54194400764406       -1.26404513549420       -0.00901703773344
N            1.40084594230132       -1.98470364536824       -0.01691972169647
C            0.28132770194154       -1.06626062341264       -0.02834830477700
C            0.87277179679552        0.21151512831808        0.00377271389664
C            0.07615428521892        1.39913102447001       -0.00302865002144
O            0.48697871616871        2.53189747537922       -0.01771523144755
N           -1.27329156367808        1.06651399743475        0.00179122647652
C           -2.23271675692693        2.16617364565475       -0.00230636636167
C           -1.84898624431512       -0.19088889071592        0.00482449160862
O           -3.03282217647495       -0.36190881031246        0.00944176219318
N           -0.97015207636027       -1.29708913878373       -0.00161609293620
C           -1.51585682739171       -2.63551702915854       -0.00621575384791
H            3.71385003810532        1.18596154827913        0.98632294233037
H            3.96874525533102        0.99320513497670       -0.75608635082805
H            2.68241345288011        2.06948868348656       -0.15155858846465
H            3.52567659604693       -1.66722393635042       -0.01540034391998
H           -1.67728842255863        3.10006296196694        0.00471642253390
H           -2.85817578001196        2.10478660470123       -0.89156332599631
H           -2.87141528134955        2.09818575739939        0.87692239376306
H            0.45355103794014       -1.65281318433259        0.48142582117877
H           -1.21942931486302       -3.17730222864006       -0.90224911249933
H           -2.60443551897176       -2.54434011310798        0.01005145950123
H            1.32834162190527       -2.96095913332690       -0.01658235355400
25
 energy: -241.917861538114 gnorm: 37.525244260500 xtb: 6.6.1 (8d0f1dd)
C            3.20372049020005        1.11990697683363        0.02362101162873
N            0.47414380152376       -1.67418090718365        0.51140748613912
C            2.54143875218429       -1.26512096182252       -0.00762630016276
N            1.41712377867399       -1.99119115863362       -0.02446107568527
C            0.24859502565816       -1.00911263865134       -0.08317970629769
C            0.87326719274783        0.21253379409694        0.00363968116428
C            0.07682739578184        1.39920548090950       -0.00132956182896
O            0.48819144300057        2.53184134733882       -0.01418622804524
N           -1.27300876511748        1.06712265265823        0.00156150004760
C           -2.23169517649105        2.16723745363437       -0.00236960045797
C           -1.84945149917810       -0.18992366412040        0.00232291895421
O           -3.03316860428833       -0.36034152259852        0.00553535545456
N           -0.97489316733075       -1.29610254185530       -0.00504279396461
C           -1.51714262674151       -2.63443473182774       -0.01126539867325
H            3.71311359802007        1.18298911967491        0.99190288342993
H            3.96991165220885        0.99219317863037       -0.75039372975121
H            2.68344087311726        2.06833449537884       -0.14609835518968
H            3.52514919581837       -1.66887001312957       -0.01365990718634
H           -1.67584105989277        3.10087927128704        0.00638815899495
H           -2.85616310975137        2.10719181010510       -0.89241594454197
H           -2.87143645208797        2.09851786254937        0.87605454385023
H            0.72600403907622       -1.45902494165198        0.48268223591292
H           -1.21968693683557       -3.17568772035475       -0.90730701250350
H           -2.60548805075068       -2.54315304423708        0.00412383426284
H            1.32747972455432       -2.96257105543065       -0.01873237765094
25
 energy: -228.932547339974 gnorm: 370.229973649716 xtb: 6.6.1 (8d0f1dd)
C            3.21000234609654        1.12852689944560        0.01847098333389
N            0.61247603006997       -1.62128059464691        0.56028467047511
C            2.54664976124737       -1.25731682109218       -0.00973656176691
N            1.44228835431838       -2.00565238126405       -0.03347127923806
C            0.18887886709275       -0.95449262823764       -0.14247000630158
C            0.88072804029911        0.21861739419901        0.00039856547881
C            0.07634750804119        1.39896726439666       -0.00287772410062
O            0.48673246291169        2.53207999321299       -0.01742163023145
N           -1.27413160753102        1.06616746668438        0.00192891241599
C           -2.23286034113156        2.16608113588075       -0.00221070846440
C           -1.85023163740035       -0.19020690679780        0.00432992532641
O           -3.03342252527626       -0.36179373294940        0.00946106238255
N           -0.98154107826770       -1.29552978181759       -0.00415595366020
C           -1.51662674073244       -2.63682359975647       -0.00508789323801
H            3.71329534946009        1.18548267728286        0.98658933116480
H            3.96842540588773        0.99315716872729       -0.75592332795805
H            2.68192328312860        2.06925555369303       -0.15135843089938
H            3.52595926052162       -1.66794555753837       -0.01603121468431
H           -1.67740055413853        3.09998867757706        0.00490609489612
H           -2.85825827131480        2.10474055067456       -0.89149182116611
H           -2.87155256881926        2.09799138079262        0.87701737685017
H            0.61632447335574       -1.56630318154841        0.51008212077327
H           -1.21902848457121       -3.17740494692785       -0.90224970084638
H           -2.60409587093377       -2.54434552920750        0.00962191428598
H            1.32955005178612       -2.96372195918264       -0.01743308692764
25
 energy: -241.886552419192 gnorm: 39.288708873548 xtb: 6.6.1 (8d0f1dd)
C            3.20796128184886        1.13563391984266        0.00347523360565
N            0.73350095793689       -1.64624743521073        0.66539257524711
C            2.54920419943143       -1.25183128760698       -0.01467303730386
N            1.45149761387972       -2.00525488331264       -0.03398744831258
C            0.18464614525530       -0.94046136274207       -0.15149866007917
C            0.88062838504347        0.22094871133881       -0.00376993747171
C            0.07331920175268        1.39885109244459       -0.00755604056634
O            0.48109018366619        2.53283651988387       -0.02709290039196
N           -1.27671439351603        1.06314085956788        0.00323175450819
C           -2.23765010528640        2.16107562165805       -0.00103858360300
C           -1.85023481271779       -0.19421594605666        0.01165423226762
O           -3.03296031968459       -0.36841876022414        0.02164209405979
N           -0.98143286034382       -1.29738622675657        0.00293959794072
C           -1.51135890882644       -2.64020380494420        0.00892682236171
H            3.71402007749660        1.19614671819644        0.96967772542791
H            3.96333854818683        0.99878953600050       -0.77311593578362
H            2.67673342183472        2.07408948918676       -0.16742587310821
H            3.52928469955982       -1.66085621983592       -0.02317720905236
H           -1.68413347060820        3.09618363749528        0.00109473538872
H           -2.86609341522749        2.09555213610351       -0.88789235989066
H           -2.87305949361310        2.09445657154579        0.88069347272373
H            0.50744730175314       -1.54946030869806        0.42648440285840
H           -1.21565646393582       -3.18319173047259       -0.88744832520990
H           -2.59883433557142       -2.55013205833982        0.02731680018984
H            1.33588807578546       -2.96180624746376       -0.01268151790602
25
 energy: -232.889762093973 gnorm: 49.371475916115 xtb: 6.6.1 (8d0f1dd)
C            3.21392781719509        1.12756190018164        0.02484565172506
N            0.40923764874223       -1.73654816422415        0.55818428781376
C            2.54737421655642       -1.25777100537675       -0.00800635165430
N            1.44907293648860       -2.01173469527040       -0.03927802238773
C            0.18495343351957       -0.95690461073417       -0.14165979621223
C            0.88356930948243        0.21971068459704        0.00133885703835
C            0.07830613099856        1.39915331318312       -0.00115371743689
O            0.48964583849795        2.53179403357398       -0.01342187557248
N           -1.27309758805525        1.06764374590069        0.00121235117169
C           -2.23029276405648        2.16877331926857       -0.00305207405395
C           -1.85090740098436       -0.18753250333700        0.00096101892930
O           -3.03400062017071       -0.35813666907796        0.00412678073845
N           -0.98653536052683       -1.29469016163213       -0.00819520564631
C           -1.51979833772846       -2.63506454311350       -0.01068900319394
H            3.71300012861217        1.17990433896904        0.99398158109371
H            3.97075975690370        0.98963260078998       -0.74844959165207
H            2.68443737348883        2.06640343732797       -0.14452714532825
H            3.52431322850723       -1.67196761633599       -0.01282670287637
H           -1.67376457512652        3.10204328796305        0.00614442596320
H           -2.85434595493973        2.10929120485428       -0.89341719852274
H           -2.87045980849947        2.10028070569383        0.87506906915595
H            0.80596263770846       -1.45116748216058        0.51602965939564
H           -1.22098778387813       -3.17476612503031       -0.90820370410374
H           -2.60680971237872       -2.54122143546516        0.00213216429274
H            1.32687096374343       -2.96644901894507       -0.01997384077684
25
 energy: -245.914989065924 gnorm: 18.671149358521 xtb: 6.6.1 (8d0f1dd)
C            3.21263816628287        1.13340451978051        0.01597095352347
N            0.56785161160589       -1.69887771720805        0.60887964200240
C            2.54952199001472       -1.25352853639764       -0.01144525033250
N            1.46416506508962       -2.01497335220662       -0.04437351179978
C            0.17869755358739       -0.93801268631184       -0.15535973389749
C            0.88341704587657        0.22217011397111       -0.00191814933269
C            0.07621170959380        1.39924879442927       -0.00386301340196
O            0.48517529812129        2.53252458417839       -0.01869609723660
N           -1.27536673453795        1.06517497166056        0.00226335077516
C           -2.23403613928355        2.16485727761755       -0.00188999671025
C           -1.85147819311685       -0.19030496971935        0.00530384177269
O           -3.03396977787678       -0.36323513079838        0.01152382355113
N           -0.99109701692606       -1.29615789063696       -0.00533241701725
C           -1.51591398594598       -2.63709142967389       -0.00314195835336
H            3.71275492224566        1.18727721209355        0.98395521756076
H            3.96705973978973        0.99443090626009       -0.75869159279424
H            2.68029298936967        2.07011851630357       -0.15386862964207
H            3.52711192255795       -1.66639253348260       -0.01769193532988
H           -1.67902407321360        3.09907198254008        0.00446620195852
H           -2.85992918092891        2.10278538919723       -0.89079988726921
H           -2.87219573161656        2.09684704314282        0.87775061001849
H            0.65637267274996       -1.50025341347696        0.49346805381877
H           -1.21764649818644       -3.17868055760847       -0.89964796568755
H           -2.60263412290327       -2.54584218636485        0.01258371442363
H            1.33245228175083       -2.96632236568913       -0.01827365270018
25
 energy: -246.061797016569 gnorm: 19.468481129770 xtb: 6.6.1 (8d0f1dd)
C            3.23618677692775        1.15282340342681        0.00736430945676
N            0.57562730949479       -1.68402657629209        0.72931401824784
C            2.56196016941333       -1.23508389103936       -0.01466319281318
N            1.52505959971209       -2.04733488849629       -0.06727138147489
C            0.08444043195488       -0.86206003794237       -0.23828348981760
C            0.90719828025357        0.23798078983246       -0.01014311992664
C            0.07905557899287        1.39950855700543       -0.00787955469584
O            0.48743683468980        2.53276340315079       -0.02539368497137
N           -1.27582197905939        1.06594819285120        0.00161870875332
C           -2.23158413027067        2.16746278680524       -0.00401584649635
C           -1.85521588085009       -0.18575659114669        0.00767110191657
O           -3.03629878455075       -0.35907886457454        0.01709127299020
N           -1.01725808096380       -1.29441056670166       -0.00568984528030
C           -1.52131292582297       -2.63856067806781        0.00953402765705
H            3.71456880916614        1.18437912079355        0.97607219288316
H            3.96682392602315        0.98776831344907       -0.76725410596081
H            2.68133488121306        2.06632148329816       -0.16303391350707
H            3.52586707538373       -1.67212644639223       -0.02004255999776
H           -1.67543589550978        3.10109767926843       -0.00079061999179
H           -2.85883812290175        2.10389813895281       -0.89191405108522
H           -2.86856211476595        2.10232982364895        0.87674036072561
H            0.64872966162316       -1.60753115306805        0.50513350415196
H           -1.22167244387179       -3.17974479395838       -0.88909372167416
H           -2.60481618752418       -2.54242999331277        0.02211994022525
H            1.33295872534281       -2.97589866989065       -0.01601873141475
25
 energy: -246.550614227700 gnorm: 12.643195822122 xtb: 6.6.1 (8d0f1dd)
C            3.23836701890283        1.16410990363620        0.01284424092711
N            0.68452179000481       -1.74209645541898        0.72342760305898
C            2.56641398898033       -1.22807214902160       -0.01660067364713
N            1.59024199472069       -2.06797660122611       -0.09399622805092
C            0.05287034707790       -0.79646876834498       -0.29414769730276
C            0.90888788277406        0.24688054654037       -0.01520357912075
C            0.07800249131537        1.40096129939078       -0.00567784323498
O            0.48138314677922        2.53478122054772       -0.01837106321182
N           -1.28022865118763        1.06231558461556        0.00318149539150
C           -2.23630687780735        2.16248775807115       -0.00089616467151
C           -1.86012391988974       -0.18707886511886        0.00506635282752
O           -3.03889998629194       -0.36470184175229        0.01396236624274
N           -1.04946999444198       -1.29666140238585       -0.01756437370655
C           -1.51742439102188       -2.63739123249578       -0.00080813366826
H            3.70943072880151        1.18783322084709        0.98244060363526
H            3.96386146117349        0.99615593111286       -0.76147814580828
H            2.67544321444076        2.07068665424697       -0.15577457975852
H            3.53087550836772       -1.66481901246194       -0.02253170600128
H           -1.68208390492571        3.09733921908841        0.00497555771498
H           -2.86270558163685        2.09970490792169       -0.88958005235759
H           -2.87404054052578        2.09398959163437        0.87914323388974
H            0.54935929167230       -1.59876917383019        0.60531280370438
H           -1.21316006791670       -3.18109632030313       -0.89600020309350
H           -2.59913599567401       -2.54884989729583        0.01534871568140
H            1.34435256040856       -2.98502557639763       -0.02590091153973
25
 energy: -246.717166950402 gnorm: 7.423495475281 xtb: 6.6.1 (8d0f1dd)
C            3.25296618407693        1.17560706779819        0.01297373861820
N            0.63577133209292       -1.75720729091193        0.74279898538302
C            2.57558393431577       -1.21623376333823       -0.01741159976815
N            1.59945012073614       -2.07639473148350       -0.09553147070057
C            0.01895418205529       -0.78335459077665       -0.31674074473277
C            0.92184113805796        0.25239822901951       -0.01791112984037
C            0.07953087258778        1.40195264701652       -0.00578751199283
O            0.48325511050803        2.53508974107354       -0.01853072159069
N           -1.27980671349103        1.06371396490794        0.00271041917342
C           -2.23436691848554        2.16452648197815       -0.00190733406115
C           -1.86295651534550       -0.18368282014579        0.00462919476233
O           -3.04111592435638       -0.36133591675008        0.01318008153541
N           -1.05763053802877       -1.29793030374266       -0.01830780933025
C           -1.52132478535480       -2.63828402001853        0.00165784743511
H            3.71007502574819        1.18427902867164        0.98401984763398
H            3.96548379527771        0.99250877209803       -0.76106809124110
H            2.67677177441240        2.06860105395935       -0.15544323745528
H            3.53035838496280       -1.66861772186356       -0.02180812952818
H           -1.67925983466315        3.09894394255557        0.00397087224645
H           -2.86056046275083        2.10220761583445       -0.89082030005393