      -----------------------------------------------------------      
     |                   =====================                   |     
     |                           x T B                           |     
     |                   =====================                   |     
     |                         S. Grimme                         |     
     |          Mulliken Center for Theoretical Chemistry        |     
     |                    University of Bonn                     |     
      -----------------------------------------------------------      

   * xtb version 6.6.1 (8d0f1dd) compiled by 'conda@1efc2f54142f' on 2023-08-01

   xtb is free software: you can redistribute it and/or modify it under
   the terms of the GNU Lesser General Public License as published by
   the Free Software Foundation, either version 3 of the License, or
   (at your option) any later version.
   
   xtb is distributed in the hope that it will be useful,
   but WITHOUT ANY WARRANTY; without even the implied warranty of
   MERCHANTABILITY or FITNESS FOR A PARTICULAR PURPOSE.  See the
   GNU Lesser General Public License for more details.
   
   Cite this work as:
   * C. Bannwarth, E. Caldeweyher, S. Ehlert, A. Hansen, P. Pracht,
     J. Seibert, S. Spicher, S. Grimme, WIREs Comput. Mol. Sci., 2020, 11,
     e01493. DOI: 10.1002/wcms.1493
   
   for GFN2-xTB:
   * C. Bannwarth, S. Ehlert and S. Grimme., J. Chem. Theory Comput., 2019,
     15, 1652-1671. DOI: 10.1021/acs.jctc.8b01176
   for GFN1-xTB:
   * S. Grimme, C. Bannwarth, P. Shushkov, J. Chem. Theory Comput., 2017,
     13, 1989-2009. DOI: 10.1021/acs.jctc.7b00118
   for GFN0-xTB:
   * P. Pracht, E. Caldeweyher, S. Ehlert, S. Grimme, ChemRxiv, 2019, preprint.
     DOI: 10.26434/chemrxiv.8326202.v1
   for GFN-FF:
   * S. Spicher and S. Grimme, Angew. Chem. Int. Ed., 2020, 59, 15665-15673.
     DOI: 10.1002/anie.202004239
   
   for ALPB and GBSA implicit solvation:
   * S. Ehlert, M. Stahn, S. Spicher, S. Grimme, J. Chem. Theory Comput.,
     2021, 17, 4250-4261. DOI: 10.1021/acs.jctc.1c00471
   
   for DFT-D4:
   * E. Caldeweyher, C. Bannwarth and S. Grimme, J. Chem. Phys., 2017,
     147, 034112. DOI: 10.1063/1.4993215
   * E. Caldeweyher, S. Ehlert, A. Hansen, H. Neugebauer, S. Spicher,
     C. Bannwarth and S. Grimme, J. Chem. Phys., 2019, 150, 154122.
     DOI: 10.1063/1.5090222
   * E. Caldeweyher, J.-M. Mewes, S. Ehlert and S. Grimme, Phys. Chem. Chem. Phys.
     2020, 22, 8499-8512. DOI: 10.1039/D0CP00502A
   
   for sTDA-xTB:
   * S. Grimme and C. Bannwarth, J. Chem. Phys., 2016, 145, 054103.
     DOI: 10.1063/1.4959605
   
   in the mass-spec context:
   * V. Asgeirsson, C. Bauer and S. Grimme, Chem. Sci., 2017, 8, 4879.
     DOI: 10.1039/c7sc00601b
   * J. Koopman and S. Grimme, ACS Omega 2019, 4, 12, 15120-15133.
     DOI: 10.1021/acsomega.9b02011
   
   for metadynamics refer to:
   * S. Grimme, J. Chem. Theory Comput., 2019, 155, 2847-2862
     DOI: 10.1021/acs.jctc.9b00143
   
   for SPH calculations refer to:
   * S. Spicher and S. Grimme, J. Chem. Theory Comput., 2021, 17, 1701-1714
     DOI: 10.1021/acs.jctc.0c01306
   
   with help from (in alphabetical order)
   P. Atkinson, C. Bannwarth, F. Bohle, G. Brandenburg, E. Caldeweyher
   M. Checinski, S. Dohm, S. Ehlert, S. Ehrlich, I. Gerasimov, C. Hölzer
   A. Katbashev, J. Koopman, C. Lavigne, S. Lehtola, F. März, M. Müller,
   F. Musil, H. Neugebauer, J. Pisarek, C. Plett, P. Pracht, F. Pultar,
   J. Seibert, P. Shushkov, S. Spicher, M. Stahn, M. Steiner, T. Strunk,
   J. Stückrath, T. Rose, and J. Unsleber
   
 * started run on 2024/04/06 at 11:13:44.505     

           -------------------------------------------------
          |                Calculation Setup                |
           -------------------------------------------------

          program call               : xtb struc.xyz --opt loose --input .xc1 --gfn2
          hostname                   : n-62-30-23
          coordinate file            : struc.xyz
          omp threads                :                     1

   ID    Z sym.   atoms
    1    7 N      1, 17
    2    6 C      2-6, 8, 9, 11-16, 18-23, 25, 26, 28-33
    3    8 O      7, 10, 24, 27
    4    1 H      34-72
constraining bond 20 21 to    4.0000000 Å, actual value:    1.3812242 Å

           -------------------------------------------------
          |                 G F N 2 - x T B                 |
           -------------------------------------------------

        Reference                      10.1021/acs.jctc.8b01176
      * Hamiltonian:
        H0-scaling (s, p, d)           1.850000    2.230000    2.230000
        zeta-weighting                 0.500000
      * Dispersion:
        s8                             2.700000
        a1                             0.520000
        a2                             5.000000
        s9                             5.000000
      * Repulsion:
        kExp                           1.500000    1.000000
        rExp                           1.000000
      * Coulomb:
        alpha                          2.000000
        third order                    shell-resolved
        anisotropic                    true
        a3                             3.000000
        a5                             4.000000
        cn-shift                       1.200000
        cn-exp                         4.000000
        max-rad                        5.000000


          ...................................................
          :                      SETUP                      :
          :.................................................:
          :  # basis functions                 171          :
          :  # atomic orbitals                 171          :
          :  # shells                          105          :
          :  # electrons                       180          :
          :  max. iterations                   250          :
          :  Hamiltonian                  GFN2-xTB          :
          :  restarted?                      false          :
          :  GBSA solvation                  false          :
          :  PC potential                    false          :
          :  electronic temp.         5000.0000000     K    :
          :  accuracy                    1.0000000          :
          :  -> integral cutoff          0.2500000E+02      :
          :  -> integral neglect         0.1000000E-07      :
          :  -> SCF convergence          0.1000000E-05 Eh   :
          :  -> wf. convergence          0.1000000E-03 e    :
          :  Broyden damping             0.4000000          :
          ...................................................

 iter      E             dE          RMSdq      gap      omega  full diag
   1   -100.5973919 -0.100597E+03  0.374E+00    3.20       0.0  T
   2   -100.7362642 -0.138872E+00  0.221E+00    1.08       1.0  T
   3   -100.7049001  0.313641E-01  0.141E+00    3.29       1.0  T
   4   -100.7721690 -0.672689E-01  0.526E-01    1.50       1.0  T
   5   -100.7894292 -0.172602E-01  0.190E-01    1.98       1.0  T
   6   -100.7911978 -0.176856E-02  0.792E-02    1.77       1.0  T
   7   -100.7914750 -0.277198E-03  0.375E-02    1.83       1.0  T
   8   -100.7914914 -0.164582E-04  0.140E-02    1.83       1.0  T
   9   -100.7914976 -0.616739E-05  0.474E-03    1.82       2.5  T
  10   -100.7914988 -0.118227E-05  0.172E-03    1.82       6.8  T
  11   -100.7914989 -0.139928E-06  0.766E-04    1.82      15.4  T
  12   -100.7914989 -0.773143E-08  0.318E-04    1.82      37.0  T

   *** convergence criteria satisfied after 12 iterations ***

         #    Occupation            Energy/Eh            Energy/eV
      -------------------------------------------------------------
         1        2.0000           -0.8078051             -21.9815
       ...           ...                  ...                  ...
        84        1.9966           -0.5157491             -14.0342
        85        1.9959           -0.5128261             -13.9547
        86        1.9840           -0.4911498             -13.3649
        87        1.9795           -0.4872543             -13.2589
        88        1.9640           -0.4782114             -13.0128
        89        1.8920           -0.4602041             -12.5228
        90        1.8557           -0.4553147             -12.3897 (HOMO)
        91        0.3166           -0.3884132             -10.5693 (LUMO)
        92        0.0218           -0.3434697              -9.3463
        93        0.0041           -0.3169887              -8.6257
        94        0.0034           -0.3139726              -8.5436
        95        0.0029           -0.3112618              -8.4699
       ...           ...                  ...                  ...
       171                          0.5822580              15.8440
      -------------------------------------------------------------
                  HL-Gap            0.0669015 Eh            1.8205 eV
             Fermi-level           -0.4148687 Eh          -11.2892 eV

 SCC (total)                   0 d,  0 h,  0 min,  0.190 sec
 SCC setup                      ...        0 min,  0.001 sec (  0.624%)
 Dispersion                     ...        0 min,  0.002 sec (  0.907%)
 classical contributions        ...        0 min,  0.000 sec (  0.237%)
 integral evaluation            ...        0 min,  0.019 sec (  9.767%)
 iterations                     ...        0 min,  0.098 sec ( 51.707%)
 molecular gradient             ...        0 min,  0.069 sec ( 36.405%)
 printout                       ...        0 min,  0.001 sec (  0.347%)

         :::::::::::::::::::::::::::::::::::::::::::::::::::::
         ::                     SUMMARY                     ::
         :::::::::::::::::::::::::::::::::::::::::::::::::::::
         :: total energy             -98.179615384548 Eh    ::
         :: gradient norm              0.705351371991 Eh/a0 ::
         :: HOMO-LUMO gap              1.820481192090 eV    ::
         ::.................................................::
         :: SCC energy              -100.791498925389 Eh    ::
         :: -> isotropic ES            0.109302908418 Eh    ::
         :: -> anisotropic ES          0.005415138735 Eh    ::
         :: -> anisotropic XC          0.042392697176 Eh    ::
         :: -> dispersion             -0.075527661009 Eh    ::
         :: repulsion energy           1.386151658689 Eh    ::
         :: add. restraining           1.224515529647 Eh    ::
         :: total charge               1.000000000108 e     ::
         :::::::::::::::::::::::::::::::::::::::::::::::::::::

      ----------------------------------------------------------- 
     |                   =====================                   |
     |                        A N C O P T                        |
     |                   =====================                   |
     |               Approximate Normal Coordinate               |
     |                Rational Function Optimizer                |
      ----------------------------------------------------------- 

          ...................................................
          :                      SETUP                      :
          :.................................................:
          :   optimization level             loose          :
          :   max. optcycles                   200          :
          :   ANC micro-cycles                  20          :
          :   degrees of freedom               210          :
          :.................................................:
          :   RF solver                   davidson          :
          :   write xtbopt.log                true          :
          :   linear?                        false          :
          :   energy convergence         0.5000000E-04 Eh   :
          :   grad. convergence          0.4000000E-02 Eh/α :
          :   maxmium RF displ.          1.0000000          :
          :   Hlow (freq-cutoff)         0.1000000E-01      :
          :   Hmax (freq-cutoff)         5.0000000          :
          :   S6 in model hess.         20.0000000          :
          ...................................................

generating ANC from model Hessian ...
Using Lindh-Hessian (1995)
 Shifting diagonal of input Hessian by   0.21731418717710074     
 Lowest  eigenvalues of input Hessian
    0.010000    0.212408    0.000000    0.000000    0.000000    0.000000
    0.000000    0.000000    0.217379    0.217461    0.217643    0.217729
    0.217850    0.218135    0.218280    0.218524    0.219054    0.219268
 Highest eigenvalues
    2.243280    2.253272    2.345845    2.370330    2.386758    2.394369


........................................................................
.............................. CYCLE    1 ..............................
........................................................................

 iter      E             dE          RMSdq      gap      omega  full diag
   1   -100.7914989 -0.100791E+03  0.114E-04    1.82       0.0  T
   2   -100.7914989 -0.678995E-10  0.713E-05    1.82     165.2  T
   3   -100.7914989  0.665210E-10  0.496E-05    1.82     237.5  T
     SCC iter.                  ...        0 min,  0.026 sec
     gradient                   ...        0 min,  0.069 sec
 * total energy  :   -98.1796154 Eh     change       -0.4035485E-08 Eh
   gradient norm :     0.7053529 Eh/α   predicted     0.0000000E+00 (-100.00%)
   displ. norm   :     0.3488835 α      lambda       -0.2274165E+00
   maximum displ.:     0.2049608 α      in ANC's #207, #202, #195, ...

........................................................................
.............................. CYCLE    2 ..............................
........................................................................

 iter      E             dE          RMSdq      gap      omega  full diag
   1   -100.7555353 -0.100756E+03  0.244E-01    1.50       0.0  T
   2   -100.7554795  0.557187E-04  0.191E-01    1.74       1.0  T
   3   -100.7563745 -0.894988E-03  0.118E-01    1.53       1.0  T
   4   -100.7565810 -0.206469E-03  0.657E-02    1.69       1.0  T
   5   -100.7569844 -0.403384E-03  0.130E-02    1.61       1.0  T
   6   -100.7569949 -0.104840E-04  0.316E-03    1.62       3.7  T
   7   -100.7569949 -0.724339E-07  0.173E-03    1.62       6.8  T
   8   -100.7569950 -0.843391E-07  0.571E-04    1.62      20.6  T
   9   -100.7569950 -0.455380E-08  0.246E-04    1.62      47.9  T
     SCC iter.                  ...        0 min,  0.073 sec
     gradient                   ...        0 min,  0.076 sec
 * total energy  :   -98.3639828 Eh     change       -0.1843674E+00 Eh
   gradient norm :     0.4710016 Eh/α   predicted    -0.1275492E+00 ( -30.82%)
   displ. norm   :     0.5285621 α      lambda       -0.2325016E+00
   maximum displ.:     0.3151407 α      in ANC's #207, #202, #195, ...

........................................................................
.............................. CYCLE    3 ..............................
........................................................................

 iter      E             dE          RMSdq      gap      omega  full diag
   1   -100.6933683 -0.100693E+03  0.343E-01    1.32       0.0  T
   2   -100.6924665  0.901828E-03  0.242E-01    1.62       1.0  T
   3   -100.6909617  0.150480E-02  0.216E-01    1.22       1.0  T
   4   -100.6945290 -0.356730E-02  0.802E-02    1.52       1.0  T
   5   -100.6950801 -0.551076E-03  0.219E-02    1.44       1.0  T
   6   -100.6951095 -0.294035E-04  0.692E-03    1.44       1.7  T
   7   -100.6951101 -0.662166E-06  0.571E-03    1.44       2.1  T
   8   -100.6951121 -0.198380E-05  0.171E-03    1.44       6.9  T
   9   -100.6951122 -0.112083E-06  0.625E-04    1.44      18.9  T
  10   -100.6951122 -0.374800E-08  0.259E-04    1.44      45.5  T
     SCC iter.                  ...        0 min,  0.081 sec
     gradient                   ...        0 min,  0.069 sec
 * total energy  :   -98.5575993 Eh     change       -0.1936165E+00 Eh
   gradient norm :     0.3204263 Eh/α   predicted    -0.1487302E+00 ( -23.18%)
   displ. norm   :     0.7092895 α      lambda       -0.2158028E+00
   maximum displ.:     0.3921110 α      in ANC's #207, #202, #108, ...

........................................................................
.............................. CYCLE    4 ..............................
........................................................................

 iter      E             dE          RMSdq      gap      omega  full diag
   1   -100.6003354 -0.100600E+03  0.707E-01    0.92       0.0  T
   2   -100.5729497  0.273857E-01  0.534E-01    1.83       1.0  T
   3   -100.5549017  0.180479E-01  0.732E-01    0.59       1.0  T
   4   -100.6069323 -0.520306E-01  0.170E-01    1.25       1.0  T
   5   -100.6079497 -0.101740E-02  0.137E-01    1.23       1.0  T
   6   -100.6095624 -0.161271E-02  0.258E-02    1.26       1.0  T
   7   -100.6095839 -0.214413E-04  0.183E-02    1.25       1.0  T
   8   -100.6095987 -0.147800E-04  0.884E-03    1.24       1.3  T
   9   -100.6096047 -0.601740E-05  0.232E-03    1.25       5.1  T
  10   -100.6096052 -0.493169E-06  0.859E-04    1.25      13.7  T
  11   -100.6096052 -0.185550E-07  0.379E-04    1.25      31.1  T
     SCC iter.                  ...        0 min,  0.088 sec
     gradient                   ...        0 min,  0.069 sec
 * total energy  :   -98.7503658 Eh     change       -0.1927665E+00 Eh
   gradient norm :     0.2616110 Eh/α   predicted    -0.1621858E+00 ( -15.86%)
   displ. norm   :     0.8670220 α      lambda       -0.2189950E+00
   maximum displ.:     0.4812838 α      in ANC's #207, #202, #108, ...

........................................................................
.............................. CYCLE    5 ..............................
........................................................................

 iter      E             dE          RMSdq      gap      omega  full diag
   1   -100.5151779 -0.100515E+03  0.735E-01    0.31       0.0  T
   2   -100.4410822  0.740958E-01  0.840E-01    0.55       1.0  T
   3   -100.4649326 -0.238505E-01  0.826E-01    0.26       1.0  T
   4   -100.4865344 -0.216018E-01  0.582E-01    0.18       1.0  T
   5   -100.5239372 -0.374028E-01  0.109E-01    0.47       1.0  T
   6   -100.5250466 -0.110934E-02  0.292E-02    0.45       1.0  T
   7   -100.5250695 -0.229113E-04  0.190E-02    0.45       1.0  T
   8   -100.5250870 -0.175262E-04  0.984E-03    0.44       1.2  T
   9   -100.5250946 -0.756139E-05  0.329E-03    0.45       3.6  T
  10   -100.5250957 -0.116847E-05  0.838E-04    0.45      14.1  T
  11   -100.5250958 -0.264017E-07  0.451E-04    0.45      26.2  T
  12   -100.5250958 -0.125498E-07  0.112E-04    0.45     105.5  T
     SCC iter.                  ...        0 min,  0.097 sec
     gradient                   ...        0 min,  0.069 sec
 * total energy  :   -98.9468234 Eh     change       -0.1964576E+00 Eh
   gradient norm :     0.2060252 Eh/α   predicted    -0.1918098E+00 (  -2.37%)
   displ. norm   :     0.8219906 α      lambda       -0.1593636E+00
   maximum displ.:     0.4820324 α      in ANC's #207, #202, #108, ...

........................................................................
.............................. CYCLE    6 ..............................
........................................................................

 iter      E             dE          RMSdq      gap      omega  full diag
   1   -100.4398900 -0.100440E+03  0.460E-01    0.32       0.0  T
   2   -100.2839659  0.155924E+00  0.112E+00    0.20       1.0  T
   3   -100.4444574 -0.160492E+00  0.315E-01    0.35       1.0  T
   4   -100.4317238  0.127336E-01  0.423E-01    0.04       1.0  T
   5   -100.4498952 -0.181714E-01  0.133E-01    0.28       1.0  T
   6   -100.4515735 -0.167827E-02  0.332E-02    0.17       1.0  T
   7   -100.4516198 -0.462895E-04  0.220E-02    0.18       1.0  T
   8   -100.4516577 -0.378375E-04  0.106E-02    0.18       1.1  T
   9   -100.4516660 -0.831137E-05  0.339E-03    0.19       3.5  T
  10   -100.4516668 -0.880311E-06  0.118E-03    0.19      10.0  T
  11   -100.4516668  0.209270E-07  0.753E-04    0.19      15.7  T
  12   -100.4516669 -0.520080E-07  0.357E-04    0.19      33.0  T
     SCC iter.                  ...        0 min,  0.097 sec
     gradient                   ...        0 min,  0.069 sec
 * total energy  :   -99.0567414 Eh     change       -0.1099180E+00 Eh
   gradient norm :     0.1173945 Eh/α   predicted    -0.1335203E+00 (  21.47%)
   displ. norm   :     0.4543433 α      lambda       -0.4215072E-01
   maximum displ.:     0.2082147 α      in ANC's #207, #108, #75, ...

........................................................................
.............................. CYCLE    7 ..............................
........................................................................

 iter      E             dE          RMSdq      gap      omega  full diag
   1   -100.4378099 -0.100438E+03  0.292E-01    0.17       0.0  T
   2   -100.3955464  0.422635E-01  0.583E-01    0.07       1.0  T
   3   -100.4388772 -0.433307E-01  0.205E-01    0.21       1.0  T
   4   -100.4336193  0.525786E-02  0.277E-01    0.04       1.0  T
   5   -100.4411628 -0.754348E-02  0.950E-02    0.25       1.0  T
   6   -100.4423116 -0.114882E-02  0.110E-02    0.19       1.1  T
   7   -100.4423092  0.237152E-05  0.941E-03    0.19       1.3  T
   8   -100.4423170 -0.777037E-05  0.461E-03    0.19       2.6  T
   9   -100.4423184 -0.141719E-05  0.175E-03    0.19       6.7  T
  10   -100.4423186 -0.195121E-06  0.816E-04    0.19      14.4  T
  11   -100.4423186 -0.313753E-07  0.362E-04    0.19      32.5  T
     SCC iter.                  ...        0 min,  0.088 sec
     gradient                   ...        0 min,  0.069 sec
 * total energy  :   -99.0872768 Eh     change       -0.3053541E-01 Eh
   gradient norm :     0.0893241 Eh/α   predicted    -0.2542623E-01 ( -16.73%)
   displ. norm   :     0.4325073 α      lambda       -0.2906539E-01
   maximum displ.:     0.1775096 α      in ANC's #108, #75, #66, ...

........................................................................
.............................. CYCLE    8 ..............................
........................................................................

 iter      E             dE          RMSdq      gap      omega  full diag
   1   -100.4639713 -0.100464E+03  0.197E-01    0.12       0.0  T
   2   -100.4511527  0.128186E-01  0.354E-01    0.39       1.0  T
   3   -100.4631462 -0.119934E-01  0.153E-01    0.09       1.0  T
   4   -100.4572312  0.591498E-02  0.254E-01    0.30       1.0  T
   5   -100.4651169 -0.788568E-02  0.230E-02    0.17       1.0  T
   6   -100.4651525 -0.356115E-04  0.160E-02    0.18       1.0  T
   7   -100.4651708 -0.182942E-04  0.855E-03    0.18       1.4  T
   8   -100.4651764 -0.561216E-05  0.229E-03    0.18       5.1  T
   9   -100.4651766 -0.225673E-06  0.106E-03    0.17      11.1  T
  10   -100.4651767 -0.603374E-07  0.398E-04    0.17      29.6  T
  11   -100.4651767  0.233716E-08  0.260E-04    0.17      45.3  T
     SCC iter.                  ...        0 min,  0.088 sec
     gradient                   ...        0 min,  0.075 sec
 * total energy  :   -99.1084237 Eh     change       -0.2114694E-01 Eh
   gradient norm :     0.0676390 Eh/α   predicted    -0.1725123E-01 ( -18.42%)
   displ. norm   :     0.3814200 α      lambda       -0.1626787E-01
   maximum displ.:     0.1387484 α      in ANC's #75, #108, #1, ...

........................................................................
.............................. CYCLE    9 ..............................
........................................................................

 iter      E             dE          RMSdq      gap      omega  full diag
   1   -100.4852037 -0.100485E+03  0.172E-01    0.16       0.0  T
   2   -100.4837661  0.143763E-02  0.153E-01    0.24       1.0  T
   3   -100.4797649  0.400117E-02  0.230E-01    0.05       1.0  T
   4   -100.4823650 -0.260009E-02  0.156E-01    0.26       1.0  T
   5   -100.4853247 -0.295970E-02  0.256E-02    0.17       1.0  T
   6   -100.4853875 -0.628138E-04  0.108E-02    0.18       1.1  T
   7   -100.4853953 -0.780321E-05  0.550E-03    0.18       2.1  T
   8   -100.4853973 -0.196310E-05  0.264E-03    0.17       4.5  T
   9   -100.4853978 -0.518316E-06  0.653E-04    0.17      18.1  T
  10   -100.4853978 -0.774408E-08  0.318E-04    0.17      37.1  T
     SCC iter.                  ...        0 min,  0.080 sec
     gradient                   ...        0 min,  0.069 sec
 * total energy  :   -99.1196980 Eh     change       -0.1127427E-01 Eh
   gradient norm :     0.0669258 Eh/α   predicted    -0.9317587E-02 ( -17.36%)
   displ. norm   :     0.2918240 α      lambda       -0.9606183E-02
   maximum displ.:     0.0960607 α      in ANC's #75, #85, #65, ...

........................................................................
.............................. CYCLE   10 ..............................
........................................................................

 iter      E             dE          RMSdq      gap      omega  full diag
   1   -100.4961843 -0.100496E+03  0.147E-01    0.22       0.0  T
   2   -100.4929907  0.319358E-02  0.188E-01    0.07       1.0  T
   3   -100.4934788 -0.488117E-03  0.171E-01    0.30       1.0  T
   4   -100.4960794 -0.260060E-02  0.522E-02    0.18       1.0  T
   5   -100.4961940 -0.114565E-03  0.405E-02    0.19       1.0  T
   6   -100.4963878 -0.193781E-03  0.383E-03    0.19       3.1  T
   7   -100.4963882 -0.450139E-06  0.252E-03    0.18       4.7  T
   8   -100.4963887 -0.504226E-06  0.647E-04    0.18      18.2  T
   9   -100.4963887 -0.417887E-08  0.347E-04    0.18      34.0  T
     SCC iter.                  ...        0 min,  0.072 sec
     gradient                   ...        0 min,  0.069 sec
 * total energy  :   -99.1269015 Eh     change       -0.7203466E-02 Eh
   gradient norm :     0.0540832 Eh/α   predicted    -0.5212201E-02 ( -27.64%)
   displ. norm   :     0.2870386 α      lambda       -0.7936107E-02
   maximum displ.:     0.0904569 α      in ANC's #18, #85, #75, ...

........................................................................
.............................. CYCLE   11 ..............................
........................................................................

 iter      E             dE          RMSdq      gap      omega  full diag
   1   -100.5039393 -0.100504E+03  0.146E-01    0.22       0.0  T
   2   -100.5021662  0.177315E-02  0.155E-01    0.11       1.0  T
   3   -100.4995875  0.257863E-02  0.206E-01    0.34       1.0  T
   4   -100.5040058 -0.441832E-02  0.300E-02    0.19       1.0  T
   5   -100.5040586 -0.527993E-04  0.954E-03    0.20       1.2  T
   6   -100.5040630 -0.432852E-05  0.624E-03    0.20       1.9  T
   7   -100.5040666 -0.364152E-05  0.299E-03    0.20       3.9  T
   8   -100.5040674 -0.824243E-06  0.104E-03    0.20      11.3  T
   9   -100.5040675 -0.383475E-07  0.568E-04    0.20      20.8  T
  10   -100.5040675 -0.298566E-07  0.206E-04    0.20      57.2  T
     SCC iter.                  ...        0 min,  0.080 sec
     gradient                   ...        0 min,  0.069 sec
 * total energy  :   -99.1320856 Eh     change       -0.5184151E-02 Eh
   gradient norm :     0.0224235 Eh/α   predicted    -0.4294998E-02 ( -17.15%)
   displ. norm   :     0.1785015 α      lambda       -0.2321639E-02
   maximum displ.:     0.0743304 α      in ANC's #18, #19, #26, ...

........................................................................
.............................. CYCLE   12 ..............................
........................................................................

 iter      E             dE          RMSdq      gap      omega  full diag
   1   -100.5089677 -0.100509E+03  0.824E-02    0.21       0.0  T
   2   -100.5086277  0.340062E-03  0.763E-02    0.16       1.0  T
   3   -100.5070916  0.153601E-02  0.129E-01    0.29       1.0  T
   4   -100.5088930 -0.180132E-02  0.308E-02    0.19       1.0  T
   5   -100.5089915 -0.985174E-04  0.661E-03    0.20       1.8  T
   6   -100.5089920 -0.534920E-06  0.609E-03    0.20       1.9  T
   7   -100.5089962 -0.421808E-05  0.166E-03    0.20       7.1  T
   8   -100.5089964 -0.187211E-06  0.537E-04    0.20      22.0  T
   9   -100.5089964 -0.866133E-08  0.206E-04    0.20      57.2  T
     SCC iter.                  ...        0 min,  0.073 sec
     gradient                   ...        0 min,  0.075 sec
 * total energy  :   -99.1337441 Eh     change       -0.1658478E-02 Eh
   gradient norm :     0.0203763 Eh/α   predicted    -0.1197813E-02 ( -27.78%)
   displ. norm   :     0.2753559 α      lambda       -0.2584730E-02
   maximum displ.:     0.1259046 α      in ANC's #1, #18, #19, ...

........................................................................
.............................. CYCLE   13 ..............................
........................................................................

 iter      E             dE          RMSdq      gap      omega  full diag
   1   -100.5085371 -0.100509E+03  0.997E-02    0.20       0.0  T
   2   -100.5079710  0.566092E-03  0.958E-02    0.25       1.0  T
   3   -100.5066414  0.132967E-02  0.137E-01    0.12       1.0  T
   4   -100.5074493 -0.807922E-03  0.925E-02    0.25       1.0  T
   5   -100.5085826 -0.113335E-02  0.704E-03    0.20       1.7  T
   6   -100.5085860 -0.333588E-05  0.374E-03    0.21       3.1  T
   7   -100.5085875 -0.148144E-05  0.187E-03    0.21       6.3  T
   8   -100.5085877 -0.207938E-06  0.759E-04    0.21      15.5  T
   9   -100.5085877 -0.302796E-07  0.287E-04    0.21      41.1  T
     SCC iter.                  ...        0 min,  0.072 sec
     gradient                   ...        0 min,  0.069 sec
 * total energy  :   -99.1355206 Eh     change       -0.1776509E-02 Eh
   gradient norm :     0.0328466 Eh/α   predicted    -0.1390410E-02 ( -21.73%)
   displ. norm   :     0.4225948 α      lambda       -0.4051548E-02
   maximum displ.:     0.2010830 α      in ANC's #18, #19, #26, ...

........................................................................
.............................. CYCLE   14 ..............................
........................................................................

 iter      E             dE          RMSdq      gap      omega  full diag
   1   -100.5150056 -0.100515E+03  0.167E-01    0.19       0.0  T
   2   -100.5149417  0.639461E-04  0.991E-02    0.19       1.0  T
   3   -100.5133532  0.158848E-02  0.120E-01    0.17       1.0  T
   4   -100.5146824 -0.132921E-02  0.591E-02    0.21       1.0  T
   5   -100.5150495 -0.367049E-03  0.172E-02    0.18       1.0  T
   6   -100.5150346  0.148444E-04  0.195E-02    0.20       1.0  T
   7   -100.5150789 -0.442700E-04  0.295E-03    0.19       4.0  T
   8   -100.5150792 -0.356846E-06  0.134E-03    0.19       8.8  T
   9   -100.5150793 -0.729112E-07  0.520E-04    0.19      22.6  T
  10   -100.5150793 -0.698640E-08  0.288E-04    0.19      40.9  T
     SCC iter.                  ...        0 min,  0.081 sec
     gradient                   ...        0 min,  0.069 sec
 * total energy  :   -99.1382476 Eh     change       -0.2726976E-02 Eh
   gradient norm :     0.0415991 Eh/α   predicted    -0.2387591E-02 ( -12.45%)
   displ. norm   :     0.3932673 α      lambda       -0.4112584E-02
   maximum displ.:     0.1968479 α      in ANC's #18, #26, #19, ...

........................................................................
.............................. CYCLE   15 ..............................
........................................................................

 iter      E             dE          RMSdq      gap      omega  full diag
   1   -100.5162522 -0.100516E+03  0.110E-01    0.14       0.0  T
   2   -100.5111563  0.509590E-02  0.225E-01    0.34       1.0  T
   3   -100.5158991 -0.474276E-02  0.899E-02    0.13       1.0  T
   4   -100.5159074 -0.838259E-05  0.736E-02    0.18       1.0  T
   5   -100.5164614 -0.553965E-03  0.226E-02    0.18       1.0  T
   6   -100.5165231 -0.617111E-04  0.511E-03    0.18       2.3  T
   7   -100.5165243 -0.115106E-05  0.329E-03    0.18       3.6  T
   8   -100.5165252 -0.961894E-06  0.140E-03    0.18       8.4  T
   9   -100.5165254 -0.137331E-06  0.590E-04    0.18      20.0  T
  10   -100.5165254 -0.165961E-07  0.258E-04    0.18      45.6  T
     SCC iter.                  ...        0 min,  0.080 sec
     gradient                   ...        0 min,  0.071 sec
 * total energy  :   -99.1414314 Eh     change       -0.3183836E-02 Eh
   gradient norm :     0.0342542 Eh/α   predicted    -0.2374383E-02 ( -25.42%)
   displ. norm   :     0.3850416 α      lambda       -0.3726388E-02
   maximum displ.:     0.1966381 α      in ANC's #18, #26, #19, ...

........................................................................
.............................. CYCLE   16 ..............................
........................................................................

 iter      E             dE          RMSdq      gap      omega  full diag
   1   -100.5171052 -0.100517E+03  0.116E-01    0.12       0.0  T
   2   -100.5080559  0.904932E-02  0.290E-01    0.37       1.0  T
   3   -100.5168237 -0.876773E-02  0.977E-02    0.11       1.0  T
   4   -100.5170967 -0.273036E-03  0.740E-02    0.16       1.0  T
   5   -100.5174208 -0.324123E-03  0.372E-02    0.16       1.0  T
   6   -100.5176018 -0.181000E-03  0.118E-02    0.16       1.0  T
   7   -100.5176164 -0.146189E-04  0.458E-03    0.17       2.6  T
   8   -100.5176180 -0.153427E-05  0.191E-03    0.16       6.2  T
   9   -100.5176182 -0.263897E-06  0.774E-04    0.16      15.2  T
  10   -100.5176183 -0.526986E-07  0.240E-04    0.16      49.1  T
     SCC iter.                  ...        0 min,  0.081 sec
     gradient                   ...        0 min,  0.069 sec
 * total energy  :   -99.1440246 Eh     change       -0.2593190E-02 Eh
   gradient norm :     0.0218174 Eh/α   predicted    -0.2139441E-02 ( -17.50%)
   displ. norm   :     0.2994075 α      lambda       -0.1696191E-02
   maximum displ.:     0.1547718 α      in ANC's #18, #26, #19, ...

........................................................................
.............................. CYCLE   17 ..............................
........................................................................

 iter      E             dE          RMSdq      gap      omega  full diag
   1   -100.5164349 -0.100516E+03  0.819E-02    0.13       0.0  T
   2   -100.5122400  0.419491E-02  0.197E-01    0.29       1.0  T
   3   -100.5161916 -0.395167E-02  0.791E-02    0.12       1.0  T
   4   -100.5165339 -0.342234E-03  0.462E-02    0.15       1.0  T
   5   -100.5165780 -0.441284E-04  0.324E-02    0.15       1.0  T
   6   -100.5167195 -0.141522E-03  0.829E-03    0.16       1.4  T
   7   -100.5167259 -0.635356E-05  0.281E-03    0.16       4.2  T
   8   -100.5167265 -0.613305E-06  0.129E-03    0.16       9.2  T
   9   -100.5167266 -0.111672E-06  0.474E-04    0.16      24.9  T
  10   -100.5167266 -0.145191E-07  0.176E-04    0.16      66.9  T
     SCC iter.                  ...        0 min,  0.081 sec
     gradient                   ...        0 min,  0.069 sec
 * total energy  :   -99.1452412 Eh     change       -0.1216574E-02 Eh
   gradient norm :     0.0160722 Eh/α   predicted    -0.9241278E-03 ( -24.04%)
   displ. norm   :     0.2301242 α      lambda       -0.1040025E-02
   maximum displ.:     0.1177829 α      in ANC's #18, #12, #19, ...

........................................................................
.............................. CYCLE   18 ..............................
........................................................................

 iter      E             dE          RMSdq      gap      omega  full diag
   1   -100.5157128 -0.100516E+03  0.639E-02    0.14       0.0  T
   2   -100.5138342  0.187865E-02  0.135E-01    0.24       1.0  T
   3   -100.5154807 -0.164656E-02  0.688E-02    0.12       1.0  T
   4   -100.5157942 -0.313432E-03  0.337E-02    0.16       1.0  T
   5   -100.5157622  0.319145E-04  0.307E-02    0.15       1.0  T
   6   -100.5158839 -0.121678E-03  0.799E-03    0.15       1.5  T
   7   -100.5158903 -0.639419E-05  0.194E-03    0.16       6.1  T
   8   -100.5158906 -0.232930E-06  0.914E-04    0.15      12.9  T
   9   -100.5158906 -0.512221E-07  0.331E-04    0.15      35.6  T
     SCC iter.                  ...        0 min,  0.072 sec
     gradient                   ...        0 min,  0.069 sec
 * total energy  :   -99.1459629 Eh     change       -0.7216832E-03 Eh
   gradient norm :     0.0123777 Eh/α   predicted    -0.5475555E-03 ( -24.13%)
   displ. norm   :     0.1425886 α      lambda       -0.5640864E-03
   maximum displ.:     0.0690183 α      in ANC's #18, #12, #19, ...

........................................................................
.............................. CYCLE   19 ..............................
........................................................................

 iter      E             dE          RMSdq      gap      omega  full diag
   1   -100.5156843 -0.100516E+03  0.434E-02    0.15       0.0  T
   2   -100.5152935  0.390802E-03  0.664E-02    0.19       1.0  T
   3   -100.5155208 -0.227350E-03  0.491E-02    0.13       1.0  T
   4   -100.5156105 -0.896532E-04  0.348E-02    0.17       1.0  T
   5   -100.5156486 -0.380904E-04  0.257E-02    0.15       1.0  T
   6   -100.5157342 -0.855954E-04  0.506E-03    0.15       2.3  T
   7   -100.5157367 -0.252326E-05  0.137E-03    0.15       8.6  T
   8   -100.5157368 -0.817719E-07  0.736E-04    0.15      16.0  T
   9   -100.5157368 -0.383478E-07  0.237E-04    0.15      49.7  T
     SCC iter.                  ...        0 min,  0.072 sec
     gradient                   ...        0 min,  0.069 sec
 * total energy  :   -99.1463663 Eh     change       -0.4034645E-03 Eh
   gradient norm :     0.0115529 Eh/α   predicted    -0.2877872E-03 ( -28.67%)
   displ. norm   :     0.1104648 α      lambda       -0.4395944E-03
   maximum displ.:     0.0454486 α      in ANC's #18, #12, #39, ...

........................................................................
.............................. CYCLE   20 ..............................
........................................................................

 iter      E             dE          RMSdq      gap      omega  full diag
   1   -100.5160262 -0.100516E+03  0.373E-02    0.16       0.0  T
   2   -100.5158667  0.159555E-03  0.437E-02    0.16       1.0  T
   3   -100.5159449 -0.781884E-04  0.338E-02    0.15       1.0  T
   4   -100.5160316 -0.866955E-04  0.123E-02    0.16       1.0  T
   5   -100.5160464 -0.148061E-04  0.452E-03    0.16       2.6  T
   6   -100.5160484 -0.199025E-05  0.178E-03    0.16       6.6  T
   7   -100.5160478  0.553232E-06  0.270E-03    0.16       4.4  T
   8   -100.5160485 -0.722170E-06  0.107E-03    0.16      11.0  T
   9   -100.5160487 -0.109838E-06  0.203E-04    0.16      58.0  T
  10   -100.5160487 -0.883190E-09  0.759E-05    0.16     155.2  T
     SCC iter.                  ...        0 min,  0.080 sec
     gradient                   ...        0 min,  0.069 sec
 * total energy  :   -99.1466870 Eh     change       -0.3207166E-03 Eh
   gradient norm :     0.0110428 Eh/α   predicted    -0.2225111E-03 ( -30.62%)
   displ. norm   :     0.1054113 α      lambda       -0.4058562E-03
   maximum displ.:     0.0442937 α      in ANC's #39, #12, #18, ...
 * RMSD in coord.:     0.6127041 α      energy gain  -0.9670717E+00 Eh

generating ANC from model Hessian ...
Using Lindh-Hessian (1995)
 Shifting diagonal of input Hessian by    1.0304305953601135E-002
 Lowest  eigenvalues of input Hessian
    0.010000    0.010288    0.000000    0.000000    0.000000    0.000000
    0.000000    0.000000    0.010359    0.010460    0.010594    0.010675
    0.010814    0.010843    0.011137    0.011373    0.011783    0.012173
 Highest eigenvalues
    1.968909    2.041216    2.108712    2.114599    2.180668    2.194846


........................................................................
.............................. CYCLE   21 ..............................
........................................................................

 iter      E             dE          RMSdq      gap      omega  full diag
   1   -100.5166013 -0.100517E+03  0.388E-02    0.16       0.0  T
   2   -100.5161414  0.459866E-03  0.643E-02    0.14       1.0  T
   3   -100.5164961 -0.354701E-03  0.397E-02    0.18       1.0  T
   4   -100.5163246  0.171511E-03  0.529E-02    0.13       1.0  T
   5   -100.5166334 -0.308741E-03  0.791E-03    0.16       1.5  T
   6   -100.5166397 -0.629504E-05  0.339E-03    0.16       3.5  T
   7   -100.5166408 -0.109775E-05  0.144E-03    0.16       8.2  T
   8   -100.5166409 -0.148859E-06  0.635E-04    0.16      18.6  T
   9   -100.5166409 -0.292019E-07  0.196E-04    0.16      60.1  T
     SCC iter.                  ...        0 min,  0.073 sec
     gradient                   ...        0 min,  0.070 sec
 * total energy  :   -99.1469827 Eh     change       -0.2956204E-03 Eh
   gradient norm :     0.0100337 Eh/α   predicted     0.0000000E+00 (-100.00%)
   displ. norm   :     0.2079139 α      lambda       -0.9112095E-03
   maximum displ.:     0.0985888 α      in ANC's #12, #25, #27, ...

........................................................................
.............................. CYCLE   22 ..............................
........................................................................

 iter      E             dE          RMSdq      gap      omega  full diag
   1   -100.5170534 -0.100517E+03  0.483E-02    0.17       0.0  T
   2   -100.5165166  0.536762E-03  0.714E-02    0.13       1.0  T
   3   -100.5167506 -0.233981E-03  0.587E-02    0.19       1.0  T
   4   -100.5166952  0.553966E-04  0.593E-02    0.14       1.0  T
   5   -100.5170866 -0.391416E-03  0.272E-03    0.16       4.3  T
   6   -100.5170872 -0.527203E-06  0.115E-03    0.16      10.3  T
   7   -100.5170872 -0.688512E-07  0.549E-04    0.16      21.5  T
   8   -100.5170872 -0.887300E-08  0.177E-04    0.16      66.6  T
     SCC iter.                  ...        0 min,  0.065 sec
     gradient                   ...        0 min,  0.069 sec
 * total energy  :   -99.1477505 Eh     change       -0.7678289E-03 Eh
   gradient norm :     0.0064590 Eh/α   predicted    -0.4753008E-03 ( -38.10%)
   displ. norm   :     0.5038252 α      lambda       -0.1536933E-02
   maximum displ.:     0.2547009 α      in ANC's #12, #6, #27, ...

........................................................................
.............................. CYCLE   23 ..............................
........................................................................

 iter      E             dE          RMSdq      gap      omega  full diag
   1   -100.5144631 -0.100514E+03  0.125E-01    0.18       0.0  T
   2   -100.5102439  0.421915E-02  0.197E-01    0.12       1.0  T
   3   -100.5130858 -0.284183E-02  0.134E-01    0.23       1.0  T
   4   -100.5114938  0.159198E-02  0.174E-01    0.11       1.0  T
   5   -100.5147690 -0.327518E-02  0.118E-02    0.17       1.0  T
   6   -100.5147806 -0.116185E-04  0.516E-03    0.17       2.3  T
   7   -100.5147827 -0.208219E-05  0.251E-03    0.17       4.7  T
   8   -100.5147831 -0.463395E-06  0.118E-03    0.17      10.0  T
   9   -100.5147832 -0.729057E-07  0.464E-04    0.17      25.4  T
  10   -100.5147832 -0.164986E-07  0.123E-04    0.17      95.6  T
     SCC iter.                  ...        0 min,  0.080 sec
     gradient                   ...        0 min,  0.070 sec
 * total energy  :   -99.1488409 Eh     change       -0.1090421E-02 Eh
   gradient norm :     0.0074696 Eh/α   predicted    -0.9636100E-03 ( -11.63%)
   displ. norm   :     0.4168242 α      lambda       -0.7312996E-03
   maximum displ.:     0.2196044 α      in ANC's #12, #6, #8, ...

........................................................................
.............................. CYCLE   24 ..............................
........................................................................

 iter      E             dE          RMSdq      gap      omega  full diag
   1   -100.5121178 -0.100512E+03  0.110E-01    0.18       0.0  T
   2   -100.5088506  0.326717E-02  0.175E-01    0.15       1.0  T
   3   -100.5114227 -0.257212E-02  0.105E-01    0.21       1.0  T
   4   -100.5096681  0.175465E-02  0.159E-01    0.12       1.0  T
   5   -100.5123660 -0.269793E-02  0.192E-02    0.18       1.0  T
   6   -100.5124049 -0.388589E-04  0.657E-03    0.17       1.8  T
   7   -100.5124091 -0.419069E-05  0.232E-03    0.17       5.1  T
   8   -100.5124094 -0.336977E-06  0.103E-03    0.17      11.5  T
   9   -100.5124094 -0.519291E-07  0.420E-04    0.17      28.1  T
  10   -100.5124095 -0.124088E-07  0.128E-04    0.17      92.4  T
     SCC iter.                  ...        0 min,  0.080 sec
     gradient                   ...        0 min,  0.070 sec
 * total energy  :   -99.1493750 Eh     change       -0.5340935E-03 Eh
   gradient norm :     0.0082394 Eh/α   predicted    -0.4291795E-03 ( -19.64%)
   displ. norm   :     0.3614459 α      lambda       -0.5082986E-03
   maximum displ.:     0.1831283 α      in ANC's #12, #6, #8, ...

........................................................................
.............................. CYCLE   25 ..............................
........................................................................

 iter      E             dE          RMSdq      gap      omega  full diag
   1   -100.5116413 -0.100512E+03  0.100E-01    0.18       0.0  T
   2   -100.5092685  0.237280E-02  0.152E-01    0.16       1.0  T
   3   -100.5111144 -0.184595E-02  0.923E-02    0.20       1.0  T
   4   -100.5097795  0.133498E-02  0.137E-01    0.13       1.0  T
   5   -100.5117846 -0.200519E-02  0.269E-02    0.19       1.0  T
   6   -100.5118706 -0.859403E-04  0.611E-03    0.18       1.9  T
   7   -100.5118740 -0.338551E-05  0.204E-03    0.18       5.8  T
   8   -100.5118742 -0.203132E-06  0.902E-04    0.18      13.1  T
   9   -100.5118742 -0.591419E-07  0.287E-04    0.18      41.0  T
     SCC iter.                  ...        0 min,  0.073 sec
     gradient                   ...        0 min,  0.069 sec
 * total energy  :   -99.1497440 Eh     change       -0.3689717E-03 Eh
   gradient norm :     0.0062894 Eh/α   predicted    -0.2873532E-03 ( -22.12%)
   displ. norm   :     0.2911003 α      lambda       -0.3558394E-03
   maximum displ.:     0.1179792 α      in ANC's #12, #6, #8, ...

........................................................................
.............................. CYCLE   26 ..............................
........................................................................

 iter      E             dE          RMSdq      gap      omega  full diag
   1   -100.5128909 -0.100513E+03  0.821E-02    0.18       0.0  T
   2   -100.5118911  0.999877E-03  0.105E-01    0.17       1.0  T
   3   -100.5124167 -0.525641E-03  0.796E-02    0.20       1.0  T
   4   -100.5118436  0.573088E-03  0.101E-01    0.14       1.0  T
   5   -100.5128999 -0.105628E-02  0.292E-02    0.19       1.0  T
   6   -100.5130038 -0.103863E-03  0.507E-03    0.18       2.3  T
   7   -100.5130061 -0.229856E-05  0.138E-03    0.18       8.5  T
   8   -100.5130061 -0.219071E-07  0.926E-04    0.18      12.7  T
   9   -100.5130062 -0.833996E-07  0.248E-04    0.18      47.5  T
     SCC iter.                  ...        0 min,  0.072 sec
     gradient                   ...        0 min,  0.069 sec
 * total energy  :   -99.1500008 Eh     change       -0.2568623E-03 Eh
   gradient norm :     0.0039488 Eh/α   predicted    -0.1931005E-03 ( -24.82%)
   displ. norm   :     0.2738230 α      lambda       -0.2527730E-03
   maximum displ.:     0.1137016 α      in ANC's #6, #2, #22, ...

........................................................................
.............................. CYCLE   27 ..............................
........................................................................

 iter      E             dE          RMSdq      gap      omega  full diag
   1   -100.5134961 -0.100513E+03  0.783E-02    0.18       0.0  T
   2   -100.5130720  0.424124E-03  0.774E-02    0.19       1.0  T
   3   -100.5129144  0.157592E-03  0.814E-02    0.18       1.0  T
   4   -100.5132769 -0.362522E-03  0.457E-02    0.17       1.0  T
   5   -100.5134705 -0.193597E-03  0.271E-02    0.20       1.0  T
   6   -100.5135527 -0.821980E-04  0.569E-03    0.18       2.1  T
   7   -100.5135559 -0.318722E-05  0.112E-03    0.18      10.5  T
   8   -100.5135559 -0.347484E-07  0.759E-04    0.18      15.5  T
   9   -100.5135560 -0.553726E-07  0.200E-04    0.18      58.9  T
     SCC iter.                  ...        0 min,  0.072 sec
     gradient                   ...        0 min,  0.075 sec
 * total energy  :   -99.1501953 Eh     change       -0.1944778E-03 Eh
   gradient norm :     0.0050711 Eh/α   predicted    -0.1359102E-03 ( -30.12%)
   displ. norm   :     0.3615270 α      lambda       -0.3004029E-03
   maximum displ.:     0.1500354 α      in ANC's #6, #22, #20, ...

........................................................................
.............................. CYCLE   28 ..............................
........................................................................

 iter      E             dE          RMSdq      gap      omega  full diag
   1   -100.5131970 -0.100513E+03  0.106E-01    0.18       0.0  T
   2   -100.5128370  0.360023E-03  0.850E-02    0.19       1.0  T
   3   -100.5113356  0.150146E-02  0.137E-01    0.15       1.0  T
   4   -100.5126943 -0.135873E-02  0.688E-02    0.21       1.0  T
   5   -100.5131496 -0.455294E-03  0.278E-02    0.17       1.0  T
   6   -100.5132476 -0.979986E-04  0.412E-03    0.18       2.9  T
   7   -100.5132490 -0.145117E-05  0.143E-03    0.18       8.2  T
   8   -100.5132492 -0.115492E-06  0.838E-04    0.18      14.1  T
   9   -100.5132492 -0.688447E-07  0.203E-04    0.18      57.9  T
     SCC iter.                  ...        0 min,  0.072 sec
     gradient                   ...        0 min,  0.069 sec
 * total energy  :   -99.1504348 Eh     change       -0.2395267E-03 Eh
   gradient norm :     0.0079659 Eh/α   predicted    -0.1698382E-03 ( -29.09%)
   displ. norm   :     0.4673935 α      lambda       -0.4186459E-03
   maximum displ.:     0.1872442 α      in ANC's #6, #22, #20, ...

........................................................................
.............................. CYCLE   29 ..............................
........................................................................

 iter      E             dE          RMSdq      gap      omega  full diag
   1   -100.5122910 -0.100512E+03  0.141E-01    0.17       0.0  T
   2   -100.5118723  0.418720E-03  0.101E-01    0.20       1.0  T
   3   -100.5048496  0.702269E-02  0.264E-01    0.15       1.0  T
   4   -100.5112113 -0.636171E-02  0.986E-02    0.20       1.0  T
   5   -100.5122861 -0.107484E-02  0.179E-02    0.17       1.0  T
   6   -100.5123295 -0.433985E-04  0.489E-03    0.17       2.4  T
   7   -100.5123317 -0.215555E-05  0.163E-03    0.17       7.2  T
   8   -100.5123318 -0.896114E-07  0.938E-04    0.17      12.6  T
   9   -100.5123319 -0.983219E-07  0.262E-04    0.17      45.0  T
     SCC iter.                  ...        0 min,  0.073 sec
     gradient                   ...        0 min,  0.069 sec
 * total energy  :   -99.1507635 Eh     change       -0.3286080E-03 Eh
   gradient norm :     0.0117189 Eh/α   predicted    -0.2550641E-03 ( -22.38%)
   displ. norm   :     0.4630844 α      lambda       -0.5827105E-03
   maximum displ.:     0.1856553 α      in ANC's #22, #6, #20, ...

........................................................................
.............................. CYCLE   30 ..............................
........................................................................

 iter      E             dE          RMSdq      gap      omega  full diag
   1   -100.5129999 -0.100513E+03  0.140E-01    0.15       0.0  T
   2   -100.5117171  0.128276E-02  0.130E-01    0.22       1.0  T
   3   -100.5058369  0.588024E-02  0.260E-01    0.15       1.0  T
   4   -100.5130541 -0.721718E-02  0.122E-02    0.16       1.0  T
   5   -100.5130617 -0.766046E-05  0.667E-03    0.16       1.8  T
   6   -100.5130651 -0.340730E-05  0.392E-03    0.16       3.0  T
   7   -100.5130655 -0.317735E-06  0.350E-03    0.16       3.4  T
   8   -100.5130667 -0.124487E-05  0.523E-04    0.16      22.5  T
   9   -100.5130667 -0.136568E-07  0.314E-04    0.16      37.6  T
  10   -100.5130667 -0.109947E-07  0.114E-04    0.16     103.4  T
     SCC iter.                  ...        0 min,  0.081 sec
     gradient                   ...        0 min,  0.069 sec
 * total energy  :   -99.1512360 Eh     change       -0.4725522E-03 Eh
   gradient norm :     0.0126644 Eh/α   predicted    -0.3538379E-03 ( -25.12%)
   displ. norm   :     0.4719475 α      lambda       -0.9602002E-03
   maximum displ.:     0.2005148 α      in ANC's #22, #20, #6, ...

........................................................................
.............................. CYCLE   31 ..............................
........................................................................

 iter      E             dE          RMSdq      gap      omega  full diag
   1   -100.5158829 -0.100516E+03  0.145E-01    0.13       0.0  T
   2   -100.5123500  0.353285E-02  0.195E-01    0.25       1.0  T
   3   -100.5126903 -0.340286E-03  0.186E-01    0.12       1.0  T
   4   -100.5155660 -0.287570E-02  0.681E-02    0.15       1.0  T
   5   -100.5159919 -0.425881E-03  0.275E-02    0.14       1.0  T
   6   -100.5160665 -0.746806E-04  0.112E-02    0.15       1.1  T
   7   -100.5160812 -0.146094E-04  0.304E-03    0.15       3.9  T
   8   -100.5160817 -0.570890E-06  0.894E-04    0.15      13.2  T
   9   -100.5160818 -0.284046E-07  0.527E-04    0.15      22.4  T
     SCC iter.                  ...        0 min,  0.073 sec
     gradient                   ...        0 min,  0.069 sec
 * total energy  :   -99.1519994 Eh     change       -0.7633455E-03 Eh
   gradient norm :     0.0106364 Eh/α   predicted    -0.5870357E-03 ( -23.10%)
   displ. norm   :     0.6826885 α      lambda       -0.1217622E-02
   maximum displ.:     0.3360915 α      in ANC's #22, #20, #6, ...

........................................................................
.............................. CYCLE   32 ..............................
........................................................................

 iter      E             dE          RMSdq      gap      omega  full diag
   1   -100.5082740 -0.100508E+03  0.215E-01    0.12       0.0  T
   2   -100.5072273  0.104667E-02  0.156E-01    0.18       1.0  T
   3   -100.4875099  0.197174E-01  0.436E-01    0.25       1.0  T
   4   -100.5067968 -0.192869E-01  0.107E-01    0.15       1.0  T
   5   -100.5082978 -0.150101E-02  0.252E-02    0.13       1.0  T
   6   -100.5083589 -0.611246E-04  0.791E-03    0.13       1.5  T
   7   -100.5083645 -0.556680E-05  0.298E-03    0.13       4.0  T
   8   -100.5083648 -0.324205E-06  0.142E-03    0.13       8.3  T
   9   -100.5083649 -0.110635E-06  0.711E-04    0.13      16.6  T
  10   -100.5083650 -0.497115E-07  0.214E-04    0.13      55.2  T
     SCC iter.                  ...        0 min,  0.081 sec
     gradient                   ...        0 min,  0.069 sec
 * total energy  :   -99.1528237 Eh     change       -0.8243329E-03 Eh
   gradient norm :     0.0200587 Eh/α   predicted    -0.8925557E-03 (   8.28%)
   displ. norm   :     0.5428248 α      lambda       -0.2426499E-02
   maximum displ.:     0.2425270 α      in ANC's #25, #22, #26, ...

........................................................................
.............................. CYCLE   33 ..............................
........................................................................

 iter      E             dE          RMSdq      gap      omega  full diag
   1   -100.5188884 -0.100519E+03  0.163E-01    0.10       0.0  T
   2   -100.5160161  0.287224E-02  0.200E-01    0.21       1.0  T
   3   -100.5162449 -0.228831E-03  0.171E-01    0.11       1.0  T
   4   -100.5177982 -0.155327E-02  0.108E-01    0.15       1.0  T
   5   -100.5190600 -0.126178E-02  0.271E-02    0.12       1.0  T
   6   -100.5190949 -0.349414E-04  0.213E-02    0.12       1.0  T
   7   -100.5191476 -0.526335E-04  0.504E-03    0.12       2.3  T
   8   -100.5191494 -0.184464E-05  0.223E-03    0.12       5.3  T
   9   -100.5191497 -0.263746E-06  0.686E-04    0.12      17.2  T
  10   -100.5191497 -0.115924E-07  0.297E-04    0.12      39.6  T
     SCC iter.                  ...        0 min,  0.081 sec
     gradient                   ...        0 min,  0.075 sec
 * total energy  :   -99.1537778 Eh     change       -0.9541153E-03 Eh
   gradient norm :     0.0237129 Eh/α   predicted    -0.1570759E-02 (  64.63%)
   displ. norm   :     0.4673982 α      lambda       -0.1642178E-02
   maximum displ.:     0.2328200 α      in ANC's #22, #6, #20, ...

........................................................................
.............................. CYCLE   34 ..............................
........................................................................

 iter      E             dE          RMSdq      gap      omega  full diag
   1   -100.5146597 -0.100515E+03  0.154E-01    0.12       0.0  T
   2   -100.5144213  0.238379E-03  0.104E-01    0.10       1.0  T
   3   -100.5045415  0.987979E-02  0.300E-01    0.30       1.0  T
   4   -100.5143478 -0.980631E-02  0.558E-02    0.10       1.0  T
   5   -100.5146283 -0.280507E-03  0.231E-02    0.12       1.0  T
   6   -100.5146860 -0.576563E-04  0.743E-03    0.11       1.6  T
   7   -100.5146905 -0.452434E-05  0.376E-03    0.11       3.1  T
   8   -100.5146914 -0.881600E-06  0.200E-03    0.12       5.9  T
   9   -100.5146917 -0.317039E-06  0.446E-04    0.12      26.4  T
  10   -100.5146917 -0.622197E-08  0.186E-04    0.12      63.4  T
     SCC iter.                  ...        0 min,  0.081 sec
     gradient                   ...        0 min,  0.069 sec
 * total energy  :   -99.1549918 Eh     change       -0.1213954E-02 Eh
   gradient norm :     0.0204231 Eh/α   predicted    -0.1000470E-02 ( -17.59%)
   displ. norm   :     0.3914193 α      lambda       -0.2048555E-02
   maximum displ.:     0.1466857 α      in ANC's #22, #6, #33, ...

........................................................................
.............................. CYCLE   35 ..............................
........................................................................

 iter      E             dE          RMSdq      gap      omega  full diag
   1   -100.5220844 -0.100522E+03  0.141E-01    0.14       0.0  T
   2   -100.5192534  0.283098E-02  0.178E-01    0.08       1.0  T
   3   -100.5188000  0.453429E-03  0.193E-01    0.23       1.0  T
   4   -100.5212783 -0.247827E-02  0.103E-01    0.10       1.0  T
   5   -100.5221007 -0.822420E-03  0.506E-02    0.13       1.0  T
   6   -100.5223827 -0.282035E-03  0.213E-02    0.12       1.0  T
   7   -100.5224332 -0.504867E-04  0.378E-03    0.12       3.1  T
   8   -100.5224341 -0.951532E-06  0.189E-03    0.12       6.2  T
   9   -100.5224344 -0.238011E-06  0.577E-04    0.12      20.4  T
  10   -100.5224344 -0.974102E-08  0.211E-04    0.12      55.9  T
     SCC iter.                  ...        0 min,  0.080 sec
     gradient                   ...        0 min,  0.069 sec
 * total energy  :   -99.1559367 Eh     change       -0.9449679E-03 Eh
   gradient norm :     0.0227119 Eh/α   predicted    -0.1181209E-02 (  25.00%)
   displ. norm   :     0.4889839 α      lambda       -0.1716585E-02
   maximum displ.:     0.2414774 α      in ANC's #22, #6, #1, ...

........................................................................
.............................. CYCLE   36 ..............................
........................................................................

 iter      E             dE          RMSdq      gap      omega  full diag
   1   -100.5158429 -0.100516E+03  0.180E-01    0.15       0.0  T
   2   -100.5116718  0.417109E-02  0.214E-01    0.08       1.0  T
   3   -100.5102324  0.143936E-02  0.241E-01    0.27       1.0  T
   4   -100.5135061 -0.327370E-02  0.151E-01    0.09       1.0  T
   5   -100.5160062 -0.250014E-02  0.327E-02    0.14       1.0  T
   6   -100.5161128 -0.106520E-03  0.754E-03    0.13       1.6  T
   7   -100.5161176 -0.478966E-05  0.329E-03    0.13       3.6  T
   8   -100.5161181 -0.520616E-06  0.184E-03    0.13       6.4  T
   9   -100.5161183 -0.217299E-06  0.533E-04    0.13      22.1  T
  10   -100.5161183 -0.123241E-07  0.220E-04    0.13      53.6  T
     SCC iter.                  ...        0 min,  0.081 sec
     gradient                   ...        0 min,  0.069 sec
 * total energy  :   -99.1566130 Eh     change       -0.6762537E-03 Eh
   gradient norm :     0.0314199 Eh/α   predicted    -0.1063520E-02 (  57.27%)
   displ. norm   :     0.3478860 α      lambda       -0.2005426E-02
   maximum displ.:     0.1539413 α      in ANC's #22, #25, #26, ...

........................................................................
.............................. CYCLE   37 ..............................
........................................................................

 iter      E             dE          RMSdq      gap      omega  full diag
   1   -100.5149242 -0.100515E+03  0.110E-01    0.12       0.0  T
   2   -100.5147816  0.142543E-03  0.745E-02    0.13       1.0  T
   3   -100.5119886  0.279300E-02  0.160E-01    0.08       1.0  T
   4   -100.5148222 -0.283359E-02  0.358E-02    0.14       1.0  T
   5   -100.5147950  0.271501E-04  0.371E-02    0.10       1.0  T
   6   -100.5149568 -0.161748E-03  0.535E-03    0.12       2.2  T
   7   -100.5149592 -0.243081E-05  0.228E-03    0.12       5.2  T
   8   -100.5149595 -0.314095E-06  0.126E-03    0.12       9.3  T
   9   -100.5149596 -0.818691E-07  0.468E-04    0.12      25.2  T
  10   -100.5149596 -0.100979E-07  0.152E-04    0.12      77.7  T
     SCC iter.                  ...        0 min,  0.081 sec
     gradient                   ...        0 min,  0.075 sec
 * total energy  :   -99.1576566 Eh     change       -0.1043607E-02 Eh
   gradient norm :     0.0228824 Eh/α   predicted    -0.1124069E-02 (   7.71%)
   displ. norm   :     0.2644002 α      lambda       -0.2478548E-02
   maximum displ.:     0.0863606 α      in ANC's #3, #20, #22, ...

........................................................................
.............................. CYCLE   38 ..............................
........................................................................

 iter      E             dE          RMSdq      gap      omega  full diag
   1   -100.5380698 -0.100538E+03  0.137E-01    0.13       0.0  T
   2   -100.5375838  0.485987E-03  0.928E-02    0.09       1.0  T
   3   -100.5298332  0.775056E-02  0.283E-01    0.31       1.0  T
   4   -100.5378051 -0.797194E-02  0.538E-02    0.11       1.0  T
   5   -100.5380965 -0.291338E-03  0.156E-02    0.13       1.0  T
   6   -100.5381024 -0.592448E-05  0.136E-02    0.12       1.0  T
   7   -100.5381231 -0.207110E-04  0.328E-03    0.12       3.6  T
   8   -100.5381237 -0.588394E-06  0.143E-03    0.12       8.2  T
   9   -100.5381238 -0.962718E-07  0.599E-04    0.12      19.7  T
  10   -100.5381238 -0.204950E-07  0.218E-04    0.12      54.1  T
     SCC iter.                  ...        0 min,  0.081 sec
     gradient                   ...        0 min,  0.069 sec
 * total energy  :   -99.1569312 Eh     change        0.7253517E-03 Eh
   gradient norm :     0.0391286 Eh/α   predicted    -0.1325912E-02 (-282.80%)
   displ. norm   :     0.4190882 α      lambda       -0.3955812E-02
   maximum displ.:     0.2047199 α      in ANC's #22, #20, #6, ...

........................................................................
.............................. CYCLE   39 ..............................
........................................................................

 iter      E             dE          RMSdq      gap      omega  full diag
   1   -100.5245819 -0.100525E+03  0.163E-01    0.14       0.0  T
   2   -100.5232532  0.132875E-02  0.148E-01    0.07       1.0  T
   3   -100.5166349  0.661824E-02  0.269E-01    0.31       1.0  T
   4   -100.5241871 -0.755220E-02  0.629E-02    0.11       1.0  T
   5   -100.5246305 -0.443385E-03  0.198E-02    0.13       1.0  T
   6   -100.5246658 -0.353132E-04  0.802E-03    0.12       1.5  T
   7   -100.5246710 -0.519903E-05  0.404E-03    0.12       2.9  T
   8   -100.5246723 -0.123736E-05  0.960E-04    0.12      12.3  T
   9   -100.5246723 -0.450520E-07  0.388E-04    0.12      30.4  T
  10   -100.5246723 -0.396946E-08  0.219E-04    0.12      53.8  T
     SCC iter.                  ...        0 min,  0.081 sec
     gradient                   ...        0 min,  0.069 sec
 * total energy  :   -99.1588036 Eh     change       -0.1872379E-02 Eh
   gradient norm :     0.0259934 Eh/α   predicted    -0.2325294E-02 (  24.19%)
   displ. norm   :     0.4128569 α      lambda       -0.2890478E-02
   maximum displ.:     0.2328028 α      in ANC's #22, #6, #20, ...

........................................................................
.............................. CYCLE   40 ..............................
........................................................................

 iter      E             dE          RMSdq      gap      omega  full diag
   1   -100.5167934 -0.100517E+03  0.180E-01    0.15       0.0  T
   2   -100.5152492  0.154420E-02  0.159E-01    0.07       1.0  T
   3   -100.5085157  0.673356E-02  0.277E-01    0.31       1.0  T
   4   -100.5147407 -0.622502E-02  0.140E-01    0.07       1.0  T
   5   -100.5168150 -0.207430E-02  0.319E-02    0.14       1.0  T
   6   -100.5169224 -0.107374E-03  0.128E-02    0.13       1.0  T
   7   -100.5169307 -0.827621E-05  0.779E-03    0.13       1.5  T
   8   -100.5169340 -0.338407E-05  0.445E-03    0.13       2.6  T
   9   -100.5169357 -0.169055E-05  0.114E-03    0.13      10.3  T
  10   -100.5169358 -0.467333E-07  0.336E-04    0.13      35.1  T
  11   -100.5169358 -0.293143E-08  0.114E-04    0.13     103.2  T
     SCC iter.                  ...        0 min,  0.089 sec
     gradient                   ...        0 min,  0.069 sec
 * total energy  :   -99.1581835 Eh     change        0.6201380E-03 Eh
   gradient norm :     0.0430897 Eh/α   predicted    -0.1691582E-02 (-372.78%)
   displ. norm   :     0.2008945 α      lambda       -0.3322195E-02
   maximum displ.:     0.0646185 α      in ANC's #4, #1, #3, ...

........................................................................
.............................. CYCLE   41 ..............................
........................................................................

 iter      E             dE          RMSdq      gap      omega  full diag
   1   -100.5204261 -0.100520E+03  0.680E-02    0.12       0.0  T
   2   -100.5204200  0.609096E-05  0.440E-02    0.13       1.0  T
   3   -100.5196503  0.769636E-03  0.793E-02    0.09       1.0  T
   4   -100.5203236 -0.673293E-03  0.313E-02    0.15       1.0  T
   5   -100.5204209 -0.972260E-04  0.117E-02    0.12       1.0  T
   6   -100.5204274 -0.652033E-05  0.104E-02    0.13       1.1  T
   7   -100.5204364 -0.904008E-05  0.305E-03    0.13       3.9  T
   8   -100.5204369 -0.506762E-06  0.176E-03    0.13       6.7  T
   9   -100.5204372 -0.268641E-06  0.402E-04    0.13      29.3  T
  10   -100.5204372 -0.327104E-08  0.180E-04    0.13      65.5  T
     SCC iter.                  ...        0 min,  0.081 sec
     gradient                   ...        0 min,  0.069 sec
 * total energy  :   -99.1602304 Eh     change       -0.2046884E-02 Eh
   gradient norm :     0.0138596 Eh/α   predicted    -0.1728142E-02 ( -15.57%)
   displ. norm   :     0.4061571 α      lambda       -0.1077471E-02
   maximum displ.:     0.1333750 α      in ANC's #4, #22, #1, ...

........................................................................
.............................. CYCLE   42 ..............................
........................................................................

 iter      E             dE          RMSdq      gap      omega  full diag
   1   -100.5248694 -0.100525E+03  0.135E-01    0.14       0.0  T
   2   -100.5240956  0.773825E-03  0.106E-01    0.08       1.0  T
   3   -100.5183446  0.575102E-02  0.249E-01    0.28       1.0  T
   4   -100.5239058 -0.556121E-02  0.934E-02    0.09       1.0  T
   5   -100.5249187 -0.101286E-02  0.853E-03    0.13       1.4  T
   6   -100.5249244 -0.575922E-05  0.256E-03    0.13       4.6  T
   7   -100.5249249 -0.431977E-06  0.125E-03    0.13       9.4  T
   8   -100.5249249 -0.513986E-07  0.819E-04    0.13      14.4  T
   9   -100.5249250 -0.443537E-07  0.405E-04    0.13      29.1  T
     SCC iter.                  ...        0 min,  0.073 sec
     gradient                   ...        0 min,  0.075 sec
 * total energy  :   -99.1610837 Eh     change       -0.8533558E-03 Eh
   gradient norm :     0.0157736 Eh/α   predicted    -0.6276099E-03 ( -26.45%)
   displ. norm   :     0.5823163 α      lambda       -0.1760319E-02
   maximum displ.:     0.1978279 α      in ANC's #4, #22, #130, ...
 * RMSD in coord.:     0.7926192 α      energy gain  -0.1439667E-01 Eh

generating ANC from model Hessian ...
Using Lindh-Hessian (1995)
 Shifting diagonal of input Hessian by    1.0155638538528815E-002
 Lowest  eigenvalues of input Hessian
    0.010000    0.000000    0.000000    0.000000    0.000000    0.000000
    0.000000    0.010160    0.010198    0.010336    0.010430    0.010582
    0.010719    0.010884    0.011053    0.011100    0.011636    0.011943
 Highest eigenvalues
    1.988348    2.022100    2.041976    2.110605    2.134915    2.180504


........................................................................
.............................. CYCLE   43 ..............................
........................................................................

 iter      E             dE          RMSdq      gap      omega  full diag
   1   -100.5340344 -0.100534E+03  0.189E-01    0.14       0.0  T
   2   -100.5323531  0.168128E-02  0.151E-01    0.07       1.0  T
   3   -100.5241924  0.816069E-02  0.310E-01    0.30       1.0  T
   4   -100.5310828 -0.689034E-02  0.164E-01    0.05       1.0  T
   5   -100.5341600 -0.307718E-02  0.110E-02    0.13       1.1  T
   6   -100.5341683 -0.832528E-05  0.479E-03    0.13       2.5  T
   7   -100.5341705 -0.216532E-05  0.209E-03    0.13       5.6  T
   8   -100.5341707 -0.221643E-06  0.127E-03    0.13       9.3  T
   9   -100.5341708 -0.868126E-07  0.502E-04    0.13      23.5  T
  10   -100.5341708 -0.131545E-07  0.156E-04    0.13      75.3  T
     SCC iter.                  ...        0 min,  0.081 sec
     gradient                   ...        0 min,  0.069 sec
 * total energy  :   -99.1624980 Eh     change       -0.1414242E-02 Eh
   gradient norm :     0.0095615 Eh/α   predicted     0.0000000E+00 (-100.00%)
   displ. norm   :     0.2002871 α      lambda       -0.8802175E-03
   maximum displ.:     0.1002344 α      in ANC's #29, #24, #27, ...

........................................................................
.............................. CYCLE   44 ..............................
........................................................................

 iter      E             dE          RMSdq      gap      omega  full diag
   1   -100.5322699 -0.100532E+03  0.106E-01    0.14       0.0  T
   2   -100.5316770  0.592856E-03  0.902E-02    0.08       1.0  T
   3   -100.5285495  0.312749E-02  0.188E-01    0.26       1.0  T
   4   -100.5318802 -0.333070E-02  0.611E-02    0.11       1.0  T
   5   -100.5322945 -0.414329E-03  0.124E-02    0.14       1.0  T
   6   -100.5323093 -0.147473E-04  0.355E-03    0.13       3.3  T
   7   -100.5323105 -0.121514E-05  0.130E-03    0.13       9.1  T
   8   -100.5323105 -0.300724E-07  0.925E-04    0.13      12.7  T
   9   -100.5323106 -0.627911E-07  0.268E-04    0.13      43.9  T
     SCC iter.                  ...        0 min,  0.073 sec
     gradient                   ...        0 min,  0.069 sec
 * total energy  :   -99.1632336 Eh     change       -0.7356453E-03 Eh
   gradient norm :     0.0049718 Eh/α   predicted    -0.4577645E-03 ( -37.77%)
   displ. norm   :     0.5101219 α      lambda       -0.1481898E-02
   maximum displ.:     0.2483116 α      in ANC's #29, #24, #6, ...

........................................................................
.............................. CYCLE   45 ..............................
........................................................................

 iter      E             dE          RMSdq      gap      omega  full diag
   1   -100.5266344 -0.100527E+03  0.236E-01    0.16       0.0  T
   2   -100.5245151  0.211925E-02  0.186E-01    0.05       1.0  T
   3   -100.5079547  0.165605E-01  0.418E-01    0.44       1.0  T
   4   -100.5249574 -0.170028E-01  0.127E-01    0.09       1.0  T
   5   -100.5267057 -0.174828E-02  0.274E-02    0.15       1.0  T
   6   -100.5267815 -0.758265E-04  0.865E-03    0.14       1.4  T
   7   -100.5267888 -0.725374E-05  0.318E-03    0.14       3.7  T
   8   -100.5267888  0.339318E-07  0.267E-03    0.14       4.4  T
   9   -100.5267893 -0.546670E-06  0.894E-04    0.14      13.2  T
  10   -100.5267893 -0.424909E-07  0.174E-04    0.14      67.8  T
     SCC iter.                  ...        0 min,  0.081 sec
     gradient                   ...        0 min,  0.069 sec
 * total energy  :   -99.1639747 Eh     change       -0.7411428E-03 Eh
   gradient norm :     0.0236403 Eh/α   predicted    -0.9337632E-03 (  25.99%)
   displ. norm   :     0.1389008 α      lambda       -0.7447705E-03
   maximum displ.:     0.0423378 α      in ANC's #6, #1, #18, ...

........................................................................
.............................. CYCLE   46 ..............................
........................................................................

 iter      E             dE          RMSdq      gap      omega  full diag
   1   -100.5289568 -0.100529E+03  0.475E-02    0.14       0.0  T
   2   -100.5288627  0.941212E-04  0.428E-02    0.16       1.0  T
   3   -100.5283458  0.516888E-03  0.725E-02    0.09       1.0  T
   4   -100.5289202 -0.574380E-03  0.191E-02    0.15       1.0  T
   5   -100.5289601 -0.399688E-04  0.561E-03    0.14       2.1  T
   6   -100.5289632 -0.305291E-05  0.120E-03    0.14       9.8  T
   7   -100.5289633 -0.798812E-07  0.593E-04    0.14      19.9  T
   8   -100.5289633 -0.710142E-08  0.222E-04    0.14      53.0  T
     SCC iter.                  ...        0 min,  0.065 sec
     gradient                   ...        0 min,  0.069 sec
 * total energy  :   -99.1646365 Eh     change       -0.6617622E-03 Eh
   gradient norm :     0.0161113 Eh/α   predicted    -0.3796170E-03 ( -42.64%)
   displ. norm   :     0.6492464 α      lambda       -0.2284922E-02
   maximum displ.:     0.2130461 α      in ANC's #29, #6, #18, ...

........................................................................
.............................. CYCLE   47 ..............................
........................................................................

 iter      E             dE          RMSdq      gap      omega  full diag
   1   -100.5317786 -0.100532E+03  0.241E-01    0.13       0.0  T
   2   -100.5315265  0.252077E-03  0.155E-01    0.16       1.0  T
   3   -100.5117664  0.197601E-01  0.406E-01    0.11       1.0  T
   4   -100.5313243 -0.195578E-01  0.653E-02    0.18       1.0  T
   5   -100.5317607 -0.436453E-03  0.218E-02    0.13       1.0  T
   6   -100.5318082 -0.474586E-04  0.628E-03    0.14       1.9  T
   7   -100.5318116 -0.341628E-05  0.282E-03    0.14       4.2  T
   8   -100.5318120 -0.426057E-06  0.105E-03    0.14      11.2  T
   9   -100.5318121 -0.528598E-07  0.436E-04    0.14      27.1  T
  10   -100.5318121 -0.179332E-07  0.176E-04    0.14      67.0  T
     SCC iter.                  ...        0 min,  0.081 sec
     gradient                   ...        0 min,  0.069 sec
 * total energy  :   -99.1664013 Eh     change       -0.1764770E-02 Eh
   gradient norm :     0.0155203 Eh/α   predicted    -0.1624035E-02 (  -7.97%)
   displ. norm   :     0.6601417 α      lambda       -0.1673149E-02
   maximum displ.:     0.2379987 α      in ANC's #29, #24, #6, ...

........................................................................
.............................. CYCLE   48 ..............................
........................................................................

 iter      E             dE          RMSdq      gap      omega  full diag
   1   -100.5300186 -0.100530E+03  0.247E-01    0.14       0.0  T
   2   -100.5298546  0.164066E-03  0.149E-01    0.11       1.0  T
   3   -100.5168091  0.130454E-01  0.340E-01    0.36       1.0  T
   4   -100.5295708 -0.127617E-01  0.666E-02    0.10       1.0  T
   5   -100.5299926 -0.421787E-03  0.218E-02    0.14       1.0  T
   6   -100.5300459 -0.532836E-04  0.708E-03    0.13       1.7  T
   7   -100.5300499 -0.403773E-05  0.365E-03    0.13       3.2  T
   8   -100.5300508 -0.942546E-06  0.137E-03    0.13       8.6  T
   9   -100.5300509 -0.868379E-07  0.492E-04    0.13      23.9  T
  10   -100.5300509 -0.909954E-08  0.180E-04    0.13      65.5  T
     SCC iter.                  ...        0 min,  0.081 sec
     gradient                   ...        0 min,  0.069 sec
 * total energy  :   -99.1677552 Eh     change       -0.1353954E-02 Eh
   gradient norm :     0.0208786 Eh/α   predicted    -0.1201144E-02 ( -11.29%)
   displ. norm   :     0.5842403 α      lambda       -0.2297085E-02
   maximum displ.:     0.1789208 α      in ANC's #29, #1, #8, ...

........................................................................
.............................. CYCLE   49 ..............................
........................................................................

 iter      E             dE          RMSdq      gap      omega  full diag
   1   -100.5400259 -0.100540E+03  0.202E-01    0.13       0.0  T
   2   -100.5396854  0.340482E-03  0.135E-01    0.12       1.0  T
   3   -100.5320912  0.759423E-02  0.267E-01    0.15       1.0  T
   4   -100.5396527 -0.756155E-02  0.631E-02    0.12       1.0  T
   5   -100.5400939 -0.441129E-03  0.111E-02    0.13       1.1  T
   6   -100.5400940 -0.145310E-06  0.109E-02    0.12       1.1  T
   7   -100.5401048 -0.108372E-04  0.465E-03    0.13       2.5  T
   8   -100.5401069 -0.206825E-05  0.146E-03    0.13       8.1  T
   9   -100.5401070 -0.454426E-07  0.711E-04    0.13      16.6  T
  10   -100.5401070 -0.535355E-07  0.173E-04    0.13      68.2  T
     SCC iter.                  ...        0 min,  0.081 sec
     gradient                   ...        0 min,  0.069 sec
 * total energy  :   -99.1692332 Eh     change       -0.1477993E-02 Eh
   gradient norm :     0.0162542 Eh/α   predicted    -0.1540635E-02 (   4.24%)
   displ. norm   :     0.6065238 α      lambda       -0.1659213E-02
   maximum displ.:     0.2314408 α      in ANC's #29, #1, #8, ...

........................................................................
.............................. CYCLE   50 ..............................
........................................................................

 iter      E             dE          RMSdq      gap      omega  full diag
   1   -100.5357686 -0.100536E+03  0.217E-01    0.14       0.0  T
   2   -100.5353264  0.442232E-03  0.142E-01    0.09       1.0  T
   3   -100.5184577  0.168687E-01  0.389E-01    0.38       1.0  T
   4   -100.5352337 -0.167760E-01  0.733E-02    0.09       1.0  T
[...]
 molecular gradient             ...        0 min,  0.069 sec ( 59.070%)
 printout                       ...        0 min,  0.001 sec (  0.540%)

         :::::::::::::::::::::::::::::::::::::::::::::::::::::
         ::                     SUMMARY                     ::
         :::::::::::::::::::::::::::::::::::::::::::::::::::::
         :: total energy             -99.289676642679 Eh    ::
         :: gradient norm              0.001247986603 Eh/a0 ::
         :: HOMO-LUMO gap              1.304608656376 eV    ::
         ::.................................................::
         :: SCC energy              -100.712336360652 Eh    ::
         :: -> isotropic ES            0.108281680913 Eh    ::
         :: -> anisotropic ES          0.003810629295 Eh    ::
         :: -> anisotropic XC          0.050342845242 Eh    ::
         :: -> dispersion             -0.073157739884 Eh    ::
         :: repulsion energy           1.421149466581 Eh    ::
         :: add. restraining           0.000191652537 Eh    ::
         :: total charge               1.000000000000 e     ::
         :::::::::::::::::::::::::::::::::::::::::::::::::::::

           -------------------------------------------------
          |                Property Printout                |
           -------------------------------------------------

    * Orbital Energies and Occupations

         #    Occupation            Energy/Eh            Energy/eV
      -------------------------------------------------------------
         1        2.0000           -0.8078577             -21.9829
       ...           ...                  ...                  ...
        78        1.9985           -0.5244574             -14.2712
        79        1.9985           -0.5242407             -14.2653
        80        1.9982           -0.5219780             -14.2037
        81        1.9977           -0.5181375             -14.0992
        82        1.9976           -0.5174644             -14.0809
        83        1.9971           -0.5140843             -13.9889
        84        1.9964           -0.5106987             -13.8968
        85        1.9958           -0.5083611             -13.8332
        86        1.9950           -0.5055655             -13.7571
        87        1.9827           -0.4857816             -13.2188
        88        1.9447           -0.4670785             -12.7099
        89        1.8847           -0.4549534             -12.3799
        90        1.7045           -0.4384540             -11.9309 (HOMO)
        91        0.4366           -0.3905105             -10.6263 (LUMO)
        92        0.0551           -0.3542736              -9.6403
        93        0.0159           -0.3343243              -9.0974
        94        0.0039           -0.3117586              -8.4834
        95        0.0031           -0.3084626              -8.3937
        96        0.0004           -0.2758017              -7.5049
        97        0.0003           -0.2723430              -7.4108
        98        0.0000           -0.1903032              -5.1784
        99        0.0000           -0.1858362              -5.0569
       100                         -0.1367349              -3.7207
       101                         -0.0791592              -2.1540
       ...                                ...                  ...
       171                          1.2699418              34.5569
      -------------------------------------------------------------
                  HL-Gap            0.0479435 Eh            1.3046 eV
             Fermi-level           -0.4107077 Eh          -11.1759 eV

     #   Z          covCN         q      C6AA      α(0)
     1   7 N        1.773    -0.272    27.886     7.820
     2   6 C        2.827     0.101    25.754     8.316
     3   6 C        3.908     0.006    20.415     6.422
     4   6 C        2.974     0.001    28.004     8.680
     5   6 C        2.921    -0.080    30.011     8.984
     6   6 C        2.862     0.128    25.185     8.226
     7   8 O        1.706    -0.233    17.858     5.706
     8   6 C        3.644     0.029    20.430     6.497
     9   6 C        2.864     0.128    25.201     8.229
    10   8 O        1.706    -0.231    17.835     5.702
    11   6 C        3.645     0.028    20.439     6.498
    12   6 C        2.914    -0.075    29.867     8.962
    13   6 C        2.922    -0.053    29.321     8.880
    14   6 C        3.813    -0.064    21.719     6.633
    15   6 C        3.802    -0.069    21.816     6.650
    16   6 C        2.845     0.003    27.945     8.664
    17   7 N        2.729     0.004    21.202     6.839
    18   6 C        3.756    -0.016    20.918     6.521
    19   6 C        3.805    -0.065    21.743     6.638
    20   6 C        2.892    -0.046    29.136     8.850
    21   6 C        1.910    -0.077    33.204     9.306
    22   6 C        1.966    -0.028    31.802     9.107
    23   6 C        2.840     0.142    24.905     8.179
    24   8 O        1.707    -0.216    17.593     5.663
    25   6 C        3.643     0.026    20.488     6.507
    26   6 C        2.840     0.122    25.312     8.245
    27   8 O        1.708    -0.228    17.783     5.694
    28   6 C        3.639     0.029    20.439     6.502
    29   6 C        2.891    -0.057    29.423     8.893
    30   6 C        3.698    -0.068    21.978     6.705
    31   6 C        3.853    -0.007    20.672     6.467
    32   6 C        3.756    -0.118    22.810     6.810
    33   6 C        3.755    -0.119    22.835     6.814
    34   1 H        0.926     0.051     2.312     2.378
    35   1 H        0.924     0.053     2.286     2.364
    36   1 H        0.925     0.080     1.981     2.201
    37   1 H        0.924     0.046     2.375     2.410
    38   1 H        0.924     0.054     2.271     2.357
    39   1 H        0.925     0.080     1.981     2.201
    40   1 H        0.924     0.047     2.360     2.402
    41   1 H        0.926     0.051     2.312     2.378
    42   1 H        0.926     0.038     2.477     2.461
    43   1 H        0.925     0.060     2.204     2.322
    44   1 H        0.924     0.053     2.282     2.362
    45   1 H        0.925     0.066     2.128     2.281
    46   1 H        0.923     0.076     2.017     2.221
    47   1 H        0.922     0.004     2.983     2.701
    48   1 H        0.926     0.067     2.122     2.278
    49   1 H        0.924     0.067     2.117     2.275
    50   1 H        0.924     0.067     2.124     2.279
    51   1 H        0.924     0.060     2.200     2.320
    52   1 H        0.924     0.056     2.247     2.344
    53   1 H        0.928     0.103     1.760     2.075
    54   1 H        0.925     0.044     2.399     2.422
    55   1 H        0.924     0.055     2.256     2.349
    56   1 H        0.924     0.057     2.230     2.335
    57   1 H        0.925     0.083     1.950     2.184
    58   1 H        0.925     0.081     1.966     2.193
    59   1 H        0.924     0.047     2.364     2.405
    60   1 H        0.924     0.053     2.289     2.366
    61   1 H        0.925     0.059     2.211     2.325
    62   1 H        0.924     0.076     2.024     2.225
    63   1 H        0.924     0.077     2.009     2.217
    64   1 H        0.925     0.079     1.990     2.206
    65   1 H        0.924     0.036     2.502     2.474
    66   1 H        0.925     0.067     2.122     2.278
    67   1 H        0.925     0.035     2.520     2.483
    68   1 H        0.925     0.050     2.322     2.383
    69   1 H        0.925     0.062     2.179     2.308
    70   1 H        0.925     0.034     2.533     2.489
    71   1 H        0.925     0.053     2.278     2.360
    72   1 H        0.860     0.154     1.375     1.837

 Mol. C6AA /au·bohr⁶  :      47697.713687
 Mol. C8AA /au·bohr⁸  :    1088373.504768
 Mol. α(0) /au        :        335.052764


Wiberg/Mayer (AO) data.
largest (>0.10) Wiberg bond orders for each atom

 ---------------------------------------------------------------------------
     #   Z sym  total        # sym  WBO       # sym  WBO       # sym  WBO
 ---------------------------------------------------------------------------
     1   7 N    3.036 --     2 C    1.953    72 H    0.943
     2   6 C    3.927 --     1 N    1.953     3 C    0.995    47 H    0.902
     3   6 C    3.977 --     2 C    0.995     4 C    0.971    14 C    0.955
                            31 C    0.944
     4   6 C    3.952 --    13 C    1.417     5 C    1.368     3 C    0.971
     5   6 C    3.964 --     6 C    1.403     4 C    1.368    34 H    0.958
     6   6 C    3.908 --     5 C    1.403     9 C    1.225     7 O    1.095
     7   8 O    2.253 --     6 C    1.095     8 C    0.979
     8   6 C    3.934 --     7 O    0.979    36 H    0.977    35 H    0.974
                            37 H    0.974
     9   6 C    3.905 --    12 C    1.394     6 C    1.225    10 O    1.098
    10   8 O    2.251 --     9 C    1.098    11 C    0.978
    11   6 C    3.933 --    10 O    0.978    39 H    0.977    40 H    0.974
                            38 H    0.974
    12   6 C    3.964 --    13 C    1.403     9 C    1.394    41 H    0.964
    13   6 C    3.957 --     4 C    1.417    12 C    1.403    42 H    0.963
    14   6 C    3.973 --    15 C    0.983    44 H    0.972    43 H    0.968
                             3 C    0.955
    15   6 C    3.988 --    16 C    1.060    14 C    0.983    45 H    0.960
                            46 H    0.928
    16   6 C    3.565 --    17 N    1.381    15 C    1.060    48 H    0.958
    17   7 N    3.459 --    16 C    1.381    30 C    0.999    18 C    0.990
    18   6 C    3.956 --    17 N    0.990    19 C    0.968    49 H    0.967
                            50 H    0.966
    19   6 C    3.978 --    20 C    1.032    52 H    0.973    18 C    0.968
                            51 H    0.956
    20   6 C    3.894 --    29 C    1.765    19 C    1.032    54 H    0.963
    21   6 C    3.887 --    22 C    2.762    53 H    0.967
    22   6 C    3.966 --    21 C    2.762    23 C    1.141
    23   6 C    3.816 --    26 C    1.394    22 C    1.141    24 O    1.087
    24   8 O    2.241 --    23 C    1.087    25 C    0.979
    25   6 C    3.926 --    24 O    0.979    57 H    0.976    55 H    0.972
                            56 H    0.971
    26   6 C    3.819 --    23 C    1.394    29 C    1.141    27 O    1.087
    27   8 O    2.224 --    26 C    1.087    28 C    0.982
    28   6 C    3.932 --    27 O    0.982    59 H    0.975    58 H    0.975
                            60 H    0.969
    29   6 C    3.964 --    20 C    1.765    26 C    1.141    61 H    0.951
    30   6 C    3.959 --    17 N    0.999    64 H    0.978    62 H    0.968
                            63 H    0.963
    31   6 C    3.974 --    33 C    1.009    32 C    1.008    65 H    0.961
                             3 C    0.944
    32   6 C    3.981 --    31 C    1.008    67 H    0.982    68 H    0.982
                            66 H    0.975
    33   6 C    3.983 --    31 C    1.009    70 H    0.983    71 H    0.981
                            69 H    0.976
    34   1 H    0.996 --     5 C    0.958
    35   1 H    0.994 --     8 C    0.974
    36   1 H    0.993 --     8 C    0.977
    37   1 H    0.994 --     8 C    0.974
    38   1 H    0.993 --    11 C    0.974
    39   1 H    0.993 --    11 C    0.977
    40   1 H    0.994 --    11 C    0.974
    41   1 H    0.996 --    12 C    0.964
    42   1 H    0.998 --    13 C    0.963
    43   1 H    0.995 --    14 C    0.968
    44   1 H    0.996 --    14 C    0.972
    45   1 H    0.994 --    15 C    0.960
    46   1 H    0.969 --    15 C    0.928
    47   1 H    0.988 --     2 C    0.902
    48   1 H    0.995 --    16 C    0.958
    49   1 H    0.992 --    18 C    0.967
    50   1 H    0.993 --    18 C    0.966
    51   1 H    0.991 --    19 C    0.956
    52   1 H    0.997 --    19 C    0.973
    53   1 H    0.989 --    21 C    0.967
    54   1 H    0.998 --    20 C    0.963
    55   1 H    0.989 --    25 C    0.972
    56   1 H    0.989 --    25 C    0.971
    57   1 H    0.992 --    25 C    0.976
    58   1 H    0.992 --    28 C    0.975
    59   1 H    0.993 --    28 C    0.975
    60   1 H    0.989 --    28 C    0.969
    61   1 H    0.994 --    29 C    0.951
    62   1 H    0.986 --    30 C    0.968
    63   1 H    0.985 --    30 C    0.963
    64   1 H    0.994 --    30 C    0.978
    65   1 H    0.993 --    31 C    0.961
    66   1 H    0.992 --    32 C    0.975
    67   1 H    0.997 --    32 C    0.982
    68   1 H    0.995 --    32 C    0.982
    69   1 H    0.993 --    33 C    0.976
    70   1 H    0.997 --    33 C    0.983
    71   1 H    0.994 --    33 C    0.981
    72   1 H    0.971 --     1 N    0.943
 ---------------------------------------------------------------------------

Topologies differ in total number of bonds
Writing topology from bond orders to xtbtopo.mol

molecular dipole:
                 x           y           z       tot (Debye)
 q only:        1.426      -0.147      -0.786
   full:        1.686      -0.218      -0.933       4.929
molecular quadrupole (traceless):
                xx          xy          yy          xz          yz          zz
 q only:       58.000       8.773     -18.419       8.214      -8.215     -39.581
  q+dip:       50.154      12.771     -14.842       9.585     -11.551     -35.312
   full:       51.238      13.101     -17.382       7.561     -11.682     -33.855

           -------------------------------------------------
          |                Geometry Summary                 |
           -------------------------------------------------

      molecular mass/u    :      455.6105846
   center of mass at/Å    :        0.0348375       0.0371570      -0.0020815
  moments of inertia/u·Å² :        0.2469851E+04   0.1188354E+05   0.1324168E+05
rotational constants/cm⁻¹ :        0.6825364E-02   0.1418570E-02   0.1273073E-02

 * 61 selected distances

     #   Z          #   Z                                           value/Å
     1   7 N        2   6 C                                       1.2493535
     4   6 C        5   6 C                                       1.3964243
     5   6 C        6   6 C                                       1.3844883
     6   6 C        7   8 O                                       1.3503614
     7   8 O        8   6 C                                       1.4079348
     6   6 C        9   6 C                                       1.4204315
     9   6 C       10   8 O                                       1.3492394
    10   8 O       11   6 C                                       1.4083438
     9   6 C       12   6 C                                       1.3854059
     4   6 C       13   6 C                                       1.3856461
    12   6 C       13   6 C                                       1.3892687
    14   6 C       15   6 C                                       1.5391311 (max)
    15   6 C       16   6 C                                       1.4789147
    16   6 C       17   7 N                                       1.3318467
    17   7 N       18   6 C                                       1.4439312
    21   6 C       22   6 C                                       1.2089019
    23   6 C       24   8 O                                       1.3579802
    24   8 O       25   6 C                                       1.4063297
    23   6 C       26   6 C                                       1.3884588
    26   6 C       27   8 O                                       1.3606715
    27   8 O       28   6 C                                       1.4060502
    20   6 C       29   6 C                                       1.3393038
    17   7 N       30   6 C                                       1.4428896
    31   6 C       32   6 C                                       1.5269292
    31   6 C       33   6 C                                       1.5263034
     5   6 C       34   1 H                                       1.0773127 (min)
     8   6 C       35   1 H                                       1.0941927
     8   6 C       36   1 H                                       1.0881925
     8   6 C       37   1 H                                       1.0950973
    11   6 C       38   1 H                                       1.0940555
    11   6 C       39   1 H                                       1.0881905
    11   6 C       40   1 H                                       1.0948294
    12   6 C       41   1 H                                       1.0779397
    13   6 C       42   1 H                                       1.0790868
    14   6 C       43   1 H                                       1.0894977
    14   6 C       44   1 H                                       1.0905968
    15   6 C       45   1 H                                       1.0888089
    15   6 C       46   1 H                                       1.0980580
    16   6 C       48   1 H                                       1.0796852
    18   6 C       49   1 H                                       1.0921992
    18   6 C       50   1 H                                       1.0930534
    19   6 C       51   1 H                                       1.0944582
    19   6 C       52   1 H                                       1.0905264
    20   6 C       54   1 H                                       1.0815995
    25   6 C       55   1 H                                       1.0943447
    25   6 C       56   1 H                                       1.0937920
    25   6 C       57   1 H                                       1.0881726
    28   6 C       58   1 H                                       1.0890845
    28   6 C       59   1 H                                       1.0942282
    28   6 C       60   1 H                                       1.0951542
    29   6 C       61   1 H                                       1.0831174
    30   6 C       62   1 H                                       1.0915811
    30   6 C       63   1 H                                       1.0939213
    30   6 C       64   1 H                                       1.0866327
    31   6 C       65   1 H                                       1.0961835
    32   6 C       66   1 H                                       1.0852485
    32   6 C       67   1 H                                       1.0873340
    32   6 C       68   1 H                                       1.0867503
    33   6 C       69   1 H                                       1.0854811
    33   6 C       70   1 H                                       1.0867847
    33   6 C       71   1 H                                       1.0868369

 * 4 distinct bonds (by element types)

   Z      Z             #   av. dist./Å        max./Å        min./Å
   1 H    6 C          36     1.0892230     1.0980580     1.0773127
   6 C    6 C          13     1.4130468     1.5391311     1.2089019
   6 C    7 N           4     1.3670053     1.4439312     1.2493535
   6 C    8 O           8     1.3808639     1.4083438     1.3492394


optimized geometry written to: xtbopt.xyz


           -------------------------------------------------
          | TOTAL ENERGY              -99.289676642679 Eh   |
          | GRADIENT NORM               0.001247986603 Eh/α |
          | HOMO-LUMO GAP               1.304608656376 eV   |
           -------------------------------------------------

------------------------------------------------------------------------
 * finished run on 2024/04/06 at 11:14:05.415     
------------------------------------------------------------------------
 total:
 * wall-time:     0 d,  0 h,  0 min, 20.910 sec
 *  cpu-time:     0 d,  0 h,  0 min, 20.885 sec
 * ratio c/w:     0.999 speedup
 SCF:
 * wall-time:     0 d,  0 h,  0 min,  0.191 sec
 *  cpu-time:     0 d,  0 h,  0 min,  0.191 sec
 * ratio c/w:     0.999 speedup
 ANC optimizer:
 * wall-time:     0 d,  0 h,  0 min, 20.679 sec
 *  cpu-time:     0 d,  0 h,  0 min, 20.671 sec
 * ratio c/w:     1.000 speedup

