      -----------------------------------------------------------      
     |                   =====================                   |     
     |                           x T B                           |     
     |                   =====================                   |     
     |                         S. Grimme                         |     
     |          Mulliken Center for Theoretical Chemistry        |     
     |                    University of Bonn                     |     
      -----------------------------------------------------------      

   * xtb version 6.6.1 (8d0f1dd) compiled by 'conda@1efc2f54142f' on 2023-08-01

   xtb is free software: you can redistribute it and/or modify it under
   the terms of the GNU Lesser General Public License as published by
   the Free Software Foundation, either version 3 of the License, or
   (at your option) any later version.
   
   xtb is distributed in the hope that it will be useful,
   but WITHOUT ANY WARRANTY; without even the implied warranty of
   MERCHANTABILITY or FITNESS FOR A PARTICULAR PURPOSE.  See the
   GNU Lesser General Public License for more details.
   
   Cite this work as:
   * C. Bannwarth, E. Caldeweyher, S. Ehlert, A. Hansen, P. Pracht,
     J. Seibert, S. Spicher, S. Grimme, WIREs Comput. Mol. Sci., 2020, 11,
     e01493. DOI: 10.1002/wcms.1493
   
   for GFN2-xTB:
   * C. Bannwarth, S. Ehlert and S. Grimme., J. Chem. Theory Comput., 2019,
     15, 1652-1671. DOI: 10.1021/acs.jctc.8b01176
   for GFN1-xTB:
   * S. Grimme, C. Bannwarth, P. Shushkov, J. Chem. Theory Comput., 2017,
     13, 1989-2009. DOI: 10.1021/acs.jctc.7b00118
   for GFN0-xTB:
   * P. Pracht, E. Caldeweyher, S. Ehlert, S. Grimme, ChemRxiv, 2019, preprint.
     DOI: 10.26434/chemrxiv.8326202.v1
   for GFN-FF:
   * S. Spicher and S. Grimme, Angew. Chem. Int. Ed., 2020, 59, 15665-15673.
     DOI: 10.1002/anie.202004239
   
   for ALPB and GBSA implicit solvation:
   * S. Ehlert, M. Stahn, S. Spicher, S. Grimme, J. Chem. Theory Comput.,
     2021, 17, 4250-4261. DOI: 10.1021/acs.jctc.1c00471
   
   for DFT-D4:
   * E. Caldeweyher, C. Bannwarth and S. Grimme, J. Chem. Phys., 2017,
     147, 034112. DOI: 10.1063/1.4993215
   * E. Caldeweyher, S. Ehlert, A. Hansen, H. Neugebauer, S. Spicher,
     C. Bannwarth and S. Grimme, J. Chem. Phys., 2019, 150, 154122.
     DOI: 10.1063/1.5090222
   * E. Caldeweyher, J.-M. Mewes, S. Ehlert and S. Grimme, Phys. Chem. Chem. Phys.
     2020, 22, 8499-8512. DOI: 10.1039/D0CP00502A
   
   for sTDA-xTB:
   * S. Grimme and C. Bannwarth, J. Chem. Phys., 2016, 145, 054103.
     DOI: 10.1063/1.4959605
   
   in the mass-spec context:
   * V. Asgeirsson, C. Bauer and S. Grimme, Chem. Sci., 2017, 8, 4879.
     DOI: 10.1039/c7sc00601b
   * J. Koopman and S. Grimme, ACS Omega 2019, 4, 12, 15120-15133.
     DOI: 10.1021/acsomega.9b02011
   
   for metadynamics refer to:
   * S. Grimme, J. Chem. Theory Comput., 2019, 155, 2847-2862
     DOI: 10.1021/acs.jctc.9b00143
   
   for SPH calculations refer to:
   * S. Spicher and S. Grimme, J. Chem. Theory Comput., 2021, 17, 1701-1714
     DOI: 10.1021/acs.jctc.0c01306
   
   with help from (in alphabetical order)
   P. Atkinson, C. Bannwarth, F. Bohle, G. Brandenburg, E. Caldeweyher
   M. Checinski, S. Dohm, S. Ehlert, S. Ehrlich, I. Gerasimov, C. Hölzer
   A. Katbashev, J. Koopman, C. Lavigne, S. Lehtola, F. März, M. Müller,
   F. Musil, H. Neugebauer, J. Pisarek, C. Plett, P. Pracht, F. Pultar,
   J. Seibert, P. Shushkov, S. Spicher, M. Stahn, M. Steiner, T. Strunk,
   J. Stückrath, T. Rose, and J. Unsleber
   
 * started run on 2024/06/05 at 19:58:02.627     

           -------------------------------------------------
          |                Calculation Setup                |
           -------------------------------------------------

          program call               : xtb struc.xyz --opt loose --input .xc1 --gfn2
          hostname                   : n-62-21-71
          coordinate file            : struc.xyz
          omp threads                :                     1

   ID    Z sym.   atoms
    1    6 C      1, 3, 5-7, 10, 11, 14
    2    7 N      2, 4, 9, 13
    3    8 O      8, 12
    4    1 H      15-25
constraining bond 9 13 to    4.8400000 Å, actual value:    2.3869999 Å

           -------------------------------------------------
          |                 G F N 2 - x T B                 |
           -------------------------------------------------

        Reference                      10.1021/acs.jctc.8b01176
      * Hamiltonian:
        H0-scaling (s, p, d)           1.850000    2.230000    2.230000
        zeta-weighting                 0.500000
      * Dispersion:
        s8                             2.700000
        a1                             0.520000
        a2                             5.000000
        s9                             5.000000
      * Repulsion:
        kExp                           1.500000    1.000000
        rExp                           1.000000
      * Coulomb:
        alpha                          2.000000
        third order                    shell-resolved
        anisotropic                    true
        a3                             3.000000
        a5                             4.000000
        cn-shift                       1.200000
        cn-exp                         4.000000
        max-rad                        5.000000


          ...................................................
          :                      SETUP                      :
          :.................................................:
          :  # basis functions                  67          :
          :  # atomic orbitals                  67          :
          :  # shells                           39          :
          :  # electrons                        74          :
          :  max. iterations                   250          :
          :  Hamiltonian                  GFN2-xTB          :
          :  restarted?                      false          :
          :  GBSA solvation                  false          :
          :  PC potential                    false          :
          :  electronic temp.         2500.0000000     K    :
          :  accuracy                    1.0000000          :
          :  -> integral cutoff          0.2500000E+02      :
          :  -> integral neglect         0.1000000E-07      :
          :  -> SCF convergence          0.1000000E-05 Eh   :
          :  -> wf. convergence          0.1000000E-03 e    :
          :  Broyden damping             0.4000000          :
          ...................................................

 iter      E             dE          RMSdq      gap      omega  full diag
   1    -42.5894761 -0.425895E+02  0.446E+00    3.52       0.0  T
   2    -42.7660496 -0.176573E+00  0.253E+00    3.37       1.0  T
   3    -42.7736311 -0.758158E-02  0.147E+00    3.27       1.0  T
   4    -42.7712089  0.242228E-02  0.522E-01    3.20       1.0  T
   5    -42.7763755 -0.516665E-02  0.115E-01    3.24       1.0  T
   6    -42.7764786 -0.103096E-03  0.599E-02    3.22       1.0  T
   7    -42.7764977 -0.190557E-04  0.265E-02    3.24       1.0  T
   8    -42.7765022 -0.458752E-05  0.826E-03    3.24       2.4  T
   9    -42.7765028 -0.511866E-06  0.435E-03    3.24       4.6  T
  10    -42.7765028 -0.741126E-07  0.110E-03    3.24      18.2  T
  11    -42.7765028 -0.615289E-08  0.514E-04    3.24      38.9  T
  12    -42.7765028 -0.131732E-08  0.162E-04    3.24     123.6  T

   *** convergence criteria satisfied after 12 iterations ***

         #    Occupation            Energy/Eh            Energy/eV
      -------------------------------------------------------------
         1        2.0000           -0.9218663             -25.0853
       ...           ...                  ...                  ...
        31        2.0000           -0.6245728             -16.9955
        32        2.0000           -0.6188521             -16.8398
        33        2.0000           -0.5946289             -16.1807
        34        1.9999           -0.5766508             -15.6915
        35        1.9996           -0.5616187             -15.2824
        36        1.9994           -0.5584494             -15.1962
        37        1.9993           -0.5575820             -15.1726 (HOMO)
        38        0.0017           -0.4385664             -11.9340 (LUMO)
        39        0.0000           -0.4059970             -11.0477
        40        0.0000           -0.3720875             -10.1250
        41                         -0.2883077              -7.8453
        42                         -0.2064013              -5.6165
       ...                                ...                  ...
        67                          0.5638960              15.3444
      -------------------------------------------------------------
                  HL-Gap            0.1190156 Eh            3.2386 eV
             Fermi-level           -0.4943591 Eh          -13.4522 eV

 SCC (total)                   0 d,  0 h,  0 min,  0.038 sec
 SCC setup                      ...        0 min,  0.000 sec (  0.838%)
 Dispersion                     ...        0 min,  0.000 sec (  1.132%)
 classical contributions        ...        0 min,  0.000 sec (  0.288%)
 integral evaluation            ...        0 min,  0.007 sec ( 17.287%)
 iterations                     ...        0 min,  0.018 sec ( 46.051%)
 molecular gradient             ...        0 min,  0.013 sec ( 33.930%)
 printout                       ...        0 min,  0.000 sec (  0.434%)

         :::::::::::::::::::::::::::::::::::::::::::::::::::::
         ::                     SUMMARY                     ::
         :::::::::::::::::::::::::::::::::::::::::::::::::::::
         :: total energy             -31.501362670944 Eh    ::
         :: gradient norm              6.555597400916 Eh/a0 ::
         :: HOMO-LUMO gap              3.238579380711 eV    ::
         ::.................................................::
         :: SCC energy               -42.776502838750 Eh    ::
         :: -> isotropic ES            0.143394945287 Eh    ::
         :: -> anisotropic ES         -0.005231236584 Eh    ::
         :: -> anisotropic XC          0.012162721064 Eh    ::
         :: -> dispersion             -0.022660936007 Eh    ::
         :: repulsion energy           0.531105277918 Eh    ::
         :: add. restraining          10.743920730878 Eh    ::
         :: total charge               1.000000000000 e     ::
         :::::::::::::::::::::::::::::::::::::::::::::::::::::

      ----------------------------------------------------------- 
     |                   =====================                   |
     |                        A N C O P T                        |
     |                   =====================                   |
     |               Approximate Normal Coordinate               |
     |                Rational Function Optimizer                |
      ----------------------------------------------------------- 

          ...................................................
          :                      SETUP                      :
          :.................................................:
          :   optimization level             loose          :
          :   max. optcycles                   200          :
          :   ANC micro-cycles                  20          :
          :   degrees of freedom                69          :
          :.................................................:
          :   RF solver                   davidson          :
          :   write xtbopt.log                true          :
          :   linear?                        false          :
          :   energy convergence         0.5000000E-04 Eh   :
          :   grad. convergence          0.4000000E-02 Eh/α :
          :   maxmium RF displ.          1.0000000          :
          :   Hlow (freq-cutoff)         0.1000000E-01      :
          :   Hmax (freq-cutoff)         5.0000000          :
          :   S6 in model hess.         20.0000000          :
          ...................................................

generating ANC from model Hessian ...
Using Lindh-Hessian (1995)
 Shifting diagonal of input Hessian by    1.8117349852848592     
 Lowest  eigenvalues of input Hessian
    0.010000    0.750446    0.000000    0.000000    0.000000    0.000000
    0.000000    0.000000    1.814564    1.815939    1.817341    1.821189
    1.821677    1.823358    1.823725    1.826099    1.830829    1.836549
 Highest eigenvalues
    3.955700    4.021575    4.064971    4.213527    4.331032    5.125211


........................................................................
.............................. CYCLE    1 ..............................
........................................................................

 iter      E             dE          RMSdq      gap      omega  full diag
   1    -42.7765028 -0.427765E+02  0.540E-05    3.24       0.0  T
   2    -42.7765028 -0.643041E-11  0.289E-05    3.24     692.1  T
   3    -42.7765028  0.881073E-12  0.138E-05    3.24    1448.6  T
     SCC iter.                  ...        0 min,  0.005 sec
     gradient                   ...        0 min,  0.013 sec
 * total energy  :   -31.5013627 Eh     change       -0.6633627E-10 Eh
   gradient norm :     6.5555974 Eh/α   predicted     0.0000000E+00 (-100.00%)
   displ. norm   :     0.6994993 α      lambda       -0.4572970E+01
   maximum displ.:     0.6566282 α      in ANC's #69, #68, #48, ...

........................................................................
.............................. CYCLE    2 ..............................
........................................................................

 iter      E             dE          RMSdq      gap      omega  full diag
   1    -42.6665493 -0.426665E+02  0.119E+00    2.49       0.0  T
   2    -42.6771200 -0.105707E-01  0.779E-01    2.90       1.0  T
   3    -42.6825152 -0.539516E-02  0.360E-01    2.84       1.0  T
   4    -42.6826377 -0.122584E-03  0.150E-01    2.81       1.0  T
   5    -42.6829304 -0.292677E-03  0.376E-02    2.85       1.0  T
   6    -42.6829360 -0.562228E-05  0.219E-02    2.84       1.0  T
   7    -42.6829384 -0.234858E-05  0.670E-03    2.84       3.0  T
   8    -42.6829390 -0.633649E-06  0.277E-03    2.84       7.2  T
   9    -42.6829391 -0.417722E-07  0.140E-03    2.84      14.3  T
  10    -42.6829391 -0.627058E-08  0.533E-04    2.84      37.5  T
  11    -42.6829391 -0.338453E-08  0.182E-04    2.84     109.7  T
     SCC iter.                  ...        0 min,  0.015 sec
     gradient                   ...        0 min,  0.013 sec
 * total energy  :   -35.4527051 Eh     change       -0.3951342E+01 Eh
   gradient norm :     4.7650464 Eh/α   predicted    -0.3405957E+01 ( -13.80%)
   displ. norm   :     0.7734564 α      lambda       -0.3672925E+01
   maximum displ.:     0.7165031 α      in ANC's #69, #50, #60, ...

........................................................................
.............................. CYCLE    3 ..............................
........................................................................

 iter      E             dE          RMSdq      gap      omega  full diag
   1    -42.3761468 -0.423761E+02  0.184E+00    1.87       0.0  T
   2    -42.3632802  0.128667E-01  0.183E+00    2.03       1.0  T
   3    -42.4559378 -0.926576E-01  0.588E-01    2.07       1.0  T
   4    -42.4553249  0.612874E-03  0.231E-01    2.06       1.0  T
   5    -42.4561653 -0.840423E-03  0.884E-02    2.04       1.0  T
   6    -42.4563096 -0.144305E-03  0.528E-02    2.08       1.0  T
   7    -42.4563672 -0.575483E-04  0.202E-02    2.07       1.0  T
   8    -42.4563707 -0.355504E-05  0.627E-03    2.07       3.2  T
   9    -42.4563709 -0.149633E-06  0.273E-03    2.07       7.3  T
  10    -42.4563709 -0.560360E-07  0.115E-03    2.07      17.5  T
  11    -42.4563709 -0.114350E-07  0.509E-04    2.07      39.3  T
  12    -42.4563709 -0.185669E-08  0.217E-04    2.07      92.3  T
     SCC iter.                  ...        0 min,  0.016 sec
     gradient                   ...        0 min,  0.013 sec
 * total energy  :   -38.3941683 Eh     change       -0.2941463E+01 Eh
   gradient norm :     2.9380443 Eh/α   predicted    -0.2935099E+01 (  -0.22%)
   displ. norm   :     0.7443409 α      lambda       -0.2163169E+01
   maximum displ.:     0.5848815 α      in ANC's #69, #50, #60, ...

........................................................................
.............................. CYCLE    4 ..............................
........................................................................

 iter      E             dE          RMSdq      gap      omega  full diag
   1    -42.2089112 -0.422089E+02  0.199E+00    1.76       0.0  T
   2    -41.9080436  0.300868E+00  0.284E+00    0.57       1.0  T
   3    -42.2148458 -0.306802E+00  0.144E+00    1.69       1.0  T
   4    -42.2637658 -0.489200E-01  0.648E-01    1.28       1.0  T
   5    -42.2749435 -0.111777E-01  0.132E-01    1.11       1.0  T
   6    -42.2750960 -0.152578E-03  0.828E-02    1.11       1.0  T
   7    -42.2751262 -0.301398E-04  0.402E-02    1.09       1.0  T
   8    -42.2751685 -0.423254E-04  0.130E-02    1.11       1.5  T
   9    -42.2751728 -0.425895E-05  0.433E-03    1.11       4.6  T
  10    -42.2751725  0.231546E-06  0.327E-03    1.11       6.1  T
  11    -42.2751729 -0.387691E-06  0.110E-03    1.11      18.2  T
  12    -42.2751729 -0.242653E-07  0.560E-04    1.11      35.7  T
  13    -42.2751730 -0.816950E-08  0.168E-04    1.11     119.2  T
     SCC iter.                  ...        0 min,  0.018 sec
     gradient                   ...        0 min,  0.013 sec
 * total energy  :   -40.1834823 Eh     change       -0.1789314E+01 Eh
   gradient norm :     1.9360927 Eh/α   predicted    -0.1680887E+01 (  -6.06%)
   displ. norm   :     0.7381965 α      lambda       -0.1421721E+01
   maximum displ.:     0.5333066 α      in ANC's #69, #60, #50, ...

........................................................................
.............................. CYCLE    5 ..............................
........................................................................

 iter      E             dE          RMSdq      gap      omega  full diag
   1    -42.1570455 -0.421570E+02  0.149E+00    0.57       0.0  T
   2    -42.1419666  0.150789E-01  0.119E+00    0.44       1.0  T
   3    -42.1189854  0.229812E-01  0.119E+00    1.11       1.0  T
   4    -42.1482348 -0.292495E-01  0.912E-01    0.28       1.0  T
   5    -42.1730211 -0.247862E-01  0.300E-01    0.70       1.0  T
   6    -42.1757775 -0.275640E-02  0.939E-02    0.58       1.0  T
   7    -42.1758635 -0.860639E-04  0.459E-02    0.58       1.0  T
   8    -42.1759016 -0.381070E-04  0.198E-02    0.59       1.0  T
   9    -42.1759050 -0.335474E-05  0.919E-03    0.59       2.2  T
  10    -42.1759066 -0.164204E-05  0.187E-03    0.59      10.7  T
  11    -42.1759067 -0.157717E-07  0.109E-03    0.59      18.4  T
  12    -42.1759067 -0.765053E-08  0.581E-04    0.59      34.4  T
  13    -42.1759067 -0.112031E-07  0.152E-04    0.59     131.3  T
     SCC iter.                  ...        0 min,  0.018 sec
     gradient                   ...        0 min,  0.013 sec
 * total energy  :   -41.2539022 Eh     change       -0.1070420E+01 Eh
   gradient norm :     0.9597957 Eh/α   predicted    -0.1098233E+01 (   2.60%)
   displ. norm   :     0.5334575 α      lambda       -0.5077188E+00
   maximum displ.:     0.3809515 α      in ANC's #69, #60, #41, ...

........................................................................
.............................. CYCLE    6 ..............................
........................................................................

 iter      E             dE          RMSdq      gap      omega  full diag
   1    -42.0815910 -0.420816E+02  0.147E+00    0.06       0.0  T
   2    -41.9289316  0.152659E+00  0.233E+00    1.51       1.0  T
   3    -42.1237776 -0.194846E+00  0.534E-01    0.32       1.0  T
   4    -42.1230262  0.751425E-03  0.417E-01    0.49       1.0  T
   5    -42.1235018 -0.475651E-03  0.379E-01    0.28       1.0  T
   6    -42.1292743 -0.577249E-02  0.828E-02    0.43       1.0  T
   7    -42.1294245 -0.150193E-03  0.338E-02    0.41       1.0  T
   8    -42.1294325 -0.797074E-05  0.184E-02    0.41       1.1  T
   9    -42.1294401 -0.763201E-05  0.401E-03    0.41       5.0  T
  10    -42.1294403 -0.169776E-06  0.214E-03    0.41       9.4  T
  11    -42.1294403 -0.356319E-07  0.905E-04    0.41      22.1  T
  12    -42.1294403 -0.185877E-07  0.355E-04    0.41      56.3  T
     SCC iter.                  ...        0 min,  0.016 sec
     gradient                   ...        0 min,  0.013 sec
 * total energy  :   -41.5609029 Eh     change       -0.3070007E+00 Eh
   gradient norm :     0.3254036 Eh/α   predicted    -0.3261023E+00 (   6.22%)
   displ. norm   :     0.2075786 α      lambda       -0.6065885E-01
   maximum displ.:     0.0747171 α      in ANC's #69, #8, #40, ...

........................................................................
.............................. CYCLE    7 ..............................
........................................................................

 iter      E             dE          RMSdq      gap      omega  full diag
   1    -42.1339871 -0.421340E+02  0.313E-01    0.31       0.0  T
   2    -42.1233461  0.106410E-01  0.559E-01    0.58       1.0  T
   3    -42.1329739 -0.962783E-02  0.293E-01    0.28       1.0  T
   4    -42.1353761 -0.240221E-02  0.987E-02    0.36       1.0  T
   5    -42.1354475 -0.713606E-04  0.485E-02    0.36       1.0  T
   6    -42.1355064 -0.589546E-04  0.210E-02    0.37       1.0  T
   7    -42.1355185 -0.120871E-04  0.134E-02    0.36       1.5  T
   8    -42.1355223 -0.380715E-05  0.360E-03    0.37       5.6  T
   9    -42.1355225 -0.133618E-06  0.136E-03    0.37      14.7  T
  10    -42.1355225 -0.306530E-07  0.625E-04    0.37      32.0  T
  11    -42.1355225 -0.136252E-08  0.282E-04    0.36      70.9  T
     SCC iter.                  ...        0 min,  0.015 sec
     gradient                   ...        0 min,  0.013 sec
 * total energy  :   -41.6076942 Eh     change       -0.4679132E-01 Eh
   gradient norm :     0.2818962 Eh/α   predicted    -0.3164512E-01 ( -32.37%)
   displ. norm   :     0.3518774 α      lambda       -0.7795851E-01
   maximum displ.:     0.1153378 α      in ANC's #16, #8, #17, ...

........................................................................
.............................. CYCLE    8 ..............................
........................................................................

 iter      E             dE          RMSdq      gap      omega  full diag
   1    -42.1583004 -0.421583E+02  0.532E-01    0.33       0.0  T
   2    -42.1485168  0.978360E-02  0.710E-01    0.18       1.0  T
   3    -42.1501566 -0.163984E-02  0.604E-01    0.51       1.0  T
   4    -42.1579246 -0.776802E-02  0.310E-01    0.22       1.0  T
   5    -42.1611151 -0.319044E-02  0.129E-01    0.34       1.0  T
   6    -42.1616121 -0.497032E-03  0.455E-02    0.32       1.0  T
   7    -42.1616541 -0.420369E-04  0.233E-02    0.31       1.0  T
   8    -42.1616635 -0.936331E-05  0.635E-03    0.31       3.2  T
   9    -42.1616649 -0.140159E-05  0.265E-03    0.31       7.5  T
  10    -42.1616650 -0.105071E-06  0.111E-03    0.31      18.1  T
  11    -42.1616650 -0.190832E-07  0.386E-04    0.31      51.9  T
  12    -42.1616650 -0.221565E-08  0.130E-04    0.31     153.5  T
     SCC iter.                  ...        0 min,  0.016 sec
     gradient                   ...        0 min,  0.013 sec
 * total energy  :   -41.6666358 Eh     change       -0.5894161E-01 Eh
   gradient norm :     0.2559551 Eh/α   predicted    -0.4380775E-01 ( -25.68%)
   displ. norm   :     0.3929729 α      lambda       -0.6522042E-01
   maximum displ.:     0.1374730 α      in ANC's #16, #17, #8, ...

........................................................................
.............................. CYCLE    9 ..............................
........................................................................

 iter      E             dE          RMSdq      gap      omega  full diag
   1    -42.1852701 -0.421853E+02  0.569E-01    0.28       0.0  T
   2    -42.1654381  0.198320E-01  0.919E-01    0.07       1.0  T
   3    -42.1747285 -0.929038E-02  0.684E-01    0.47       1.0  T
   4    -42.1864530 -0.117246E-01  0.293E-01    0.17       1.0  T
   5    -42.1890913 -0.263826E-02  0.112E-01    0.27       1.0  T
   6    -42.1893494 -0.258157E-03  0.537E-02    0.27       1.0  T
   7    -42.1894157 -0.663021E-04  0.248E-02    0.26       1.0  T
   8    -42.1894291 -0.133812E-04  0.661E-03    0.25       3.0  T
   9    -42.1894306 -0.145441E-05  0.279E-03    0.25       7.2  T
  10    -42.1894306 -0.134561E-07  0.181E-03    0.25      11.1  T
  11    -42.1894307 -0.107229E-06  0.294E-04    0.25      68.0  T
  12    -42.1894307 -0.417010E-09  0.110E-04    0.25     181.3  T
     SCC iter.                  ...        0 min,  0.016 sec
     gradient                   ...        0 min,  0.013 sec
 * total energy  :   -41.7140373 Eh     change       -0.4740145E-01 Eh
   gradient norm :     0.2043667 Eh/α   predicted    -0.3764610E-01 ( -20.58%)
   displ. norm   :     0.3304167 α      lambda       -0.3699208E-01
   maximum displ.:     0.1204310 α      in ANC's #16, #17, #8, ...

........................................................................
.............................. CYCLE   10 ..............................
........................................................................

 iter      E             dE          RMSdq      gap      omega  full diag
   1    -42.2060630 -0.422061E+02  0.410E-01    0.20       0.0  T
   2    -42.2054805  0.582513E-03  0.321E-01    0.20       1.0  T
   3    -42.2063182 -0.837735E-03  0.247E-01    0.24       1.0  T
   4    -42.1968477  0.947047E-02  0.546E-01    0.04       1.0  T
   5    -42.2073929 -0.105452E-01  0.756E-02    0.22       1.0  T
   6    -42.2075249 -0.131995E-03  0.300E-02    0.21       1.0  T
   7    -42.2075408 -0.159067E-04  0.154E-02    0.21       1.3  T
   8    -42.2075463 -0.545832E-05  0.525E-03    0.20       3.8  T
   9    -42.2075470 -0.771602E-06  0.150E-03    0.20      13.4  T
  10    -42.2075470 -0.214744E-08  0.961E-04    0.20      20.8  T
  11    -42.2075471 -0.230382E-07  0.266E-04    0.20      75.1  T
     SCC iter.                  ...        0 min,  0.015 sec
     gradient                   ...        0 min,  0.013 sec
 * total energy  :   -41.7400205 Eh     change       -0.2598324E-01 Eh
   gradient norm :     0.1886583 Eh/α   predicted    -0.2051535E-01 ( -21.04%)
   displ. norm   :     0.2656233 α      lambda       -0.2320881E-01
   maximum displ.:     0.0989012 α      in ANC's #16, #17, #36, ...

........................................................................
.............................. CYCLE   11 ..............................
........................................................................

 iter      E             dE          RMSdq      gap      omega  full diag
   1    -42.2205722 -0.422206E+02  0.298E-01    0.19       0.0  T
   2    -42.2207597 -0.187502E-03  0.186E-01    0.18       1.0  T
   3    -42.2203924  0.367272E-03  0.159E-01    0.21       1.0  T
   4    -42.2171655  0.322690E-02  0.332E-01    0.09       1.0  T
   5    -42.2208113 -0.364579E-02  0.667E-02    0.20       1.0  T
   6    -42.2209546 -0.143329E-03  0.130E-02    0.19       1.5  T
   7    -42.2209568 -0.214050E-05  0.867E-03    0.19       2.3  T
   8    -42.2209581 -0.129817E-05  0.293E-03    0.18       6.8  T
   9    -42.2209583 -0.182773E-06  0.890E-04    0.18      22.5  T
  10    -42.2209583 -0.135872E-07  0.411E-04    0.18      48.6  T
     SCC iter.                  ...        0 min,  0.014 sec
     gradient                   ...        0 min,  0.013 sec
 * total energy  :   -41.7581566 Eh     change       -0.1813606E-01 Eh
   gradient norm :     0.1931776 Eh/α   predicted    -0.1242329E-01 ( -31.50%)
   displ. norm   :     0.3303178 α      lambda       -0.3153756E-01
   maximum displ.:     0.1243621 α      in ANC's #16, #17, #36, ...

........................................................................
.............................. CYCLE   12 ..............................
........................................................................

 iter      E             dE          RMSdq      gap      omega  full diag
   1    -42.2376417 -0.422376E+02  0.472E-01    0.26       0.0  T
   2    -42.1992770  0.383646E-01  0.109E+00    0.12       1.0  T
   3    -42.2325153 -0.332383E-01  0.536E-01    0.34       1.0  T
   4    -42.2401284 -0.761317E-02  0.159E-01    0.22       1.0  T
   5    -42.2404690 -0.340577E-03  0.528E-02    0.20       1.0  T
   6    -42.2405356 -0.666230E-04  0.174E-02    0.19       1.2  T
   7    -42.2405455 -0.987248E-05  0.737E-03    0.19       2.7  T
   8    -42.2405461 -0.620796E-06  0.338E-03    0.19       5.9  T
   9    -42.2405463 -0.201724E-06  0.826E-04    0.19      24.2  T
  10    -42.2405463 -0.483195E-08  0.434E-04    0.19      46.1  T
     SCC iter.                  ...        0 min,  0.014 sec
     gradient                   ...        0 min,  0.012 sec
 * total energy  :   -41.7814073 Eh     change       -0.2325078E-01 Eh
   gradient norm :     0.1657016 Eh/α   predicted    -0.1748932E-01 ( -24.78%)
   displ. norm   :     0.2692375 α      lambda       -0.2244746E-01
   maximum displ.:     0.0929162 α      in ANC's #16, #17, #12, ...

........................................................................
.............................. CYCLE   13 ..............................
........................................................................

 iter      E             dE          RMSdq      gap      omega  full diag
   1    -42.2514532 -0.422515E+02  0.593E-01    0.37       0.0  T
   2    -42.0964344  0.155019E+00  0.213E+00    0.34       1.0  T
   3    -42.2543443 -0.157910E+00  0.448E-01    0.35       1.0  T
   4    -42.2590679 -0.472360E-02  0.180E-01    0.28       1.0  T
   5    -42.2597578 -0.689931E-03  0.367E-02    0.23       1.0  T
   6    -42.2597745 -0.166481E-04  0.131E-02    0.23       1.5  T
   7    -42.2597751 -0.611277E-06  0.100E-02    0.23       2.0  T
   8    -42.2597770 -0.197373E-05  0.470E-03    0.24       4.3  T
   9    -42.2597778 -0.763019E-06  0.126E-03    0.24      15.8  T
  10    -42.2597778 -0.158007E-07  0.574E-04    0.24      34.8  T
  11    -42.2597778 -0.406738E-08  0.217E-04    0.24      92.1  T
     SCC iter.                  ...        0 min,  0.015 sec
     gradient                   ...        0 min,  0.012 sec
 * total energy  :   -41.7959793 Eh     change       -0.1457193E-01 Eh
   gradient norm :     0.1209033 Eh/α   predicted    -0.1203766E-01 ( -17.39%)
   displ. norm   :     0.1438255 α      lambda       -0.8940832E-02
   maximum displ.:     0.0692505 α      in ANC's #1, #12, #41, ...

........................................................................
.............................. CYCLE   14 ..............................
........................................................................

 iter      E             dE          RMSdq      gap      omega  full diag
   1    -42.2725462 -0.422725E+02  0.345E-01    0.34       0.0  T
   2    -42.1924474  0.800987E-01  0.152E+00    0.15       1.0  T
   3    -42.2746172 -0.821698E-01  0.192E-01    0.31       1.0  T
   4    -42.2754282 -0.810928E-03  0.781E-02    0.27       1.0  T
   5    -42.2754958 -0.676149E-04  0.479E-02    0.26       1.0  T
   6    -42.2755594 -0.636578E-04  0.136E-02    0.26       1.5  T
   7    -42.2755628 -0.339427E-05  0.681E-03    0.26       2.9  T
   8    -42.2755638 -0.941694E-06  0.283E-03    0.26       7.1  T
   9    -42.2755640 -0.187844E-06  0.553E-04    0.26      36.2  T
  10    -42.2755640 -0.167368E-08  0.265E-04    0.26      75.4  T
     SCC iter.                  ...        0 min,  0.014 sec
     gradient                   ...        0 min,  0.012 sec
 * total energy  :   -41.8027733 Eh     change       -0.6794069E-02 Eh
   gradient norm :     0.1067619 Eh/α   predicted    -0.4562982E-02 ( -32.84%)
   displ. norm   :     0.1706795 α      lambda       -0.1120446E-01
   maximum displ.:     0.0709894 α      in ANC's #12, #41, #22, ...

........................................................................
.............................. CYCLE   15 ..............................
........................................................................

 iter      E             dE          RMSdq      gap      omega  full diag
   1    -42.2981027 -0.422981E+02  0.272E-01    0.31       0.0  T
   2    -42.2804896  0.176131E-01  0.721E-01    0.09       1.0  T
   3    -42.2959156 -0.154260E-01  0.324E-01    0.37       1.0  T
   4    -42.2987708 -0.285523E-02  0.104E-01    0.29       1.0  T
   5    -42.2989556 -0.184787E-03  0.541E-02    0.27       1.0  T
   6    -42.2990339 -0.783364E-04  0.139E-02    0.27       1.4  T
   7    -42.2990354 -0.148969E-05  0.987E-03    0.27       2.0  T
   8    -42.2990379 -0.243891E-05  0.220E-03    0.28       9.1  T
   9    -42.2990380 -0.115515E-06  0.629E-04    0.28      31.8  T
  10    -42.2990380 -0.528372E-08  0.259E-04    0.28      77.1  T
     SCC iter.                  ...        0 min,  0.014 sec
     gradient                   ...        0 min,  0.012 sec
 * total energy  :   -41.8103713 Eh     change       -0.7597935E-02 Eh
   gradient norm :     0.1182406 Eh/α   predicted    -0.5765522E-02 ( -24.12%)
   displ. norm   :     0.2184002 α      lambda       -0.7928045E-02
   maximum displ.:     0.1531709 α      in ANC's #1, #12, #41, ...

........................................................................
.............................. CYCLE   16 ..............................
........................................................................

 iter      E             dE          RMSdq      gap      omega  full diag
   1    -42.3179662 -0.423180E+02  0.275E-01    0.23       0.0  T
   2    -42.2964699  0.214963E-01  0.813E-01    0.53       1.0  T
   3    -42.3188351 -0.223652E-01  0.133E-01    0.27       1.0  T
   4    -42.3187718  0.633158E-04  0.821E-02    0.27       1.0  T
   5    -42.3188761 -0.104335E-03  0.454E-02    0.27       1.0  T
   6    -42.3189468 -0.706932E-04  0.109E-02    0.28       1.8  T
   7    -42.3189486 -0.182586E-05  0.438E-03    0.28       4.6  T
   8    -42.3189488 -0.171480E-06  0.143E-03    0.28      14.0  T
   9    -42.3189488 -0.382812E-07  0.510E-04    0.28      39.2  T
  10    -42.3189488 -0.130383E-08  0.238E-04    0.28      84.2  T
     SCC iter.                  ...        0 min,  0.014 sec
     gradient                   ...        0 min,  0.012 sec
 * total energy  :   -41.8160095 Eh     change       -0.5638205E-02 Eh
   gradient norm :     0.1283158 Eh/α   predicted    -0.4153280E-02 ( -26.34%)
   displ. norm   :     0.3625767 α      lambda       -0.1321005E-01
   maximum displ.:     0.2424048 α      in ANC's #1, #12, #41, ...

........................................................................
.............................. CYCLE   17 ..............................
........................................................................

 iter      E             dE          RMSdq      gap      omega  full diag
   1    -42.3280044 -0.423280E+02  0.711E-01    0.12       0.0  T
   2    -42.1475706  0.180434E+00  0.237E+00    1.33       1.0  T
   3    -42.3376417 -0.190071E+00  0.424E-01    0.37       1.0  T
   4    -42.3315539  0.608785E-02  0.548E-01    0.15       1.0  T
   5    -42.3422276 -0.106737E-01  0.114E-01    0.24       1.0  T
   6    -42.3424397 -0.212082E-03  0.737E-02    0.29       1.0  T
   7    -42.3426299 -0.190208E-03  0.116E-02    0.27       1.7  T
   8    -42.3426336 -0.369065E-05  0.371E-03    0.27       5.4  T
   9    -42.3426335  0.965002E-07  0.289E-03    0.27       6.9  T
  10    -42.3426337 -0.254934E-06  0.597E-04    0.27      33.5  T
  11    -42.3426337 -0.573890E-08  0.217E-04    0.27      92.3  T
     SCC iter.                  ...        0 min,  0.015 sec
     gradient                   ...        0 min,  0.012 sec
 * total energy  :   -41.8234835 Eh     change       -0.7474008E-02 Eh
   gradient norm :     0.1374357 Eh/α   predicted    -0.7474754E-02 (   0.01%)
   displ. norm   :     0.2624842 α      lambda       -0.1132287E-01
   maximum displ.:     0.1830076 α      in ANC's #1, #12, #36, ...

........................................................................
.............................. CYCLE   18 ..............................
........................................................................

 iter      E             dE          RMSdq      gap      omega  full diag
   1    -42.3400836 -0.423401E+02  0.547E-01    0.15       0.0  T
   2    -42.1977922  0.142291E+00  0.207E+00    1.02       1.0  T
   3    -42.3473775 -0.149585E+00  0.214E-01    0.28       1.0  T
   4    -42.3475390 -0.161585E-03  0.164E-01    0.25       1.0  T
   5    -42.3481084 -0.569317E-03  0.869E-02    0.24       1.0  T
   6    -42.3483125 -0.204128E-03  0.160E-02    0.25       1.2  T
   7    -42.3483133 -0.763684E-06  0.120E-02    0.26       1.7  T
   8    -42.3483171 -0.382307E-05  0.182E-03    0.25      11.0  T
   9    -42.3483171 -0.130343E-07  0.922E-04    0.25      21.7  T
  10    -42.3483171 -0.100267E-07  0.340E-04    0.25      58.8  T
     SCC iter.                  ...        0 min,  0.014 sec
     gradient                   ...        0 min,  0.012 sec
 * total energy  :   -41.8310624 Eh     change       -0.7578866E-02 Eh
   gradient norm :     0.1009065 Eh/α   predicted    -0.6052111E-02 ( -20.14%)
   displ. norm   :     0.1838436 α      lambda       -0.8340964E-02
   maximum displ.:     0.0866762 α      in ANC's #12, #1, #36, ...

........................................................................
.............................. CYCLE   19 ..............................
........................................................................

 iter      E             dE          RMSdq      gap      omega  full diag
   1    -42.3434157 -0.423434E+02  0.347E-01    0.20       0.0  T
   2    -42.2721972  0.712185E-01  0.146E+00    0.68       1.0  T
   3    -42.3461116 -0.739143E-01  0.149E-01    0.24       1.0  T
   4    -42.3461440 -0.324595E-04  0.120E-01    0.27       1.0  T
   5    -42.3464215 -0.277453E-03  0.455E-02    0.25       1.0  T
   6    -42.3464659 -0.444058E-04  0.131E-02    0.25       1.5  T
   7    -42.3464684 -0.250586E-05  0.848E-03    0.25       2.4  T
   8    -42.3464703 -0.185017E-05  0.234E-03    0.25       8.6  T
   9    -42.3464704 -0.118989E-06  0.670E-04    0.25      29.9  T
  10    -42.3464704 -0.138164E-08  0.332E-04    0.25      60.2  T
     SCC iter.                  ...        0 min,  0.014 sec
     gradient                   ...        0 min,  0.012 sec
 * total energy  :   -41.8372661 Eh     change       -0.6203774E-02 Eh
   gradient norm :     0.1101335 Eh/α   predicted    -0.4311597E-02 ( -30.50%)
   displ. norm   :     0.2892845 α      lambda       -0.1077291E-01
   maximum displ.:     0.1609804 α      in ANC's #12, #36, #6, ...

........................................................................
.............................. CYCLE   20 ..............................
........................................................................

 iter      E             dE          RMSdq      gap      omega  full diag
   1    -42.3444417 -0.423444E+02  0.515E-01    0.18       0.0  T
   2    -42.2294219  0.115020E+00  0.185E+00    0.83       1.0  T
   3    -42.3496980 -0.120276E+00  0.215E-01    0.23       1.0  T
   4    -42.3492608  0.437187E-03  0.199E-01    0.28       1.0  T
   5    -42.3501291 -0.868292E-03  0.743E-02    0.24       1.0  T
   6    -42.3502568 -0.127687E-03  0.239E-02    0.25       1.0  T
   7    -42.3502684 -0.116289E-04  0.117E-02    0.26       1.7  T
   8    -42.3502723 -0.390775E-05  0.196E-03    0.25      10.2  T
   9    -42.3502723  0.861228E-09  0.118E-03    0.25      17.0  T
  10    -42.3502723 -0.910655E-08  0.706E-04    0.25      28.3  T
  11    -42.3502723 -0.882662E-08  0.352E-04    0.25      56.8  T
     SCC iter.                  ...        0 min,  0.015 sec
     gradient                   ...        0 min,  0.012 sec
 * total energy  :   -41.8460089 Eh     change       -0.8742757E-02 Eh
   gradient norm :     0.1398780 Eh/α   predicted    -0.5837234E-02 ( -33.23%)
   displ. norm   :     0.4169105 α      lambda       -0.1862098E-01
   maximum displ.:     0.2364307 α      in ANC's #12, #52, #50, ...
 * RMSD in coord.:     0.9508344 α      energy gain  -0.1034465E+02 Eh

generating ANC from model Hessian ...
Using Lindh-Hessian (1995)
 Shifting diagonal of input Hessian by    1.1631536213987055E-002
 Lowest  eigenvalues of input Hessian
    0.010000    0.000000    0.000000    0.000000    0.000000    0.000000
    0.000000    0.011852    0.012016    0.012504    0.013586    0.013751
    0.015765    0.017321    0.018436    0.019823    0.022731    0.023934
 Highest eigenvalues
    2.083378    2.102986    2.126755    2.223424    2.301599    3.235129


........................................................................
.............................. CYCLE   21 ..............................
........................................................................

 iter      E             dE          RMSdq      gap      omega  full diag
   1    -42.3433371 -0.423433E+02  0.731E-01    0.18       0.0  T
   2    -42.2158975  0.127440E+00  0.191E+00    0.89       1.0  T
   3    -42.3448519 -0.128954E+00  0.532E-01    0.14       1.0  T
   4    -42.3500286 -0.517665E-02  0.292E-01    0.29       1.0  T
   5    -42.3518295 -0.180094E-02  0.112E-01    0.25       1.0  T
   6    -42.3520203 -0.190743E-03  0.573E-02    0.25       1.0  T
   7    -42.3521249 -0.104599E-03  0.122E-02    0.26       1.6  T
   8    -42.3521262 -0.131131E-05  0.548E-03    0.27       3.6  T
   9    -42.3521264 -0.243924E-06  0.421E-03    0.26       4.7  T
  10    -42.3521269 -0.482210E-06  0.169E-03    0.26      11.8  T
  11    -42.3521269 -0.281093E-07  0.124E-03    0.26      16.2  T
  12    -42.3521270 -0.596206E-07  0.118E-04    0.26     169.8  T
  13    -42.3521270 -0.138904E-09  0.641E-05    0.26     312.1  T
     SCC iter.                  ...        0 min,  0.018 sec
     gradient                   ...        0 min,  0.012 sec
 * total energy  :   -41.8604542 Eh     change       -0.1444533E-01 Eh
   gradient norm :     0.1709434 Eh/α   predicted     0.0000000E+00 (-100.00%)
   displ. norm   :     0.5313461 α      lambda       -0.4713325E-01
   maximum displ.:     0.2820770 α      in ANC's #19, #27, #20, ...

........................................................................
.............................. CYCLE   22 ..............................
........................................................................

 iter      E             dE          RMSdq      gap      omega  full diag
   1    -42.3827001 -0.423827E+02  0.116E+00    0.29       0.0  T
   2    -42.3717954  0.109047E-01  0.865E-01    0.13       1.0  T
   3    -42.2595327  0.112263E+00  0.169E+00    0.99       1.0  T
   4    -42.3806456 -0.121113E+00  0.279E-01    0.32       1.0  T
   5    -42.3837269 -0.308131E-02  0.104E-01    0.29       1.0  T
   6    -42.3840308 -0.303966E-03  0.399E-02    0.26       1.0  T
   7    -42.3840445 -0.136824E-04  0.311E-02    0.26       1.0  T
   8    -42.3840687 -0.241710E-04  0.964E-03    0.27       2.1  T
   9    -42.3840699 -0.123403E-05  0.229E-03    0.27       8.7  T
  10    -42.3840700 -0.234084E-07  0.147E-03    0.27      13.6  T
  11    -42.3840700 -0.532648E-07  0.504E-04    0.27      39.7  T
  12    -42.3840700 -0.298110E-08  0.190E-04    0.27     105.2  T
     SCC iter.                  ...        0 min,  0.016 sec
     gradient                   ...        0 min,  0.012 sec
 * total energy  :   -41.9041246 Eh     change       -0.4367043E-01 Eh
   gradient norm :     0.1241248 Eh/α   predicted    -0.3022017E-01 ( -30.80%)
   displ. norm   :     0.8853455 α      lambda       -0.8729226E-01
   maximum displ.:     0.3765388 α      in ANC's #27, #19, #40, ...

........................................................................
.............................. CYCLE   23 ..............................
........................................................................

 iter      E             dE          RMSdq      gap      omega  full diag
   1    -42.3181524 -0.423182E+02  0.223E+00    0.91       0.0  T
   2    -40.4954367  0.182272E+01  0.699E+00    0.74       1.0  T
   3    -42.4101529 -0.191472E+01  0.107E+00    0.39       1.0  T
   4    -42.4111443 -0.991396E-03  0.694E-01    0.42       1.0  T
   5    -42.4168597 -0.571541E-02  0.382E-01    0.28       1.0  T
   6    -42.4181735 -0.131380E-02  0.265E-01    0.36       1.0  T
   7    -42.4198409 -0.166737E-02  0.687E-02    0.32       1.0  T
   8    -42.4198667 -0.258759E-04  0.307E-02    0.32       1.0  T
   9    -42.4198835 -0.168138E-04  0.135E-02    0.31       1.5  T
  10    -42.4198840 -0.419275E-06  0.445E-03    0.31       4.5  T
  11    -42.4198840 -0.760367E-07  0.158E-03    0.31      12.6  T
  12    -42.4198841 -0.642984E-07  0.957E-04    0.31      20.9  T
  13    -42.4198841 -0.134330E-07  0.218E-04    0.31      91.7  T
     SCC iter.                  ...        0 min,  0.018 sec
     gradient                   ...        0 min,  0.012 sec
 * total energy  :   -41.9578818 Eh     change       -0.5375711E-01 Eh
   gradient norm :     0.2055435 Eh/α   predicted    -0.7785757E-01 (  44.83%)
   displ. norm   :     0.4784205 α      lambda       -0.3573706E-01
   maximum displ.:     0.2183406 α      in ANC's #3, #14, #19, ...

........................................................................
.............................. CYCLE   24 ..............................
........................................................................

 iter      E             dE          RMSdq      gap      omega  full diag
   1    -42.3852192 -0.423852E+02  0.146E+00    1.07       0.0  T
   2    -41.7972798  0.587939E+00  0.400E+00    0.30       1.0  T
   3    -42.4617262 -0.664446E+00  0.421E-01    0.36       1.0  T
   4    -42.4614443  0.281869E-03  0.385E-01    0.29       1.0  T
   5    -42.4622539 -0.809611E-03  0.296E-01    0.27       1.0  T
   6    -42.4637296 -0.147570E-02  0.100E-01    0.36       1.0  T
   7    -42.4638918 -0.162253E-03  0.556E-02    0.35       1.0  T
   8    -42.4639103 -0.184544E-04  0.338E-02    0.35       1.0  T
   9    -42.4639113 -0.997102E-06  0.161E-02    0.35       1.2  T
  10    -42.4639161 -0.476798E-05  0.220E-03    0.34       9.1  T
  11    -42.4639159  0.199472E-06  0.296E-03    0.34       6.8  T
  12    -42.4639161 -0.213132E-06  0.355E-04    0.34      56.4  T
  13    -42.4639161 -0.134037E-08  0.343E-04    0.34      58.3  T
     SCC iter.                  ...        0 min,  0.018 sec
     gradient                   ...        0 min,  0.012 sec
 * total energy  :   -41.9518971 Eh     change        0.5984676E-02 Eh
   gradient norm :     0.2902255 Eh/α   predicted    -0.2195843E-01 (-466.91%)
   displ. norm   :     0.3939984 α      lambda       -0.5244287E-01
   maximum displ.:     0.2398884 α      in ANC's #19, #20, #3, ...

........................................................................
.............................. CYCLE   25 ..............................
........................................................................

 iter      E             dE          RMSdq      gap      omega  full diag
   1    -42.4365348 -0.424365E+02  0.935E-01    0.11       0.0  T
   2    -42.3046991  0.131836E+00  0.218E+00    1.76       1.0  T
   3    -42.4479701 -0.143271E+00  0.844E-01    0.65       1.0  T
   4    -42.4682410 -0.202708E-01  0.225E-01    0.36       1.0  T
   5    -42.4642058  0.403517E-02  0.319E-01    0.27       1.0  T
   6    -42.4679678 -0.376198E-02  0.109E-01    0.40       1.0  T
   7    -42.4684355 -0.467719E-03  0.204E-02    0.37       1.0  T
   8    -42.4683752  0.602917E-04  0.431E-02    0.35       1.0  T
   9    -42.4684459 -0.707487E-04  0.460E-03    0.36       4.3  T
  10    -42.4684465 -0.518634E-06  0.264E-03    0.36       7.6  T
  11    -42.4684467 -0.234517E-06  0.462E-04    0.36      43.3  T
  12    -42.4684467  0.184924E-07  0.739E-04    0.36      27.1  T
     SCC iter.                  ...        0 min,  0.016 sec
     gradient                   ...        0 min,  0.012 sec
 * total energy  :   -41.9717275 Eh     change       -0.1983041E-01 Eh
   gradient norm :     0.0978462 Eh/α   predicted    -0.3029199E-01 (  52.76%)
   displ. norm   :     0.3841683 α      lambda       -0.2475321E-01
   maximum displ.:     0.1614882 α      in ANC's #10, #44, #24, ...

........................................................................
.............................. CYCLE   26 ..............................
........................................................................

 iter      E             dE          RMSdq      gap      omega  full diag
   1    -42.4686425 -0.424686E+02  0.630E-01    0.45       0.0  T
   2    -42.4130571  0.555854E-01  0.127E+00    0.07       1.0  T
   3    -42.4660892 -0.530321E-01  0.541E-01    0.55       1.0  T
   4    -42.4729732 -0.688400E-02  0.195E-01    0.38       1.0  T
   5    -42.4727785  0.194715E-03  0.150E-01    0.39       1.0  T
   6    -42.4734511 -0.672684E-03  0.481E-02    0.37       1.0  T
   7    -42.4735020 -0.509100E-04  0.219E-02    0.38       1.0  T
   8    -42.4735174 -0.153699E-04  0.332E-03    0.38       6.0  T
   9    -42.4735175 -0.682151E-07  0.165E-03    0.38      12.1  T
  10    -42.4735175  0.196723E-07  0.129E-03    0.38      15.5  T
  11    -42.4735175 -0.481314E-07  0.435E-04    0.38      46.0  T
  12    -42.4735175 -0.375314E-08  0.153E-04    0.38     130.6  T
     SCC iter.                  ...        0 min,  0.016 sec
     gradient                   ...        0 min,  0.012 sec
 * total energy  :   -41.9720077 Eh     change       -0.2802064E-03 Eh
   gradient norm :     0.1668933 Eh/α   predicted    -0.1420321E-01 (4968.84%)
   displ. norm   :     0.3099358 α      lambda       -0.2825148E-01
   maximum displ.:     0.1898373 α      in ANC's #3, #14, #19, ...

........................................................................
.............................. CYCLE   27 ..............................
........................................................................

 iter      E             dE          RMSdq      gap      omega  full diag
   1    -42.4659997 -0.424660E+02  0.412E-01    0.46       0.0  T
   2    -42.4332352  0.327645E-01  0.975E-01    0.09       1.0  T
   3    -42.4635802 -0.303451E-01  0.426E-01    0.50       1.0  T
   4    -42.4689577 -0.537745E-02  0.133E-01    0.40       1.0  T
   5    -42.4689372  0.205430E-04  0.676E-02    0.37       1.0  T
   6    -42.4690516 -0.114480E-03  0.265E-02    0.38       1.0  T
   7    -42.4690685 -0.168749E-04  0.879E-03    0.38       2.3  T
   8    -42.4690691 -0.637211E-06  0.433E-03    0.38       4.6  T
   9    -42.4690696 -0.457673E-06  0.152E-03    0.38      13.1  T
  10    -42.4690696  0.893444E-09  0.106E-03    0.38      18.9  T
  11    -42.4690696 -0.183915E-07  0.533E-04    0.38      37.5  T
  12    -42.4690696 -0.895560E-08  0.845E-05    0.38     236.6  T
     SCC iter.                  ...        0 min,  0.016 sec
     gradient                   ...        0 min,  0.012 sec
 * total energy  :   -41.9824422 Eh     change       -0.1043447E-01 Eh
   gradient norm :     0.0354734 Eh/α   predicted    -0.1548267E-01 (  48.38%)
   displ. norm   :     0.3511380 α      lambda       -0.5737663E-02
   maximum displ.:     0.1741438 α      in ANC's #14, #10, #3, ...

........................................................................
.............................. CYCLE   28 ..............................
........................................................................

 iter      E             dE          RMSdq      gap      omega  full diag
   1    -42.4689545 -0.424690E+02  0.693E-01    0.69       0.0  T
   2    -42.1078460  0.361109E+00  0.304E+00    0.30       1.0  T
   3    -42.4862574 -0.378411E+00  0.159E-01    0.44       1.0  T
   4    -42.4856377  0.619673E-03  0.186E-01    0.37       1.0  T
   5    -42.4858486 -0.210948E-03  0.157E-01    0.36       1.0  T
   6    -42.4865092 -0.660509E-03  0.648E-02    0.39       1.0  T
   7    -42.4866715 -0.162315E-03  0.153E-02    0.41       1.3  T
   8    -42.4866752 -0.373720E-05  0.107E-02    0.41       1.9  T
   9    -42.4866787 -0.346521E-05  0.281E-03    0.41       7.1  T
  10    -42.4866789 -0.253768E-06  0.506E-04    0.41      39.5  T
  11    -42.4866789  0.254161E-08  0.354E-04    0.41      56.5  T
     SCC iter.                  ...        0 min,  0.015 sec
     gradient                   ...        0 min,  0.012 sec
 * total energy  :   -41.9848310 Eh     change       -0.2388803E-02 Eh
   gradient norm :     0.0414853 Eh/α   predicted    -0.3222559E-02 (  34.90%)
   displ. norm   :     0.4150577 α      lambda       -0.5403677E-02
   maximum displ.:     0.2282058 α      in ANC's #10, #3, #9, ...

........................................................................
.............................. CYCLE   29 ..............................
........................................................................

 iter      E             dE          RMSdq      gap      omega  full diag
   1    -42.4824255 -0.424824E+02  0.392E-01    0.54       0.0  T
   2    -42.4132428  0.691827E-01  0.133E+00    0.04       1.0  T
   3    -42.4826964 -0.694536E-01  0.315E-01    0.54       1.0  T
   4    -42.4849205 -0.222408E-02  0.127E-01    0.47       1.0  T
   5    -42.4854392 -0.518630E-03  0.392E-02    0.45       1.0  T
   6    -42.4854826 -0.434233E-04  0.101E-02    0.44       2.0  T
   7    -42.4854807  0.190812E-05  0.113E-02    0.43       1.8  T
   8    -42.4854842 -0.355926E-05  0.300E-03    0.44       6.7  T
   9    -42.4854845 -0.249878E-06  0.987E-04    0.44      20.3  T
  10    -42.4854845 -0.335121E-07  0.219E-04    0.44      91.2  T
     SCC iter.                  ...        0 min,  0.014 sec
     gradient                   ...        0 min,  0.012 sec
 * total energy  :   -41.9887573 Eh     change       -0.3926382E-02 Eh
   gradient norm :     0.0220004 Eh/α   predicted    -0.3167299E-02 ( -19.33%)
   displ. norm   :     0.4975558 α      lambda       -0.3286878E-02
   maximum displ.:     0.3245007 α      in ANC's #10, #3, #9, ...

........................................................................
.............................. CYCLE   30 ..............................
........................................................................

 iter      E             dE          RMSdq      gap      omega  full diag
   1    -42.4812536 -0.424813E+02  0.412E-01    0.59       0.0  T
   2    -42.3803508  0.100903E+00  0.160E+00    0.02       1.0  T
   3    -42.4831586 -0.102808E+00  0.282E-01    0.55       1.0  T
   4    -42.4852210 -0.206237E-02  0.950E-02    0.49       1.0  T
   5    -42.4854919 -0.270932E-03  0.183E-02    0.46       1.1  T
   6    -42.4854924 -0.549222E-06  0.150E-02    0.45       1.3  T
   7    -42.4854953 -0.287002E-05  0.109E-02    0.46       1.8  T
   8    -42.4854989 -0.363287E-05  0.170E-03    0.46      11.8  T
   9    -42.4854990 -0.707053E-07  0.585E-04    0.46      34.2  T
  10    -42.4854990 -0.962546E-08  0.214E-04    0.46      93.3  T
     SCC iter.                  ...        0 min,  0.014 sec
     gradient                   ...        0 min,  0.012 sec
 * total energy  :   -41.9910968 Eh     change       -0.2339435E-02 Eh
   gradient norm :     0.0289695 Eh/α   predicted    -0.2050296E-02 ( -12.36%)
   displ. norm   :     0.5620013 α      lambda       -0.2679718E-02
   maximum displ.:     0.3646185 α      in ANC's #3, #10, #9, ...

........................................................................
.............................. CYCLE   31 ..............................
........................................................................

 iter      E             dE          RMSdq      gap      omega  full diag
   1    -42.4753569 -0.424754E+02  0.557E-01    0.69       0.0  T
   2    -42.2588315  0.216525E+00  0.230E+00    0.18       1.0  T
   3    -42.4774917 -0.218660E+00  0.425E-01    0.65       1.0  T
   4    -42.4825715 -0.507979E-02  0.138E-01    0.54       1.0  T
   5    -42.4832276 -0.656081E-03  0.270E-02    0.50       1.0  T
   6    -42.4832409 -0.133267E-04  0.176E-02    0.49       1.1  T
   7    -42.4832309  0.995394E-05  0.192E-02    0.49       1.0  T
   8    -42.4832409 -0.997254E-05  0.773E-03    0.49       2.6  T
   9    -42.4832431 -0.221165E-05  0.252E-03    0.49       7.9  T
  10    -42.4832434 -0.243107E-06  0.710E-04    0.49      28.2  T
  11    -42.4832434 -0.149121E-07  0.201E-04    0.49      99.6  T
     SCC iter.                  ...        0 min,  0.015 sec
     gradient                   ...        0 min,  0.012 sec
 * total energy  :   -41.9927328 Eh     change       -0.1636018E-02 Eh
   gradient norm :     0.0294757 Eh/α   predicted    -0.1763057E-02 (   7.77%)
   displ. norm   :     0.4808793 α      lambda       -0.2520480E-02
   maximum displ.:     0.3272286 α      in ANC's #10, #3, #9, ...

........................................................................
.............................. CYCLE   32 ..............................
........................................................................

 iter      E             dE          RMSdq      gap      omega  full diag
   1    -42.4859769 -0.424860E+02  0.316E-01    0.60       0.0  T
   2    -42.4358743  0.501025E-01  0.112E+00    0.15       1.0  T
   3    -42.4867103 -0.508360E-01  0.223E-01    0.59       1.0  T
   4    -42.4880250 -0.131464E-02  0.578E-02    0.52       1.0  T
   5    -42.4880907 -0.656856E-04  0.234E-02    0.51       1.0  T
   6    -42.4881066 -0.159051E-04  0.588E-03    0.51       3.4  T
   7    -42.4881065  0.436339E-07  0.444E-03    0.51       4.5  T
   8    -42.4881070 -0.514755E-06  0.107E-03    0.51      18.6  T
   9    -42.4881071 -0.236891E-07  0.350E-04    0.51      57.2  T
  10    -42.4881071 -0.166252E-08  0.186E-04    0.51     107.6  T
     SCC iter.                  ...        0 min,  0.014 sec
     gradient                   ...        0 min,  0.012 sec
 * total energy  :   -41.9943921 Eh     change       -0.1659339E-02 Eh
   gradient norm :     0.0221320 Eh/α   predicted    -0.1551666E-02 (  -6.49%)
   displ. norm   :     0.4009762 α      lambda       -0.1651288E-02
   maximum displ.:     0.2202619 α      in ANC's #10, #3, #8, ...

........................................................................
.............................. CYCLE   33 ..............................
........................................................................

 iter      E             dE          RMSdq      gap      omega  full diag
   1    -42.4924015 -0.424924E+02  0.306E-01    0.63       0.0  T
   2    -42.4408168  0.515847E-01  0.114E+00    0.16       1.0  T
   3    -42.4933948 -0.525780E-01  0.199E-01    0.60       1.0  T
   4    -42.4944622 -0.106737E-02  0.504E-02    0.54       1.0  T
   5    -42.4945114 -0.492728E-04  0.195E-02    0.53       1.0  T
   6    -42.4945223 -0.108547E-04  0.591E-03    0.53       3.4  T
   7    -42.4945225 -0.215842E-06  0.347E-03    0.53       5.8  T
   8    -42.4945228 -0.293194E-06  0.670E-04    0.53      29.9  T
   9    -42.4945228 -0.505048E-08  0.271E-04    0.53      73.9  T
     SCC iter.                  ...        0 min,  0.012 sec
     gradient                   ...        0 min,  0.012 sec
 * total energy  :   -41.9954256 Eh     change       -0.1033493E-02 Eh
   gradient norm :     0.0159221 Eh/α   predicted    -0.9583942E-03 (  -7.27%)
   displ. norm   :     0.5062134 α      lambda       -0.1848696E-02
   maximum displ.:     0.2477694 α      in ANC's #3, #10, #12, ...

........................................................................
.............................. CYCLE   34 ..............................
........................................................................

 iter      E             dE          RMSdq      gap      omega  full diag
   1    -42.4949233 -0.424949E+02  0.370E-01    0.67       0.0  T
   2    -42.4349334  0.599899E-01  0.121E+00    0.17       1.0  T
   3    -42.4944170 -0.594835E-01  0.310E-01    0.68       1.0  T
   4    -42.4969926 -0.257563E-02  0.985E-02    0.59       1.0  T
   5    -42.4972684 -0.275741E-03  0.299E-02    0.57       1.0  T
   6    -42.4972939 -0.255203E-04  0.111E-02    0.57       1.8  T
   7    -42.4972965 -0.266895E-05  0.564E-03    0.56       3.5  T
   8    -42.4972968 -0.265403E-06  0.313E-03    0.56       6.4  T
   9    -42.4972972 -0.389922E-06  0.456E-04    0.56      43.8  T
  10    -42.4972972  0.456907E-08  0.469E-04    0.57      42.7  T
     SCC iter.                  ...        0 min,  0.014 sec
     gradient                   ...        0 min,  0.012 sec
 * total energy  :   -41.9963996 Eh     change       -0.9739531E-03 Eh
   gradient norm :     0.0183069 Eh/α   predicted    -0.1161229E-02 (  19.23%)
   displ. norm   :     0.4157195 α      lambda       -0.1482684E-02
   maximum displ.:     0.2048703 α      in ANC's #10, #12, #8, ...

........................................................................
.............................. CYCLE   35 ..............................
........................................................................

 iter      E             dE          RMSdq      gap      omega  full diag
   1    -42.4974726 -0.424975E+02  0.183E-01    0.59       0.0  T
   2    -42.4966411  0.831461E-03  0.179E-01    0.52       1.0  T
   3    -42.4951950  0.144608E-02  0.258E-01    0.68       1.0  T
   4    -42.4974595 -0.226448E-02  0.634E-02    0.57       1.0  T
   5    -42.4975777 -0.118207E-03  0.138E-02    0.58       1.5  T
   6    -42.4975825 -0.481179E-05  0.359E-03    0.58       5.6  T
   7    -42.4975824  0.121621E-06  0.254E-03    0.58       7.9  T
   8    -42.4975826 -0.178038E-06  0.577E-04    0.58      34.7  T
   9    -42.4975826  0.232696E-09  0.380E-04    0.58      52.7  T
     SCC iter.                  ...        0 min,  0.012 sec
     gradient                   ...        0 min,  0.012 sec
 * total energy  :   -41.9972066 Eh     change       -0.8070499E-03 Eh
   gradient norm :     0.0228484 Eh/α   predicted    -0.8694648E-03 (   7.73%)
   displ. norm   :     0.4127057 α      lambda       -0.1811727E-02
   maximum displ.:     0.1487727 α      in ANC's #4, #6, #3, ...

........................................................................
.............................. CYCLE   36 ..............................
........................................................................

 iter      E             dE          RMSdq      gap      omega  full diag
   1    -42.4964084 -0.424964E+02  0.195E-01    0.61       0.0  T
   2    -42.4954198  0.988671E-03  0.190E-01    0.53       1.0  T
   3    -42.4936868  0.173299E-02  0.281E-01    0.70       1.0  T
   4    -42.4964820 -0.279523E-02  0.472E-02    0.60       1.0  T
   5    -42.4965286 -0.465723E-04  0.139E-02    0.59       1.4  T
   6    -42.4965338 -0.519860E-05  0.490E-03    0.59       4.1  T
   7    -42.4965341 -0.369372E-06  0.262E-03    0.59       7.6  T
   8    -42.4965342 -0.496814E-07  0.845E-04    0.59      23.7  T
   9    -42.4965342 -0.115531E-07  0.318E-04    0.59      62.9  T
     SCC iter.                  ...        0 min,  0.012 sec
     gradient                   ...        0 min,  0.012 sec
 * total energy  :   -41.9985281 Eh     change       -0.1321440E-02 Eh
   gradient norm :     0.0311125 Eh/α   predicted    -0.1060160E-02 ( -19.77%)
   displ. norm   :     0.5602653 α      lambda       -0.3316549E-02
   maximum displ.:     0.2358177 α      in ANC's #6, #4, #2, ...

........................................................................
.............................. CYCLE   37 ..............................
........................................................................

 iter      E             dE          RMSdq      gap      omega  full diag
   1    -42.5113246 -0.425113E+02  0.298E-01    0.65       0.0  T
   2    -42.4943079  0.170167E-01  0.686E-01    0.36       1.0  T
   3    -42.5119108 -0.176029E-01  0.170E-01    0.63       1.0  T
   4    -42.5121496 -0.238789E-03  0.591E-02    0.60       1.0  T
   5    -42.5122381 -0.885074E-04  0.193E-02    0.59       1.0  T
   6    -42.5122479 -0.979783E-05  0.817E-03    0.59       2.4  T
   7    -42.5122489 -0.966524E-06  0.382E-03    0.59       5.2  T
   8    -42.5122489 -0.446833E-07  0.126E-03    0.59      15.9  T
   9    -42.5122490 -0.205497E-07  0.539E-04    0.59      37.1  T
  10    -42.5122490 -0.162787E-08  0.173E-04    0.59     115.6  T
     SCC iter.                  ...        0 min,  0.014 sec
     gradient                   ...        0 min,  0.012 sec
 * total energy  :   -42.0002900 Eh     change       -0.1761947E-02 Eh
   gradient norm :     0.0575998 Eh/α   predicted    -0.2178809E-02 (  23.66%)
   displ. norm   :     0.4887672 α      lambda       -0.4288800E-02
   maximum displ.:     0.1951078 α      in ANC's #4, #2, #11, ...

........................................................................
.............................. CYCLE   38 ..............................
........................................................................

 iter      E             dE          RMSdq      gap      omega  full diag
   1    -42.5057083 -0.425057E+02  0.218E-01    0.62       0.0  T
   2    -42.5033074  0.240090E-02  0.276E-01    0.50       1.0  T
   3    -42.5036773 -0.369885E-03  0.260E-01    0.70       1.0  T
   4    -42.5059232 -0.224592E-02  0.454E-02    0.60       1.0  T
   5    -42.5059443 -0.210930E-04  0.178E-02    0.60       1.1  T
   6    -42.5059520 -0.770204E-05  0.733E-03    0.60       2.7  T
   7    -42.5059532 -0.121896E-05  0.293E-03    0.60       6.8  T
   8    -42.5059533 -0.787464E-07  0.991E-04    0.60      20.2  T
   9    -42.5059533 -0.143933E-08  0.520E-04    0.60      38.5  T
     SCC iter.                  ...        0 min,  0.012 sec
     gradient                   ...        0 min,  0.012 sec
 * total energy  :   -42.0033682 Eh     change       -0.3078163E-02 Eh
   gradient norm :     0.0465517 Eh/α   predicted    -0.2656684E-02 ( -13.69%)
   displ. norm   :     0.4630890 α      lambda       -0.6873784E-02
   maximum displ.:     0.1964374 α      in ANC's #13, #2, #3, ...

........................................................................
.............................. CYCLE   39 ..............................
........................................................................

 iter      E             dE          RMSdq      gap      omega  full diag
   1    -42.5127965 -0.425128E+02  0.278E-01    0.53       0.0  T
   2    -42.5016855  0.111110E-01  0.591E-01    0.86       1.0  T
   3    -42.5142399 -0.125544E-01  0.139E-01    0.58       1.0  T
   4    -42.5141289  0.111005E-03  0.100E-01    0.62       1.0  T
   5    -42.5143049 -0.176016E-03  0.208E-02    0.59       1.0  T
   6    -42.5143127 -0.784852E-05  0.851E-03    0.59       2.3  T
   7    -42.5143138 -0.101810E-05  0.477E-03    0.59       4.2  T
   8    -42.5143142 -0.487500E-06  0.168E-03    0.59      11.9  T
   9    -42.5143143 -0.214343E-07  0.681E-04    0.59      29.4  T
  10    -42.5143143  0.308297E-09  0.346E-04    0.59      57.8  T
     SCC iter.                  ...        0 min,  0.014 sec
     gradient                   ...        0 min,  0.012 sec
 * total energy  :   -42.0062943 Eh     change       -0.2926079E-02 Eh
   gradient norm :     0.0483398 Eh/α   predicted    -0.4173943E-02 (  42.65%)
   displ. norm   :     0.6926495 α      lambda       -0.8787051E-02
   maximum displ.:     0.3010719 α      in ANC's #12, #4, #6, ...

........................................................................
.............................. CYCLE   40 ..............................
........................................................................

 iter      E             dE          RMSdq      gap      omega  full diag
   1    -42.4848667 -0.424849E+02  0.468E-01    0.53       0.0  T
   2    -42.4717361  0.131306E-01  0.674E-01    0.86       1.0  T
   3    -42.4809457 -0.920958E-02  0.453E-01    0.44       1.0  T
   4    -42.4856938 -0.474804E-02  0.212E-01    0.65       1.0  T
   5    -42.4870776 -0.138387E-02  0.544E-02    0.59       1.0  T
   6    -42.4871623 -0.847198E-04  0.146E-02    0.58       1.4  T
   7    -42.4871653 -0.300899E-05  0.705E-03    0.58       2.8  T
   8    -42.4871654 -0.100396E-06  0.275E-03    0.58       7.3  T
   9    -42.4871656 -0.116325E-06  0.116E-03    0.58      17.2  T
  10    -42.4871656 -0.454067E-08  0.454E-04    0.58      44.0  T
  11    -42.4871656 -0.220550E-08  0.137E-04    0.58     145.8  T
     SCC iter.                  ...        0 min,  0.015 sec
     gradient                   ...        0 min,  0.012 sec
 * total energy  :   -42.0084046 Eh     change       -0.2110310E-02 Eh
   gradient norm :     0.0764761 Eh/α   predicted    -0.6501377E-02 ( 208.08%)
   displ. norm   :     0.2683204 α      lambda       -0.7710954E-02
   maximum displ.:     0.1389603 α      in ANC's #3, #8, #10, ...

........................................................................
.............................. CYCLE   41 ..............................
........................................................................

 iter      E             dE          RMSdq      gap      omega  full diag
   1    -42.5089319 -0.425089E+02  0.264E-01    0.63       0.0  T
   2    -42.4956892  0.132426E-01  0.613E-01    0.39       1.0  T
   3    -42.5087627 -0.130735E-01  0.216E-01    0.66       1.0  T
   4    -42.5101219 -0.135915E-02  0.677E-02    0.58       1.0  T
   5    -42.5101192  0.270046E-05  0.431E-02    0.58       1.0  T
   6    -42.5101683 -0.491428E-04  0.101E-02    0.58       2.0  T
   7    -42.5101703 -0.194130E-05  0.402E-03    0.59       5.0  T
   8    -42.5101704 -0.125911E-06  0.146E-03    0.59      13.7  T
   9    -42.5101704 -0.259341E-07  0.702E-04    0.59      28.5  T
  10    -42.5101704 -0.731606E-08  0.292E-04    0.59      68.5  T
     SCC iter.                  ...        0 min,  0.014 sec
     gradient                   ...        0 min,  0.012 sec
 * total energy  :   -42.0129230 Eh     change       -0.4518425E-02 Eh
   gradient norm :     0.0312312 Eh/α   predicted    -0.4133060E-02 (  -8.53%)
   displ. norm   :     0.5349971 α      lambda       -0.5375343E-02
   maximum displ.:     0.2854317 α      in ANC's #13, #2, #6, ...

........................................................................
.............................. CYCLE   42 ..............................
........................................................................

 iter      E             dE          RMSdq      gap      omega  full diag
   1    -42.5210859 -0.425211E+02  0.259E-01    0.64       0.0  T
   2    -42.5138203  0.726560E-02  0.454E-01    0.44       1.0  T
   3    -42.5198887 -0.606837E-02  0.238E-01    0.68       1.0  T
   4    -42.5214516 -0.156295E-02  0.433E-02    0.61       1.0  T
   5    -42.5214907 -0.390771E-04  0.164E-02    0.60       1.2  T
   6    -42.5214968 -0.608486E-05  0.740E-03    0.60       2.7  T
   7    -42.5214979 -0.105419E-05  0.345E-03    0.60       5.8  T
   8    -42.5214980 -0.152511E-06  0.855E-04    0.60      23.4  T
   9    -42.5214980 -0.811137E-08  0.428E-04    0.60      46.7  T
     SCC iter.                  ...        0 min,  0.012 sec
     gradient                   ...        0 min,  0.012 sec
 * total energy  :   -42.0158495 Eh     change       -0.2926508E-02 Eh
   gradient norm :     0.0464170 Eh/α   predicted    -0.3456941E-02 (  18.13%)
   displ. norm   :     0.5423977 α      lambda       -0.5918620E-02
   maximum displ.:     0.2324420 α      in ANC's #13, #2, #3, ...
 * RMSD in coord.:     1.1822892 α      energy gain  -0.1698406E+00 Eh

generating ANC from model Hessian ...
Using Lindh-Hessian (1995)
 Shifting diagonal of input Hessian by    8.9873813571412411E-003
 Lowest  eigenvalues of input Hessian
    0.000000    0.000000    0.000000    0.000000    0.000000    0.000000
    0.010000    0.010605    0.012113    0.012729    0.014767    0.016974
    0.017442    0.019288    0.021054    0.022838    0.025779    0.037702
 Highest eigenvalues
    1.990130    2.038880    2.171107    2.272954    2.560613    2.988887


........................................................................
.............................. CYCLE   43 ..............................
........................................................................

 iter      E             dE          RMSdq      gap      omega  full diag
   1    -42.5219445 -0.425219E+02  0.392E-01    0.46       0.0  T
   2    -42.4857874  0.361572E-01  0.105E+00    1.12       1.0  T
   3    -42.5255889 -0.398015E-01  0.198E-01    0.63       1.0  T
   4    -42.5256901 -0.101255E-03  0.124E-01    0.53       1.0  T
   5    -42.5261418 -0.451642E-03  0.434E-02    0.56       1.0  T
   6    -42.5262162 -0.744758E-04  0.817E-03    0.58       2.4  T
   7    -42.5262174 -0.118146E-05  0.508E-03    0.58       3.9  T
   8    -42.5262180 -0.611761E-06  0.181E-03    0.57      11.0  T
   9    -42.5262181 -0.108593E-06  0.398E-04    0.58      50.3  T
  10    -42.5262181  0.385910E-09  0.227E-04    0.58      88.2  T
     SCC iter.                  ...        0 min,  0.014 sec
     gradient                   ...        0 min,  0.013 sec
 * total energy  :   -42.0200695 Eh     change       -0.4220030E-02 Eh
   gradient norm :     0.0297595 Eh/α   predicted     0.0000000E+00 (-100.00%)
   displ. norm   :     0.3650902 α      lambda       -0.3223102E-02
   maximum displ.:     0.2165176 α      in ANC's #1, #3, #5, ...

........................................................................
.............................. CYCLE   44 ..............................
........................................................................

 iter      E             dE          RMSdq      gap      omega  full diag
   1    -42.5303153 -0.425303E+02  0.208E-01    0.61       0.0  T
   2    -42.5235262  0.678915E-02  0.439E-01    0.44       1.0  T
   3    -42.5300688 -0.654260E-02  0.153E-01    0.63       1.0  T
   4    -42.5306453 -0.576496E-03  0.306E-02    0.57       1.0  T
   5    -42.5306644 -0.191526E-04  0.753E-03    0.58       2.7  T
   6    -42.5306656 -0.116927E-05  0.310E-03    0.58       6.5  T
   7    -42.5306655  0.481480E-07  0.226E-03    0.58       8.8  T
   8    -42.5306657 -0.133418E-06  0.590E-04    0.58      33.9  T
   9    -42.5306657 -0.223660E-08  0.295E-04    0.58      67.9  T
     SCC iter.                  ...        0 min,  0.013 sec
     gradient                   ...        0 min,  0.012 sec
 * total energy  :   -42.0225489 Eh     change       -0.2479352E-02 Eh
   gradient norm :     0.0186366 Eh/α   predicted    -0.1828112E-02 ( -26.27%)
   displ. norm   :     0.6017944 α      lambda       -0.3543908E-02
   maximum displ.:     0.4026194 α      in ANC's #3, #1, #5, ...

........................................................................
.............................. CYCLE   45 ..............................
........................................................................

 iter      E             dE          RMSdq      gap      omega  full diag
   1    -42.5338766 -0.425339E+02  0.272E-01    0.61       0.0  T
   2    -42.5208308  0.130458E-01  0.608E-01    0.38       1.0  T
   3    -42.5336255 -0.127947E-01  0.190E-01    0.63       1.0  T
   4    -42.5344986 -0.873063E-03  0.496E-02    0.56       1.0  T
   5    -42.5345382 -0.396490E-04  0.119E-02    0.57       1.7  T
   6    -42.5345418 -0.353728E-05  0.509E-03    0.57       3.9  T
   7    -42.5345421 -0.354391E-06  0.277E-03    0.57       7.2  T
   8    -42.5345422 -0.738914E-07  0.871E-04    0.57      22.9  T
   9    -42.5345422 -0.424755E-08  0.336E-04    0.57      59.5  T
     SCC iter.                  ...        0 min,  0.012 sec
     gradient                   ...        0 min,  0.013 sec
 * total energy  :   -42.0253375 Eh     change       -0.2788662E-02 Eh
   gradient norm :     0.0228969 Eh/α   predicted    -0.2413683E-02 ( -13.45%)
   displ. norm   :     0.6247856 α      lambda       -0.2790195E-02
   maximum displ.:     0.4050980 α      in ANC's #3, #1, #8, ...

........................................................................
.............................. CYCLE   46 ..............................
........................................................................

 iter      E             dE          RMSdq      gap      omega  full diag
   1    -42.5347064 -0.425347E+02  0.235E-01    0.52       0.0  T
   2    -42.5295507  0.515570E-02  0.402E-01    0.71       1.0  T
   3    -42.5343759 -0.482522E-02  0.172E-01    0.51       1.0  T
   4    -42.5351239 -0.747976E-03  0.522E-02    0.56       1.0  T
   5    -42.5351686 -0.446754E-04  0.994E-03    0.56       2.0  T
   6    -42.5351704 -0.179518E-05  0.515E-03    0.55       3.9  T
   7    -42.5351709 -0.522576E-06  0.248E-03    0.55       8.1  T
   8    -42.5351709 -0.512837E-07  0.111E-03    0.55      18.0  T
   9    -42.5351709 -0.156879E-07  0.336E-04    0.55      59.5  T
  10    -42.5351709 -0.424485E-09  0.162E-04    0.55     123.2  T
     SCC iter.                  ...        0 min,  0.014 sec
     gradient                   ...        0 min,  0.013 sec
 * total energy  :   -42.0277000 Eh     change       -0.2362459E-02 Eh
   gradient norm :     0.0219357 Eh/α   predicted    -0.1939700E-02 ( -17.89%)
   displ. norm   :     0.6679170 α      lambda       -0.2878263E-02
   maximum displ.:     0.4593739 α      in ANC's #1, #3, #8, ...

........................................................................
.............................. CYCLE   47 ..............................
........................................................................

 iter      E             dE          RMSdq      gap      omega  full diag
   1    -42.5365359 -0.425365E+02  0.269E-01    0.48       0.0  T
   2    -42.5247196  0.118163E-01  0.590E-01    0.77       1.0  T
   3    -42.5372090 -0.124893E-01  0.140E-01    0.50       1.0  T
   4    -42.5373984 -0.189463E-03  0.532E-02    0.54       1.0  T
   5    -42.5374396 -0.411792E-04  0.227E-02    0.53       1.0  T
   6    -42.5374562 -0.166204E-04  0.481E-03    0.53       4.2  T
   7    -42.5374566 -0.329574E-06  0.239E-03    0.53       8.4  T
   8    -42.5374566 -0.393654E-07  0.110E-03    0.53      18.1  T
   9    -42.5374566 -0.122003E-07  0.330E-04    0.53      60.6  T
  10    -42.5374566 -0.223331E-09  0.144E-04    0.53     138.9  T
     SCC iter.                  ...        0 min,  0.014 sec
     gradient                   ...        0 min,  0.013 sec
 * total energy  :   -42.0302113 Eh     change       -0.2511276E-02 Eh
   gradient norm :     0.0176861 Eh/α   predicted    -0.2081165E-02 ( -17.13%)
   displ. norm   :     0.7142763 α      lambda       -0.3011956E-02
   maximum displ.:     0.5206347 α      in ANC's #1, #3, #8, ...

........................................................................
.............................. CYCLE   48 ..............................
........................................................................

 iter      E             dE          RMSdq      gap      omega  full diag
   1    -42.5412438 -0.425412E+02  0.260E-01    0.46       0.0  T
   2    -42.5298159  0.114278E-01  0.580E-01    0.74       1.0  T
   3    -42.5418437 -0.120278E-01  0.136E-01    0.49       1.0  T
[...]
H            3.38369060100151       -0.83391388521657        0.47220187722210
H           -0.89541873767754        2.78124156587972       -1.44061870597708
H           -2.36972433215714        1.82012428265147        0.32465763991522
H           -1.02919004595146        2.55236541762694        1.20481595238818
H           -2.21214839165774       -3.41661112492635        0.27130257211145
H           -2.05265865433231       -3.26045141480655       -1.47035922061318
H           -2.30333165369639       -1.79550399683900       -0.47677050818561
H            2.05779613721234       -2.86618413471453       -0.24265316664296

 Bond Distances (Angstroems)
 ---------------------------
C1-N2=1.4386         C1-H15=1.0906        C1-H16=1.0879        C1-H17=1.0901        N2-C1=1.4386         N2-C3=1.3057         
N2-C6=1.4663         C3-N2=1.3057         C3-N4=1.3152         C3-H18=1.0780        N4-C3=1.3152         N4-C5=1.4083         
N4-H25=1.0110        C5-N4=1.4083         C5-C6=1.6041         C5-N13=1.2584        C6-N2=1.4663         C6-C5=1.6041         
C6-C7=1.6125         C6-C11=1.5451        C7-C6=1.6125         C7-O8=1.1924         C7-N9=1.3671         O8-C7=1.1924         
N9-C7=1.3671         N9-C10=1.4497        N9-H19=1.0097        C10-N9=1.4497        C10-C11=1.5235       C10-H20=1.0971       
C10-H21=1.0954       C11-C6=1.5451        C11-C10=1.5235       C11-O12=1.1900       O12-C11=1.1900       N13-C5=1.2584        
N13-C14=1.4191       C14-N13=1.4191       C14-H22=1.0912       C14-H23=1.0904       C14-H24=1.0937       H15-C1=1.0906        
H16-C1=1.0879        H17-C1=1.0901        H18-C3=1.0780        H19-N9=1.0097        H20-C10=1.0971       H21-C10=1.0954       
H22-C14=1.0912       H23-C14=1.0904       H24-C14=1.0937       H25-N4=1.0110        
 C  H  Rav=1.0905 sigma=0.0052  Rmin=1.0780  Rmax=1.0971     9
 C  C  Rav=1.5713 sigma=0.0379  Rmin=1.5235  Rmax=1.6125     4
 N  H  Rav=1.0104 sigma=0.0006  Rmin=1.0097  Rmax=1.0110     2
 N  C  Rav=1.3809 sigma=0.0689  Rmin=1.2584  Rmax=1.4663     9
 O  C  Rav=1.1912 sigma=0.0012  Rmin=1.1900  Rmax=1.1924     2

 selected bond angles (degree)
 --------------------
H15-C1-N2=110.29               H16-C1-N2=109.02               H16-C1-H15=108.62              H17-C1-N2=111.09               
H17-C1-H15=109.16              H17-C1-H16=108.61              C3-N2-C1=124.78                C6-N2-C1=123.88                
C6-N2-C3=111.30                N4-C3-N2=112.60                H18-C3-N2=123.39               H18-C3-N4=124.01               
C5-N4-C3=112.39                H25-N4-C3=127.09               H25-N4-C5=120.16               C6-C5-N4=102.40                
N13-C5-N4=115.46               N13-C5-C6=141.81               C5-C6-N2=100.17                C7-C6-N2=102.50                
C7-C6-C5=124.72                C11-C6-N2=110.25               C11-C6-C5=117.57               C11-C6-C7=100.40               
O8-C7-C6=122.96                N9-C7-C6=107.92                N9-C7-O8=128.48                C10-N9-C7=112.21               
H19-N9-C7=118.90               H19-N9-C10=121.12              C11-C10-N9=106.46              H20-C10-N9=112.59              
H20-C10-C11=109.03             H21-C10-N9=111.81              H21-C10-C11=109.89             H21-C10-H20=107.04             

 selected dihedral angles (degree)
 ---------------------------------
C3-N2-C1-H15=239.80           C3-N2-C1-H16=358.98           C3-N2-C1-H17=118.63           C6-N2-C1-H15= 62.32           
C6-N2-C1-H16=181.50           C6-N2-C1-H17=301.15           N4-C3-N2-C1=177.80            N4-C3-N2-C6=355.56            
H18-C3-N2-C1=358.46           H18-C3-N2-C6=176.21           C5-N4-C3-N2=356.62            C5-N4-C3-H18=175.97           
H25-N4-C3-N2=183.63           H25-N4-C3-H18=  2.97          C6-C5-N4-C3=  8.68            C6-C5-N4-H25=182.21           
N13-C5-N4-C3=193.86           N13-C5-N4-H25=  7.39          C5-C6-N2-C1=186.80            C5-C6-N2-C3=  9.02            
C7-C6-N2-C1= 57.56            C7-C6-N2-C3=239.79            C11-C6-N2-C1=311.37           C11-C6-N2-C3=133.59           
N2-C6-C5-N4=349.93            N2-C6-C5-N13=162.35           C7-C6-C5-N4=102.99            C7-C6-C5-N13=275.42           
C11-C6-C5-N4=230.56           C11-C6-C5-N13= 42.99          O8-C7-C6-N2= 79.61            O8-C7-C6-C5=327.67            
O8-C7-C6-C11=193.26           N9-C7-C6-N2=268.04            N9-C7-C6-C5=156.10            N9-C7-C6-C11= 21.69           
C10-N9-C7-C6=337.54           C10-N9-C7-O8=166.58           H19-N9-C7-C6=187.87           H19-N9-C7-O8= 16.91           
C11-C10-N9-C7= 13.24          C11-C10-N9-H19=162.14         H20-C10-N9-C7=253.81          H20-C10-N9-H19= 42.72         
H21-C10-N9-C7=133.26          H21-C10-N9-H19=282.16         
           -------------------------------------------------
          |                Final Singlepoint                |
           -------------------------------------------------

          ...................................................
          :                      SETUP                      :
          :.................................................:
          :  # basis functions                  67          :
          :  # atomic orbitals                  67          :
          :  # shells                           39          :
          :  # electrons                        74          :
          :  max. iterations                   250          :
          :  Hamiltonian                  GFN2-xTB          :
          :  restarted?                      false          :
          :  GBSA solvation                  false          :
          :  PC potential                    false          :
          :  electronic temp.         2500.0000000     K    :
          :  accuracy                    1.0000000          :
          :  -> integral cutoff          0.2500000E+02      :
          :  -> integral neglect         0.1000000E-07      :
          :  -> SCF convergence          0.1000000E-05 Eh   :
          :  -> wf. convergence          0.1000000E-03 e    :
          :  Broyden damping             0.4000000          :
          ...................................................

 iter      E             dE          RMSdq      gap      omega  full diag
   1    -42.6616691 -0.426617E+02  0.121E-04    2.59       0.0  T
   2    -42.6616691 -0.569997E-10  0.729E-05    2.59     274.3  T
   3    -42.6616691 -0.944311E-11  0.459E-05    2.59     435.4  T

   *** convergence criteria satisfied after 3 iterations ***

         #    Occupation            Energy/Eh            Energy/eV
      -------------------------------------------------------------
         1        2.0000           -0.9035175             -24.5860
       ...           ...                  ...                  ...
        31        2.0000           -0.6188960             -16.8410
        32        2.0000           -0.6157384             -16.7551
        33        2.0000           -0.5898654             -16.0511
        34        2.0000           -0.5848821             -15.9155
        35        1.9999           -0.5735119             -15.6061
        36        1.9982           -0.5475360             -14.8992
        37        1.9953           -0.5398144             -14.6891 (HOMO)
        38        0.0051           -0.4446796             -12.1003 (LUMO)
        39        0.0015           -0.4349029             -11.8343
        40        0.0000           -0.3865397             -10.5183
        41        0.0000           -0.3742657             -10.1843
        42                         -0.2313894              -6.2964
       ...                                ...                  ...
        67                          0.5358836              14.5821
      -------------------------------------------------------------
                  HL-Gap            0.0951348 Eh            2.5888 eV
             Fermi-level           -0.4919371 Eh          -13.3863 eV

 SCC (total)                   0 d,  0 h,  0 min,  0.023 sec
 SCC setup                      ...        0 min,  0.000 sec (  0.801%)
 Dispersion                     ...        0 min,  0.000 sec (  0.839%)
 classical contributions        ...        0 min,  0.000 sec (  0.300%)
 integral evaluation            ...        0 min,  0.005 sec ( 21.721%)
 iterations                     ...        0 min,  0.005 sec ( 19.775%)
 molecular gradient             ...        0 min,  0.013 sec ( 55.951%)
 printout                       ...        0 min,  0.000 sec (  0.555%)

         :::::::::::::::::::::::::::::::::::::::::::::::::::::
         ::                     SUMMARY                     ::
         :::::::::::::::::::::::::::::::::::::::::::::::::::::
         :: total energy             -42.151993828485 Eh    ::
         :: gradient norm              0.002032481434 Eh/a0 ::
         :: HOMO-LUMO gap              2.588750938610 eV    ::
         ::.................................................::
         :: SCC energy               -42.661669101643 Eh    ::
         :: -> isotropic ES            0.139515149955 Eh    ::
         :: -> anisotropic ES         -0.005147575926 Eh    ::
         :: -> anisotropic XC          0.021034911790 Eh    ::
         :: -> dispersion             -0.023520649248 Eh    ::
         :: repulsion energy           0.508916680757 Eh    ::
         :: add. restraining           0.000465075943 Eh    ::
         :: total charge               1.000000000000 e     ::
         :::::::::::::::::::::::::::::::::::::::::::::::::::::

           -------------------------------------------------
          |                Property Printout                |
           -------------------------------------------------

    * Orbital Energies and Occupations

         #    Occupation            Energy/Eh            Energy/eV
      -------------------------------------------------------------
         1        2.0000           -0.9035175             -24.5860
       ...           ...                  ...                  ...
        25        2.0000           -0.6784885             -18.4626
        26        2.0000           -0.6665800             -18.1386
        27        2.0000           -0.6613301             -17.9957
        28        2.0000           -0.6588863             -17.9292
        29        2.0000           -0.6548198             -17.8186
        30        2.0000           -0.6503727             -17.6975
        31        2.0000           -0.6188960             -16.8410
        32        2.0000           -0.6157384             -16.7551
        33        2.0000           -0.5898654             -16.0511
        34        2.0000           -0.5848821             -15.9155
        35        1.9999           -0.5735119             -15.6061
        36        1.9982           -0.5475360             -14.8992
        37        1.9953           -0.5398144             -14.6891 (HOMO)
        38        0.0051           -0.4446796             -12.1003 (LUMO)
        39        0.0015           -0.4349029             -11.8343
        40        0.0000           -0.3865397             -10.5183
        41        0.0000           -0.3742657             -10.1843
        42                         -0.2313894              -6.2964
        43                         -0.2037609              -5.5446
        44                         -0.1566440              -4.2625
        45                         -0.1508028              -4.1036
        46                         -0.1272753              -3.4633
        47                         -0.1104900              -3.0066
        48                         -0.0977854              -2.6609
       ...                                ...                  ...
        67                          0.5358836              14.5821
      -------------------------------------------------------------
                  HL-Gap            0.0951348 Eh            2.5888 eV
             Fermi-level           -0.4919371 Eh          -13.3863 eV

     #   Z          covCN         q      C6AA      α(0)
     1   6 C        3.694    -0.085    22.303     6.757
     2   7 N        2.797     0.033    20.673     6.753
     3   6 C        2.897     0.110    25.577     8.292
     4   7 N        2.765    -0.062    22.430     7.034
     5   6 C        2.893     0.145    24.854     8.174
     6   6 C        3.889    -0.012    20.736     6.474
     7   6 C        2.780     0.277    22.311     7.737
     8   8 O        0.857    -0.336    20.444     6.062
     9   7 N        2.691    -0.170    24.683     7.379
    10   6 C        3.771    -0.035    21.231     6.566
    11   6 C        2.826     0.236    23.062     7.869
    12   8 O        0.856    -0.271    19.273     5.886
    13   7 N        1.840    -0.167    25.406     7.470
    14   6 C        3.701    -0.041    21.462     6.625
    15   1 H        0.924     0.098     1.799     2.098
    16   1 H        0.925     0.104     1.746     2.067
    17   1 H        0.925     0.105     1.744     2.065
    18   1 H        0.926     0.129     1.542     1.942
    19   1 H        0.860     0.221     1.003     1.569
    20   1 H        0.924     0.113     1.675     2.024
    21   1 H        0.924     0.115     1.655     2.012
    22   1 H        0.924     0.105     1.741     2.063
    23   1 H        0.924     0.103     1.760     2.075
    24   1 H        0.924     0.038     2.469     2.457
    25   1 H        0.860     0.246     0.899     1.485

 Mol. C6AA /au·bohr⁶  :       6414.738239
 Mol. C8AA /au·bohr⁸  :     146904.831524
 Mol. α(0) /au        :        120.933234


Wiberg/Mayer (AO) data.
largest (>0.10) Wiberg bond orders for each atom

 ---------------------------------------------------------------------------
     #   Z sym  total        # sym  WBO       # sym  WBO       # sym  WBO
 ---------------------------------------------------------------------------
     1   6 C    3.934 --     2 N    0.991    16 H    0.971    15 H    0.962
                            17 H    0.960
     2   7 N    3.653 --     3 C    1.458     1 C    0.991     6 C    0.951
                             4 N    0.145
     3   6 C    3.950 --     2 N    1.458     4 N    1.385    18 H    0.941
     4   7 N    3.609 --     3 C    1.385     5 C    1.047    25 H    0.909
                             2 N    0.145
     5   6 C    3.945 --    13 N    1.838     4 N    1.047     6 C    0.898
     6   6 C    3.931 --     2 N    0.951    11 C    0.916     5 C    0.898
                             7 C    0.830
     7   6 C    3.955 --     8 O    1.791     9 N    1.239     6 C    0.830
     8   8 O    2.152 --     7 C    1.791     9 N    0.203
     9   7 N    3.420 --     7 C    1.239    10 C    1.003    19 H    0.918
                             8 O    0.203
    10   6 C    3.965 --     9 N    1.003    11 C    0.979    21 H    0.933
                            20 H    0.932
    11   6 C    3.932 --    12 O    1.929    10 C    0.979     6 C    0.916
    12   8 O    2.172 --    11 C    1.929
    13   7 N    3.181 --     5 C    1.838    14 C    1.048
    14   6 C    3.966 --    13 N    1.048    24 H    0.976    22 H    0.944
                            23 H    0.942
    15   1 H    0.989 --     1 C    0.962
    16   1 H    0.989 --     1 C    0.971
    17   1 H    0.987 --     1 C    0.960
    18   1 H    0.982 --     3 C    0.941
    19   1 H    0.949 --     9 N    0.918
    20   1 H    0.987 --    10 C    0.932
    21   1 H    0.986 --    10 C    0.933
    22   1 H    0.987 --    14 C    0.944
    23   1 H    0.986 --    14 C    0.942
    24   1 H    0.997 --    14 C    0.976
    25   1 H    0.939 --     4 N    0.909
 ---------------------------------------------------------------------------

Topologies differ in total number of bonds
Writing topology from bond orders to xtbtopo.mol

molecular dipole:
                 x           y           z       tot (Debye)
 q only:        1.548       0.115       0.546
   full:        1.530       0.481       0.516       4.282
molecular quadrupole (traceless):
                xx          xy          yy          xz          yz          zz
 q only:       11.323      -5.699      13.937       8.650       4.966     -25.260
  q+dip:       14.332      -8.853      13.313      10.962       4.032     -27.645
   full:       14.983      -7.965      11.798      11.352       4.257     -26.781

           -------------------------------------------------
          |                Geometry Summary                 |
           -------------------------------------------------

      molecular mass/u    :      195.1988581
   center of mass at/Å    :        0.1528597      -0.1720731      -0.0974041
  moments of inertia/u·Å² :        0.5520507E+03   0.7167274E+03   0.8359661E+03
rotational constants/cm⁻¹ :        0.3053638E-01   0.2352028E-01   0.2016545E-01

 * 22 selected distances

     #   Z          #   Z                                           value/Å
     1   6 C        2   7 N                                       1.4386415
     2   7 N        3   6 C                                       1.3056880
     3   6 C        4   7 N                                       1.3151918
     4   7 N        5   6 C                                       1.4082856
     2   7 N        6   6 C                                       1.4663039 (max)
     7   6 C        8   8 O                                       1.1923942
     7   6 C        9   7 N                                       1.3670838
     9   7 N       10   6 C                                       1.4496901
    11   6 C       12   8 O                                       1.1900191
     5   6 C       13   7 N                                       1.2584493
    13   7 N       14   6 C                                       1.4190677
     1   6 C       15   1 H                                       1.0905979
     1   6 C       16   1 H                                       1.0878779
     1   6 C       17   1 H                                       1.0900782
     3   6 C       18   1 H                                       1.0780208
     9   7 N       19   1 H                                       1.0097402 (min)
    10   6 C       20   1 H                                       1.0971003
    10   6 C       21   1 H                                       1.0953704
    14   6 C       22   1 H                                       1.0911914
    14   6 C       23   1 H                                       1.0903820
    14   6 C       24   1 H                                       1.0936678
     4   7 N       25   1 H                                       1.0110103

 * 4 distinct bonds (by element types)

   Z      Z             #   av. dist./Å        max./Å        min./Å
   1 H    6 C           9     1.0904763     1.0971003     1.0780208
   1 H    7 N           2     1.0103752     1.0110103     1.0097402
   6 C    7 N           9     1.3809335     1.4663039     1.2584493
   6 C    8 O           2     1.1912066     1.1923942     1.1900191


optimized geometry written to: xtbopt.xyz


           -------------------------------------------------
          | TOTAL ENERGY              -42.151993828485 Eh   |
          | GRADIENT NORM               0.002032481434 Eh/α |
          | HOMO-LUMO GAP               2.588750938610 eV   |
           -------------------------------------------------

------------------------------------------------------------------------
 * finished run on 2024/06/05 at 19:58:05.508     
------------------------------------------------------------------------
 total:
 * wall-time:     0 d,  0 h,  0 min,  2.881 sec
 *  cpu-time:     0 d,  0 h,  0 min,  2.865 sec
 * ratio c/w:     0.994 speedup
 SCF:
 * wall-time:     0 d,  0 h,  0 min,  0.038 sec
 *  cpu-time:     0 d,  0 h,  0 min,  0.038 sec
 * ratio c/w:     1.000 speedup
 ANC optimizer:
 * wall-time:     0 d,  0 h,  0 min,  2.815 sec
 *  cpu-time:     0 d,  0 h,  0 min,  2.812 sec
 * ratio c/w:     0.999 speedup

