25
 energy: -43.832478895097 gnorm: 0.105068474462 xtb: 6.6.1 (8d0f1dd)
C            3.23527567651557        1.17023028144976        0.08483250032415
N            2.29666110050596        0.08501007577667        0.03945856702784
C            2.59116200893803       -1.22668546551628        0.03128103027360
N            1.44614733068465       -1.95799877296681        0.00139202901790
C            0.39807493761192       -1.07542675521434       -0.00800551821545
C            0.92294658233175        0.20965323550596        0.01634562998805
C            0.09437103707414        1.39442265832594       -0.00505855783717
O            0.49575721770574        2.55490887318138       -0.00326176378483
N           -1.25868976869693        1.06271966848139       -0.03149718394490
C           -2.22340642879233        2.15941953220107       -0.05066483693302
C           -1.82122895827100       -0.19639664776556       -0.04767684061413
O           -3.00753847926773       -0.37579235132096       -0.07076963349595
N           -0.93477805851570       -1.30125129886968       -0.03744626101680
C           -1.47512027864320       -2.64151577272653       -0.06019876248794
H            3.71951335069226        1.21437349334786        1.06262042046870
H            4.00091300688653        1.04001300445570       -0.67853779867542
H            2.69580891464467        2.10473662395364       -0.08337813053808
H            3.57785124114795       -1.64153544144501        0.04821095397551
H           -1.67210478881643        3.09870530081791       -0.02728150983958
H           -2.82777534449101        2.09984950407690       -0.95341998411058
H           -2.87977895155409        2.08329488064846        0.81412588586903
H           -1.17174053476947       -3.18864807802584        0.83234390445453
H           -1.14817070942833       -3.16743399003755       -0.95692677300644
H           -2.55878223375248       -2.55152932964076       -0.07401847631160
H            1.47329850832113       -3.02643219887042       -0.01293172849691
25
 energy: -43.837412123675 gnorm: 0.035524314414 xtb: 6.6.1 (8d0f1dd)
C            3.24277378038641        1.17769292879879        0.08700299066031
N            2.30774329038569        0.09686694160973        0.03744228671187
C            2.60554890120293       -1.23827798099363        0.03102104567199
N            1.43374983678270       -1.95221126849835        0.00152310918882
C            0.40140670291801       -1.07077093952209       -0.00840102085655
C            0.92471498739612        0.21447684262214        0.01466923649928
C            0.10291076086746        1.38341948702520       -0.00584570355192
O            0.49696279561794        2.55511388948843       -0.00463440295008
N           -1.26487278278109        1.04999988222739       -0.03179781695999
C           -2.22214674444706        2.14915280151853       -0.05056573453064
C           -1.82398825532915       -0.19988503991207       -0.04798150171383
O           -3.02081897820553       -0.38376511827650       -0.07113030910910
N           -0.93802297385541       -1.30107077901054       -0.03758576092481
C           -1.47669688674977       -2.64058164335788       -0.06022282187145
H            3.72847274510349        1.22134056781016        1.06608779101698
H            4.00618380270346        1.04895226018942       -0.68175048106482
H            2.69389116665586        2.10398695108270       -0.08031781337010
H            3.58538444104302       -1.65885107241857        0.04839450632763
H           -1.65711788218640        3.07929002503785       -0.02674325013513
H           -2.82775498408900        2.09774551850841       -0.95469010986352
H           -2.87942813839691        2.08165935966280        0.81559885953753
H           -1.17057379223346       -3.19074051584982        0.83148428628409
H           -1.14684026903104       -3.17016965529015       -0.95594807402135
H           -2.56160732651282       -2.55020517062922       -0.07394374394619
H            1.42879218081615       -2.97647724199980       -0.01212840493852
25
 energy: -43.837984010752 gnorm: 0.016704386295 xtb: 6.6.1 (8d0f1dd)
C            3.23442738557766        1.17450573731908        0.08547893772536
N            2.30223766694879        0.09915576082843        0.03572974794846
C            2.61156394974553       -1.24351042978681        0.03251265063225
N            1.43875652482314       -1.96443436950542        0.00192162644699
C            0.40739589065956       -1.08178213125524       -0.00758846771408
C            0.91801755626172        0.21085278079858        0.01523620056799
C            0.11004381611641        1.37864286376257       -0.00339072730375
O            0.49969990760563        2.55437127947830       -0.00126023577339
N           -1.26775267347008        1.05337989791322       -0.03066348974744
C           -2.22297569074089        2.15683069882861       -0.05050125645818
C           -1.81512321001879       -0.19503710247962       -0.04725818275344
O           -3.01490801893282       -0.38023282375043       -0.07118900820521
N           -0.93619989718926       -1.30305615486948       -0.03694738070302
C           -1.47699695772067       -2.64010609827234       -0.06036395039561
H            3.71635280078269        1.21384676554257        1.06623886011641
H            3.99972461914055        1.03543152072628       -0.68004689404244
H            2.69137359972676        2.10189571520228       -0.08708431514619
H            3.59154061970369       -1.64729720117739        0.04887702427849
H           -1.67524522135887        3.09831678066741       -0.02702086473438
H           -2.83007926216759        2.10288121655589       -0.95373463106312
H           -2.88299557548733        2.08685522329904        0.81349504559746
H           -1.17193043846740       -3.19172191095202        0.83176160852591
H           -1.14802964117014       -3.17002737813425       -0.95719041247815
H           -2.56147181935379       -2.54809444416829       -0.07416381228582
H            1.45124044704708       -2.97497516674803       -0.01331091094460
25
 energy: -43.838210583325 gnorm: 0.008494563717 xtb: 6.6.1 (8d0f1dd)
C            3.23762318669157        1.17422695328636        0.08752437211876
N            2.29982860396280        0.10099097244217        0.03586295313489
C            2.60536271165579       -1.24310055064964        0.03160086499310
N            1.43294614296917       -1.96459762720150        0.00170881926500
C            0.40457643008907       -1.08005809232263       -0.00817952032686
C            0.91495714154815        0.21383155454618        0.01477717653213
C            0.10870230721518        1.38017356880861       -0.00667707494738
O            0.49075926346110        2.55714806253787       -0.00663967582577
N           -1.27087083692120        1.05254722696418       -0.03273512494483
C           -2.22205109316363        2.15465605949736       -0.05072458329991
C           -1.81661402616712       -0.19453564577323       -0.04809716040337
O           -3.01580136684360       -0.38148559347364       -0.07090901704022
N           -0.93875008676191       -1.30146867113466       -0.03750084697973
C           -1.47630075982915       -2.63958771714502       -0.05977085923218
H            3.72738030045352        1.21417940222320        1.06454413620645
H            4.00266273516791        1.04480119199958       -0.68031002446989
H            2.69853369487738        2.10538255721749       -0.07683878527279
H            3.58374772661017       -1.64721275098161        0.04706508623849
H           -1.66196082543961        3.08857741451538       -0.02754927379224
H           -2.82856376981933        2.10016385695657       -0.95439475140127
H           -2.87858951832080        2.08365599722102        0.81598037972516
H           -1.16953546449751       -3.18915601488271        0.83286000715968
H           -1.14599829143924       -3.16911805307760       -0.95615534402485
H           -2.56086585372984       -2.55219290274992       -0.07355499502155
H            1.44748802629273       -2.98113016900088       -0.01234959630030
25
 energy: -43.838220404978 gnorm: 0.005601055776 xtb: 6.6.1 (8d0f1dd)
C            3.23860577194872        1.17452045668308        0.08455902620244
N            2.30286480400125        0.09943622956679        0.03632060353755
C            2.60624111841408       -1.24365885875170        0.03415402276453
N            1.43274805785073       -1.96233196582083        0.00241142814383
C            0.40532532816239       -1.07840252811120       -0.00764766707549
C            0.91771729387040        0.21416161016158        0.01623914740013
C            0.11223433271373        1.38056873334761       -0.00250187688979
O            0.49429302701405        2.55608322244606        0.00039481590914
N           -1.26963522427100        1.05300600307261       -0.03025384434667
C           -2.22293184023990        2.15247878730115       -0.05010479281592
C           -1.81585520805851       -0.19410823854376       -0.04731963784876
O           -3.01453370942547       -0.38224995030808       -0.07142211232983
N           -0.93790626966370       -1.30016027308569       -0.03738726171595
C           -1.47697720387163       -2.63814129149335       -0.06126809144424
H            3.72297648977667        1.22427894072445        1.06411361087688
H            4.00634467254112        1.04395986195045       -0.68063966200532
H            2.69376424379569        2.10156801613568       -0.08926020313988
H            3.58513676900247       -1.65096508554741        0.05009157338294
H           -1.66391971484719        3.08637444460609       -0.02556439482387
H           -2.82747084326700        2.09775619427715       -0.95497731165131
H           -2.88236833686086        2.08132757430116        0.81432244557549
H           -1.17243726309341       -3.19027609377606        0.83037469873227
H           -1.14841842422364       -3.16797598528127       -0.95792171904486
H           -2.56139145557512       -2.54787589152605       -0.07516192128017
H            1.44425996236774       -2.98268288250553       -0.01201371402263
25
 energy: -43.838267393332 gnorm: 0.003550069046 xtb: 6.6.1 (8d0f1dd)
C            3.23797110497187        1.17378833469209        0.08769565861443
N            2.30321945556243        0.09926237560880        0.03562568059907
C            2.60735647526050       -1.24297050410908        0.03137017927014
N            1.43373452180409       -1.96077018633611        0.00028045254690
C            0.40547640163225       -1.07836193946427       -0.00875499905255
C            0.91774264405541        0.21409712988547        0.01454942487845
C            0.11292629213063        1.38035729222487       -0.00576706389922
O            0.49505857750774        2.55552968789412       -0.00465551376712
N           -1.27045178096049        1.05329259876137       -0.03207687948151
C           -2.22322855675163        2.15412035554476       -0.05093198228053
C           -1.81649396170682       -0.19434408703631       -0.04750799370772
O           -3.01530470524095       -0.38287181915775       -0.07044898635171
N           -0.93799874575702       -1.30059008215791       -0.03729130383847
C           -1.47606701736548       -2.63935802918199       -0.05931610078488
H            3.72239489548360        1.21574549622293        1.06759109400194
H            4.00351312912228        1.04341559830759       -0.67957116585396
H            2.69326236176533        2.10229992500731       -0.08070005694790
H            3.58718293054630       -1.65009608803651        0.04655932469024
H           -1.66662953861123        3.08955968637156       -0.02807275881840
H           -2.83045445558458        2.10067559632569       -0.95401486227217
H           -2.88142071516346        2.08522876551580        0.81453377354266
H           -1.17052401497007       -3.19044782671797        0.83269812703786
H           -1.14726314398956       -3.17030650313984       -0.95528478271071
H           -2.56069887338480       -2.55013657054285       -0.07281369030163
H            1.44536309770527       -2.98042817665885       -0.01415841302273
25
 energy: -43.838264103096 gnorm: 0.003056134185 xtb: 6.6.1 (8d0f1dd)
C            3.23746505389444        1.17413175872437        0.08535183889175
N            2.30174691029664        0.10006896773570        0.03614557938600
C            2.60659114933144       -1.24246019235622        0.03379264085365
N            1.43382132112944       -1.96149627187662        0.00370604392172
C            0.40486999507776       -1.07971771023099       -0.00708982839785
C            0.91591198216437        0.21388607047496        0.01594886980848
C            0.11205033551638        1.37994172940204       -0.00484273265434
O            0.49208328236928        2.55616220539634       -0.00403446197948
N           -1.27159403795989        1.05233532111732       -0.03175772473070
C           -2.22205616842278        2.15454458994143       -0.05003825648915
C           -1.81712087725654       -0.19489808547739       -0.04812924266354
O           -3.01616915556775       -0.38289871235628       -0.07213318350576
N           -0.93884120743102       -1.30162606296102       -0.03732117488625
C           -1.47663914632047       -2.64009675225284       -0.06126026290894
H            3.72596030936818        1.21523026946629        1.06302043467298
H            4.00110661902341        1.04150000985604       -0.68319687280737
H            2.69667120314117        2.10488028025630       -0.08171814062728
H            3.58631192748707       -1.64780329421715        0.04945398949000
H           -1.66430471117478        3.08971080196044       -0.02583191392641
H           -2.82826513453704        2.10190518527584       -0.95393198034783
H           -2.87997561881942        2.08446998826718        0.81559683801267
H           -1.17107613025577       -3.19102261930185        0.83089930737573
H           -1.14617449649739       -3.16911464412247       -0.95785438030181
H           -2.56134908617481       -2.55143075735084       -0.07580611808997
H            1.44764205967968       -2.97951104554764       -0.00943210600579
25
 energy: -43.838281794363 gnorm: 0.001917815984 xtb: 6.6.1 (8d0f1dd)
C            3.23752779256970        1.17425214580013        0.08673856123754
N            2.30211679154168        0.09951333191356        0.03577502642106
C            2.60629627992399       -1.24327613163749        0.03236407352325
N            1.43359612187492       -1.96221126294121        0.00088748419472
C            0.40509157930922       -1.07992559786549       -0.00835109351714
C            0.91625033383874        0.21380509974831        0.01516318224971
C            0.11299180417294        1.38020485461848       -0.00468937497028
O            0.49264879670274        2.55650935675682       -0.00322735509500
N           -1.27099707768466        1.05249583556499       -0.03155203320580
C           -2.22218708048982        2.15359212639751       -0.05077755199544
C           -1.81643432239326       -0.19439733685986       -0.04751460163828
O           -3.01543132873906       -0.38219713374917       -0.07068551970457
N           -0.93855492813614       -1.30122372929146       -0.03734924000840
C           -1.47701315020274       -2.63924394028275       -0.05987838190914
H            3.72338641780565        1.21815970392151        1.06559651536463
H            4.00410594127577        1.04339662290875       -0.67921800143977
H            2.69586597818454        2.10391156255424       -0.08275449014020
H            3.58561635814405       -1.64902180792253        0.04770725236389
H           -1.66451109324347        3.08878879456679       -0.02722293793912
H           -2.82794367841398        2.09909165536230       -0.95493242163384
H           -2.88039811285938        2.08308020800268        0.81468898830818
H           -1.17083330634782       -3.18950811761508        0.83243984435272
H           -1.14791747951948       -3.16890375301173       -0.95653291688520
H           -2.56159786727625       -2.54960721552430       -0.07317407932256
H            1.44699160802373       -2.98059424159207       -0.01396376652047
25
 energy: -43.838269981815 gnorm: 0.002922384830 xtb: 6.6.1 (8d0f1dd)
C            3.23817665498910        1.17343357605993        0.08640221069427
N            2.30337034344512        0.09859243086414        0.03573698009284
C            2.60657777668641       -1.24364073274764        0.03261954690839
N            1.43338690903352       -1.96122506895425        0.00241987085929
C            0.40537668780064       -1.07869258637292       -0.00793284253793
C            0.91743121784735        0.21432629602803        0.01503529799826
C            0.11397645132426        1.38089197775184       -0.00561750586103
O            0.49470017357331        2.55632955574862       -0.00457345991682
N           -1.27085494078281        1.05358807786768       -0.03197923004501
C           -2.22363378713695        2.15409179698757       -0.05014218419666
C           -1.81626084550103       -0.19380463168475       -0.04788997172486
O           -3.01494088832181       -0.38242367274199       -0.07128427775015
N           -0.93790420814487       -1.30033130714290       -0.03738952660662
C           -1.47539362312423       -2.63925843912353       -0.06055979973535
H            3.72383129179641        1.21699625313128        1.06563956121161
H            4.00340179405933        1.04407906788578       -0.68145213307937
H            2.69254226515298        2.10121176790799       -0.08193999540821
H            3.58615832296090       -1.65088016744014        0.04788924471470
H           -1.66654068269771        3.08929101754568       -0.02704212888456
H           -2.83145156391924        2.10117050780120       -0.95299737939686
H           -2.88183773176325        2.08503732906666        0.81546053607595
H           -1.17061332863624       -3.19075769121637        0.83139971393149
H           -1.14536312497484       -3.16963958486616       -0.95636136335959
H           -2.55993885680226       -2.55056061448237       -0.07530506748618
H            1.44447007119750       -2.98113412805048       -0.01059893440710
25
 energy: -43.838285038190 gnorm: 0.001354073050 xtb: 6.6.1 (8d0f1dd)
C            3.23797800028890        1.17391651478258        0.08639838182085
N            2.30292477030727        0.09924245655079        0.03591626630095
C            2.60668583481424       -1.24289570267128        0.03264271480068
N            1.43388285411200       -1.96109170050366        0.00185868500778
C            0.40526134140639       -1.07913552519426       -0.00792618809452
C            0.91687958510464        0.21422308552073        0.01541761563645
C            0.11346534706906        1.38047825464589       -0.00483468604719
O            0.49358050960567        2.55620899868625       -0.00361344624219
N           -1.27120377437007        1.05287651881559       -0.03168150309404
C           -2.22289776927574        2.15401392140975       -0.05056911441617
C           -1.81661329502766       -0.19439552110295       -0.04770347056893
O           -3.01537136388024       -0.38296007904945       -0.07128554711511
N           -0.93819475792438       -1.30093097619698       -0.03725704083293
C           -1.47630005637162       -2.63953902466671       -0.06026456599963
H            3.72412353888683        1.21662814926661        1.06535276031877
H            4.00297616599476        1.04308178732481       -0.68132853109232
H            2.69430762592554        2.10282313623846       -0.08196439782546
H            3.58647509323767       -1.64930642846513        0.04797699084903
H           -1.66522908899240        3.08899373786766       -0.02690180217901
H           -2.82946986945087        2.10111697197945       -0.95424392292112
H           -2.88148982776528        2.08481169123441        0.81469190259406
H           -1.17106574182475       -3.19092364412486        0.83163891750801
H           -1.14710270165664       -3.16974003743676       -0.95650555914065
H           -2.56088871020477       -2.55035132880703       -0.07418193216445
H            1.44595266805305       -2.98045422628098       -0.01209536501237
25
 energy: -43.826817101349 gnorm: 0.090868055606 xtb: 6.6.1 (8d0f1dd)
C            3.23322125214382        1.17395400549794        0.08530579503542
N            2.29344540888104        0.09374189888433        0.03896933376904
C            2.60125392719815       -1.23947542808014        0.03356820312419
N            1.45410221399657       -1.98181878950020        0.00188254561312
C            0.40456344162195       -1.09234801901636       -0.00813034602456
C            0.91181369152299        0.20392000927471        0.01549621288363
C            0.09391607189759        1.38378361820616       -0.00569973747588
O            0.49357702294321        2.56169597998226       -0.00299041114452
N           -1.26653448778666        1.06272160045180       -0.03217117620862
C           -2.22742439041842        2.16381276303735       -0.05131909263511
C           -1.82446759834306       -0.19242887859497       -0.04843946873159
O           -3.01497512803996       -0.37288027437908       -0.07154437420425
N           -0.94277851418530       -1.29796416801543       -0.03801258607676
C           -1.48041296148554       -2.63659537226284       -0.06009889764258
H            3.72596783179284        1.21354059166196        1.05990020386160
H            3.99393713378953        1.04571458981420       -0.68353651759664
H            2.69246246939938        2.11084644918530       -0.07506208658081
H            3.58628657500745       -1.63540299598146        0.05699589100912
H           -1.67251012466728        3.10429860150879       -0.02880460842498
H           -2.83122740559966        2.10543093572469       -0.95365860111341
H           -2.88307386245339        2.08915217761422        0.81374223119540
H           -1.17309401151159       -3.18157903293072        0.83223084271351
H           -1.15109019848777       -3.16002717437358       -0.95695535366247
H           -2.56211035939395       -2.54649921852432       -0.07343491562180
H            1.57384799934099       -3.09740698132837       -0.01165457373785
25
 energy: -43.833695114982 gnorm: 0.032586510650 xtb: 6.6.1 (8d0f1dd)
C            3.24059834727028        1.17862028552726        0.08717921119471
N            2.30613147766883        0.09900782458448        0.03726437180293
C            2.61219941928714       -1.24291240294531        0.03291094555085
N            1.44267216142049       -1.96547452964894        0.00255167466278
C            0.40689214062509       -1.08646729515298       -0.00847174693887
C            0.91947303521516        0.20526468956829        0.01416972896992
C            0.10352839258206        1.37193530166646       -0.00607707682661
O            0.49618645521689        2.54782973051410       -0.00417516293873
N           -1.26907626596006        1.04993049560093       -0.03245057517122
C           -2.22374968962466        2.15220248345371       -0.05125802920031
C           -1.82348568990736       -0.19910567943582       -0.04866834992962
O           -3.02102145273458       -0.38432709571797       -0.07194395655104
N           -0.94078540728803       -1.30079889021422       -0.03810852288960
C           -1.48148417482974       -2.63849156844085       -0.06025660300883
H            3.73328236472356        1.21880643476289        1.06320231640473
H            3.99930651068453        1.05443082039956       -0.68703390293815
H            2.69050502018541        2.10653653526524       -0.07226438729621
H            3.59516026922845       -1.64908331682465        0.05678127573963
H           -1.65708376309241        3.08240022128787       -0.02801033026505
H           -2.82966001042818        2.10223256125299       -0.95499517725512
H           -2.88092183041250        2.08660703293662        0.81500719192947
H           -1.17287821950466       -3.18724043812452        0.83119581951978
H           -1.15055023127158       -3.16663217200604       -0.95610232022609
H           -2.56589517377621       -2.54782065193068       -0.07330472127317
H            1.49935231188501       -3.00926348852216       -0.01056316074296
25
 energy: -43.834281840586 gnorm: 0.016097955396 xtb: 6.6.1 (8d0f1dd)
C            3.23086982035112        1.17494547644753        0.08605680148182
N            2.30099588175478        0.09510754251842        0.03637081116527
C            2.61670575283070       -1.24824928725964        0.03437430078020
N            1.45264265992976       -1.98378896814894        0.00250238666412
C            0.41317274560040       -1.10146705078637       -0.00817294591048
C            0.91526852509013        0.19820904828361        0.01438480807168
C            0.10861953689092        1.36998811382425       -0.00456171764866
O            0.49722279203621        2.54623722672097       -0.00170440645166
N           -1.27168346768003        1.05447530816042       -0.03171059529013
C           -2.22550837706995        2.16016050856635       -0.05110279505385
C           -1.81683319012502       -0.19460422172766       -0.04801722535973
O           -3.01670043287240       -0.37949263910682       -0.07159103175838
N           -0.93717932444416       -1.30334988228898       -0.03765104288084
C           -1.48332679255546       -2.63669251345467       -0.06030670731743
H            3.72191247120871        1.21316480290888        1.06263517297719
H            3.99162945536360        1.04308062021403       -0.68522359203358
H            2.68672860465326        2.10455608923710       -0.07774998193520
H            3.60151167880654       -1.64210928779170        0.05841560788428
H           -1.67520185116974        3.10056063660998       -0.02847402208265
H           -2.83377939154149        2.10817173886715       -0.95374868282989
H           -2.88574525756748        2.09262329447778        0.81314732591661
H           -1.17537466484368       -3.18531327461428        0.83209834965017
H           -1.15303367357655       -3.16367299881123       -0.95772403744828
H           -2.56732486379130       -2.54137054397259       -0.07336545760705
H            1.53310735988406       -3.00298285101736       -0.01230281066031
25
 energy: -43.834551126790 gnorm: 0.007709170761 xtb: 6.6.1 (8d0f1dd)
C            3.23452145743943        1.17558041536551        0.08742615893262
N            2.29854641358590        0.09797209553800        0.03620559330736
C            2.60955740827179       -1.24757300232845        0.03285390691593
N            1.44594066715721       -1.98638064297107        0.00274411020584
C            0.40982036608126       -1.09854461234517       -0.00839111772990
C            0.91208482976864        0.20271960023119        0.01421721089279
C            0.10676361820557        1.37443496142937       -0.00640338081614
O            0.48878188609294        2.55285348222141       -0.00513584375255
N           -1.27477377503740        1.05451143549000       -0.03302353028714
C           -2.22468680792895        2.15885602965603       -0.05133192513212
C           -1.81957151589849       -0.19323453899297       -0.04872718887676
O           -3.01927806269096       -0.37931942137462       -0.07191728371589
N           -0.93993827724024       -1.30121926753415       -0.03786622565051
C           -1.48036353363695       -2.63712759556103       -0.05984595182792
H            3.73192116748481        1.21286545223247        1.06114671009329
H            3.99559821464569        1.04975189377419       -0.68519172798896
H            2.69554686125468        2.10926791506172       -0.06996842455891
H            3.59247148631477       -1.64243453964224        0.05545585989682
H           -1.66347511535678        3.09279453299634       -0.02866572911139
H           -2.83142225058980        2.10545800136356       -0.95496985191704
H           -2.88202644803490        2.08935278662047        0.81508187792043
H           -1.16974880260348       -3.18424065788711        0.83245505222500
H           -1.14742591449837       -3.16370450976827       -0.95639417974719
H           -2.56440828742115       -2.54997697447897       -0.07318134777949
H            1.52426041179767       -3.01447595123998       -0.00999425917492
25
 energy: -43.834557632455 gnorm: 0.006176697212 xtb: 6.6.1 (8d0f1dd)
C            3.23494888927775        1.17748859941787        0.08554147967800
N            2.30174578910697        0.09822353516227        0.03687561594672
C            2.61257896375180       -1.24659496981698        0.03548075518352
N            1.44750696825699       -1.98432613123254        0.00255208478186
C            0.41148984256070       -1.09722583660583       -0.00821166859255
C            0.91473416060954        0.20264478150777        0.01511099683441
C            0.11089548636468        1.37338393094854       -0.00420775700504
O            0.49409726715202        2.55074651375115       -0.00110656967295
N           -1.27278825620193        1.05330829059199       -0.03151441488099
C           -2.22424387624311        2.15568331802132       -0.05075192836608
C           -1.81774889920995       -0.19381340075593       -0.04805027434024
O           -3.01701880190274       -0.38162493540330       -0.07170594804001
N           -0.93844569053401       -1.30094267193900       -0.03792887275935
C           -1.48349454308869       -2.63544725431719       -0.06091118161677
H            3.72744451373685        1.22230950040740        1.06173075218578
H            3.99799006803956        1.05127206030083       -0.68542695637111
H            2.68849450492908        2.10600325752273       -0.07934616450901
H            3.59588439506814       -1.64277212427347        0.05938768894776
H           -1.66425221113970        3.08990189217660       -0.02755725592164
H           -2.83030552766364        2.10211914520151       -0.95469993858992