      -----------------------------------------------------------      
     |                   =====================                   |     
     |                           x T B                           |     
     |                   =====================                   |     
     |                         S. Grimme                         |     
     |          Mulliken Center for Theoretical Chemistry        |     
     |                    University of Bonn                     |     
      -----------------------------------------------------------      

   * xtb version 6.6.1 (8d0f1dd) compiled by 'conda@1efc2f54142f' on 2023-08-01

   xtb is free software: you can redistribute it and/or modify it under
   the terms of the GNU Lesser General Public License as published by
   the Free Software Foundation, either version 3 of the License, or
   (at your option) any later version.
   
   xtb is distributed in the hope that it will be useful,
   but WITHOUT ANY WARRANTY; without even the implied warranty of
   MERCHANTABILITY or FITNESS FOR A PARTICULAR PURPOSE.  See the
   GNU Lesser General Public License for more details.
   
   Cite this work as:
   * C. Bannwarth, E. Caldeweyher, S. Ehlert, A. Hansen, P. Pracht,
     J. Seibert, S. Spicher, S. Grimme, WIREs Comput. Mol. Sci., 2020, 11,
     e01493. DOI: 10.1002/wcms.1493
   
   for GFN2-xTB:
   * C. Bannwarth, S. Ehlert and S. Grimme., J. Chem. Theory Comput., 2019,
     15, 1652-1671. DOI: 10.1021/acs.jctc.8b01176
   for GFN1-xTB:
   * S. Grimme, C. Bannwarth, P. Shushkov, J. Chem. Theory Comput., 2017,
     13, 1989-2009. DOI: 10.1021/acs.jctc.7b00118
   for GFN0-xTB:
   * P. Pracht, E. Caldeweyher, S. Ehlert, S. Grimme, ChemRxiv, 2019, preprint.
     DOI: 10.26434/chemrxiv.8326202.v1
   for GFN-FF:
   * S. Spicher and S. Grimme, Angew. Chem. Int. Ed., 2020, 59, 15665-15673.
     DOI: 10.1002/anie.202004239
   
   for ALPB and GBSA implicit solvation:
   * S. Ehlert, M. Stahn, S. Spicher, S. Grimme, J. Chem. Theory Comput.,
     2021, 17, 4250-4261. DOI: 10.1021/acs.jctc.1c00471
   
   for DFT-D4:
   * E. Caldeweyher, C. Bannwarth and S. Grimme, J. Chem. Phys., 2017,
     147, 034112. DOI: 10.1063/1.4993215
   * E. Caldeweyher, S. Ehlert, A. Hansen, H. Neugebauer, S. Spicher,
     C. Bannwarth and S. Grimme, J. Chem. Phys., 2019, 150, 154122.
     DOI: 10.1063/1.5090222
   * E. Caldeweyher, J.-M. Mewes, S. Ehlert and S. Grimme, Phys. Chem. Chem. Phys.
     2020, 22, 8499-8512. DOI: 10.1039/D0CP00502A
   
   for sTDA-xTB:
   * S. Grimme and C. Bannwarth, J. Chem. Phys., 2016, 145, 054103.
     DOI: 10.1063/1.4959605
   
   in the mass-spec context:
   * V. Asgeirsson, C. Bauer and S. Grimme, Chem. Sci., 2017, 8, 4879.
     DOI: 10.1039/c7sc00601b
   * J. Koopman and S. Grimme, ACS Omega 2019, 4, 12, 15120-15133.
     DOI: 10.1021/acsomega.9b02011
   
   for metadynamics refer to:
   * S. Grimme, J. Chem. Theory Comput., 2019, 155, 2847-2862
     DOI: 10.1021/acs.jctc.9b00143
   
   for SPH calculations refer to:
   * S. Spicher and S. Grimme, J. Chem. Theory Comput., 2021, 17, 1701-1714
     DOI: 10.1021/acs.jctc.0c01306
   
   with help from (in alphabetical order)
   P. Atkinson, C. Bannwarth, F. Bohle, G. Brandenburg, E. Caldeweyher
   M. Checinski, S. Dohm, S. Ehlert, S. Ehrlich, I. Gerasimov, C. Hölzer
   A. Katbashev, J. Koopman, C. Lavigne, S. Lehtola, F. März, M. Müller,
   F. Musil, H. Neugebauer, J. Pisarek, C. Plett, P. Pracht, F. Pultar,
   J. Seibert, P. Shushkov, S. Spicher, M. Stahn, M. Steiner, T. Strunk,
   J. Stückrath, T. Rose, and J. Unsleber
   
 * started run on 2024/06/05 at 19:58:04.934     

           -------------------------------------------------
          |                Calculation Setup                |
           -------------------------------------------------

          program call               : xtb struc.xyz --opt loose --input .xc1 --gfn2
          hostname                   : n-62-12-66
          coordinate file            : struc.xyz
          omp threads                :                     1

   ID    Z sym.   atoms
    1    6 C      1, 3, 5-7, 10, 11, 14
    2    7 N      2, 4, 9, 13
    3    8 O      8, 12
    4    1 H      15-25
constraining bond 8 15 to    5.6333300 Å, actual value:    3.6386098 Å

           -------------------------------------------------
          |                 G F N 2 - x T B                 |
           -------------------------------------------------

        Reference                      10.1021/acs.jctc.8b01176
      * Hamiltonian:
        H0-scaling (s, p, d)           1.850000    2.230000    2.230000
        zeta-weighting                 0.500000
      * Dispersion:
        s8                             2.700000
        a1                             0.520000
        a2                             5.000000
        s9                             5.000000
      * Repulsion:
        kExp                           1.500000    1.000000
        rExp                           1.000000
      * Coulomb:
        alpha                          2.000000
        third order                    shell-resolved
        anisotropic                    true
        a3                             3.000000
        a5                             4.000000
        cn-shift                       1.200000
        cn-exp                         4.000000
        max-rad                        5.000000


          ...................................................
          :                      SETUP                      :
          :.................................................:
          :  # basis functions                  67          :
          :  # atomic orbitals                  67          :
          :  # shells                           39          :
          :  # electrons                        74          :
          :  max. iterations                   250          :
          :  Hamiltonian                  GFN2-xTB          :
          :  restarted?                      false          :
          :  GBSA solvation                  false          :
          :  PC potential                    false          :
          :  electronic temp.         5000.0000000     K    :
          :  accuracy                    1.0000000          :
          :  -> integral cutoff          0.2500000E+02      :
          :  -> integral neglect         0.1000000E-07      :
          :  -> SCF convergence          0.1000000E-05 Eh   :
          :  -> wf. convergence          0.1000000E-03 e    :
          :  Broyden damping             0.4000000          :
          ...................................................

 iter      E             dE          RMSdq      gap      omega  full diag
   1    -42.5894031 -0.425894E+02  0.445E+00    3.52       0.0  T
   2    -42.7683054 -0.178902E+00  0.251E+00    3.36       1.0  T
   3    -42.7759211 -0.761567E-02  0.147E+00    3.35       1.0  T
   4    -42.7728404  0.308066E-02  0.553E-01    3.33       1.0  T
   5    -42.7789548 -0.611444E-02  0.112E-01    3.35       1.0  T
   6    -42.7790473 -0.924914E-04  0.614E-02    3.33       1.0  T
   7    -42.7790721 -0.247928E-04  0.258E-02    3.34       1.0  T
   8    -42.7790772 -0.508996E-05  0.938E-03    3.34       2.1  T
   9    -42.7790779 -0.669422E-06  0.448E-03    3.34       4.5  T
  10    -42.7790780 -0.821510E-07  0.115E-03    3.34      17.4  T
  11    -42.7790780 -0.322663E-08  0.553E-04    3.34      36.2  T
  12    -42.7790780 -0.287051E-08  0.180E-04    3.34     111.1  T

   *** convergence criteria satisfied after 12 iterations ***

         #    Occupation            Energy/Eh            Energy/eV
      -------------------------------------------------------------
         1        2.0000           -0.9185990             -24.9964
       ...           ...                  ...                  ...
        31        1.9996           -0.6230278             -16.9534
        32        1.9995           -0.6194601             -16.8564
        33        1.9979           -0.5974976             -16.2587
        34        1.9932           -0.5789629             -15.7544
        35        1.9817           -0.5631863             -15.3251
        36        1.9779           -0.5602245             -15.2445
        37        1.9748           -0.5581234             -15.1873 (HOMO)
        38        0.0652           -0.4353579             -11.8467 (LUMO)
        39        0.0099           -0.4050467             -11.0219
        40        0.0013           -0.3732218             -10.1559
        41        0.0000           -0.2886859              -7.8555
        42                         -0.2065804              -5.6213
       ...                                ...                  ...
        67                          0.5625656              15.3082
      -------------------------------------------------------------
                  HL-Gap            0.1227656 Eh            3.3406 eV
             Fermi-level           -0.4890455 Eh          -13.3076 eV

 SCC (total)                   0 d,  0 h,  0 min,  0.030 sec
 SCC setup                      ...        0 min,  0.000 sec (  0.870%)
 Dispersion                     ...        0 min,  0.000 sec (  0.776%)
 classical contributions        ...        0 min,  0.000 sec (  0.241%)
 integral evaluation            ...        0 min,  0.005 sec ( 15.283%)
 iterations                     ...        0 min,  0.014 sec ( 46.462%)
 molecular gradient             ...        0 min,  0.011 sec ( 35.883%)
 printout                       ...        0 min,  0.000 sec (  0.463%)

         :::::::::::::::::::::::::::::::::::::::::::::::::::::
         ::                     SUMMARY                     ::
         :::::::::::::::::::::::::::::::::::::::::::::::::::::
         :: total energy             -56.456797307454 Eh    ::
         :: gradient norm             10.661088070523 Eh/a0 ::
         :: HOMO-LUMO gap              3.340621582928 eV    ::
         ::.................................................::
         :: SCC energy               -42.779077977399 Eh    ::
         :: -> isotropic ES            0.141123876439 Eh    ::
         :: -> anisotropic ES         -0.005230418907 Eh    ::
         :: -> anisotropic XC          0.011966818540 Eh    ::
         :: -> dispersion             -0.022657731803 Eh    ::
         :: repulsion energy           0.531105277918 Eh    ::
         :: add. restraining         -14.208938766983 Eh    ::
         :: total charge               1.000000000002 e     ::
         :::::::::::::::::::::::::::::::::::::::::::::::::::::

      ----------------------------------------------------------- 
     |                   =====================                   |
     |                        A N C O P T                        |
     |                   =====================                   |
     |               Approximate Normal Coordinate               |
     |                Rational Function Optimizer                |
      ----------------------------------------------------------- 

          ...................................................
          :                      SETUP                      :
          :.................................................:
          :   optimization level             loose          :
          :   max. optcycles                   200          :
          :   ANC micro-cycles                  20          :
          :   degrees of freedom                69          :
          :.................................................:
          :   RF solver                   davidson          :
          :   write xtbopt.log                true          :
          :   linear?                        false          :
          :   energy convergence         0.5000000E-04 Eh   :
          :   grad. convergence          0.4000000E-02 Eh/α :
          :   maxmium RF displ.          1.0000000          :
          :   Hlow (freq-cutoff)         0.1000000E-01      :
          :   Hmax (freq-cutoff)         5.0000000          :
          :   S6 in model hess.         20.0000000          :
          ...................................................

generating ANC from model Hessian ...
Using Lindh-Hessian (1995)
 Shifting diagonal of input Hessian by    3.8411808037655071     
 Lowest  eigenvalues of input Hessian
    0.010000    0.000000    0.000000    0.000000    0.000000    0.000000
    0.000000    3.844756    3.846621    3.850489    3.851846    3.851956
    3.852907    3.859737    3.860783    3.867625    3.880247    3.882634
 Highest eigenvalues
    6.018738    6.075869    6.132033    6.148689    6.356271    7.035186


........................................................................
.............................. CYCLE    1 ..............................
........................................................................

 iter      E             dE          RMSdq      gap      omega  full diag
   1    -42.7790780 -0.427791E+02  0.626E-05    3.34       0.0  T
   2    -42.7790780 -0.124416E-10  0.329E-05    3.34     607.4  T
   3    -42.7790780  0.127898E-12  0.193E-05    3.34    1034.2  T
     SCC iter.                  ...        0 min,  0.003 sec
     gradient                   ...        0 min,  0.008 sec
 * total energy  :   -56.4567973 Eh     change       -0.6650680E-10 Eh
   gradient norm :    10.6610881 Eh/α   predicted     0.0000000E+00 (-100.00%)
   displ. norm   :     0.9991376 α      lambda       -0.1064836E+02
   maximum displ.:     0.9982362 α      in ANC's #1, #49, #46, ...

........................................................................
.............................. CYCLE    2 ..............................
........................................................................

 iter      E             dE          RMSdq      gap      omega  full diag
   1    -42.7564524 -0.427565E+02  0.747E-01    3.26       0.0  T
   2    -42.7573935 -0.941120E-03  0.412E-01    3.18       1.0  T
   3    -42.7573590  0.345689E-04  0.146E-01    3.22       1.0  T
   4    -42.7575298 -0.170821E-03  0.328E-02    3.20       1.0  T
   5    -42.7575357 -0.595374E-05  0.171E-02    3.20       1.2  T
   6    -42.7575362 -0.418657E-06  0.867E-03    3.20       2.3  T
   7    -42.7575373 -0.113141E-05  0.229E-03    3.20       8.7  T
   8    -42.7575373 -0.379181E-07  0.108E-03    3.20      18.5  T
   9    -42.7575373 -0.276962E-08  0.277E-04    3.20      72.2  T
  10    -42.7575373 -0.714962E-09  0.120E-04    3.20     166.4  T
     SCC iter.                  ...        0 min,  0.008 sec
     gradient                   ...        0 min,  0.008 sec
 * total energy  :   -69.0431706 Eh     change       -0.1258637E+02 Eh
   gradient norm :    14.5401995 Eh/α   predicted    -0.1064088E+02 ( -15.46%)
   displ. norm   :     0.9994493 α      lambda       -0.1453122E+02
   maximum displ.:     0.9988044 α      in ANC's #1, #49, #46, ...

........................................................................
.............................. CYCLE    3 ..............................
........................................................................

 iter      E             dE          RMSdq      gap      omega  full diag
   1    -42.6280586 -0.426281E+02  0.794E-01    2.27       0.0  T
   2    -42.6326241 -0.456550E-02  0.452E-01    2.33       1.0  T
   3    -42.6342060 -0.158193E-02  0.247E-01    2.30       1.0  T
   4    -42.6344495 -0.243507E-03  0.963E-02    2.35       1.0  T
   5    -42.6345648 -0.115290E-03  0.347E-02    2.32       1.0  T
   6    -42.6345695 -0.468623E-05  0.143E-02    2.33       1.4  T
   7    -42.6345727 -0.319890E-05  0.383E-03    2.33       5.2  T
   8    -42.6345728 -0.124487E-06  0.206E-03    2.33       9.7  T
   9    -42.6345729 -0.265258E-07  0.820E-04    2.33      24.4  T
  10    -42.6345729 -0.449687E-08  0.291E-04    2.33      68.6  T
     SCC iter.                  ...        0 min,  0.008 sec
     gradient                   ...        0 min,  0.008 sec
 * total energy  :   -85.5517642 Eh     change       -0.1650859E+02 Eh
   gradient norm :    18.5148648 Eh/α   predicted    -0.1452322E+02 ( -12.03%)
   displ. norm   :     0.9995396 α      lambda       -0.1850544E+02
   maximum displ.:     0.9987854 α      in ANC's #1, #49, #46, ...

........................................................................
.............................. CYCLE    4 ..............................
........................................................................

 iter      E             dE          RMSdq      gap      omega  full diag
   1    -42.3744965 -0.423745E+02  0.170E+00    0.97       0.0  T
   2    -42.3084905  0.660061E-01  0.209E+00    2.47       1.0  T
   3    -42.4468124 -0.138322E+00  0.492E-01    1.51       1.0  T
   4    -42.4470871 -0.274679E-03  0.234E-01    1.49       1.0  T
   5    -42.4474964 -0.409334E-03  0.790E-02    1.50       1.0  T
   6    -42.4475057 -0.930265E-05  0.329E-02    1.51       1.0  T
   7    -42.4475151 -0.942274E-05  0.173E-02    1.51       1.2  T
   8    -42.4475196 -0.447482E-05  0.561E-03    1.50       3.6  T
   9    -42.4475201 -0.478717E-06  0.316E-03    1.50       6.3  T
  10    -42.4475202 -0.831646E-07  0.132E-03    1.50      15.1  T
  11    -42.4475202 -0.133722E-07  0.371E-04    1.50      53.9  T
  12    -42.4475202 -0.431399E-09  0.193E-04    1.50     103.9  T
     SCC iter.                  ...        0 min,  0.010 sec
     gradient                   ...        0 min,  0.008 sec
 * total energy  :  -106.0427955 Eh     change       -0.2049103E+02 Eh
   gradient norm :    22.4827935 Eh/α   predicted    -0.1849692E+02 (  -9.73%)
   displ. norm   :     0.9995325 α      lambda       -0.2247113E+02
   maximum displ.:     0.9983652 α      in ANC's #1, #49, #68, ...

........................................................................
.............................. CYCLE    5 ..............................
........................................................................

 iter      E             dE          RMSdq      gap      omega  full diag
   1    -41.9906972 -0.419907E+02  0.312E+00    0.53       0.0  T
   2    -41.1124343  0.878263E+00  0.522E+00    2.17       1.0  T
   3    -42.3520238 -0.123959E+01  0.136E+00    1.33       1.0  T
   4    -42.3601666 -0.814283E-02  0.990E-01    1.29       1.0  T
   5    -42.3562924  0.387421E-02  0.631E-01    1.39       1.0  T
   6    -42.3617217 -0.542925E-02  0.160E-01    1.32       1.0  T
   7    -42.3622882 -0.566540E-03  0.545E-02    1.33       1.0  T
   8    -42.3623196 -0.313649E-04  0.257E-02    1.33       1.0  T
   9    -42.3623211 -0.149104E-05  0.113E-02    1.33       1.8  T
  10    -42.3623228 -0.175678E-05  0.302E-03    1.33       6.6  T
  11    -42.3623229 -0.348473E-07  0.153E-03    1.33      13.0  T
  12    -42.3623229 -0.218325E-07  0.451E-04    1.33      44.4  T
  13    -42.3623229 -0.261558E-08  0.155E-04    1.33     129.0  T
     SCC iter.                  ...        0 min,  0.011 sec
     gradient                   ...        0 min,  0.008 sec
 * total energy  :  -130.3374399 Eh     change       -0.2429464E+02 Eh
   gradient norm :    24.9923015 Eh/α   predicted    -0.2246062E+02 (  -7.55%)
   displ. norm   :     0.9995117 α      lambda       -0.2497873E+02
   maximum displ.:     0.9979925 α      in ANC's #1, #49, #68, ...

........................................................................
.............................. CYCLE    6 ..............................
........................................................................

 iter      E             dE          RMSdq      gap      omega  full diag
   1    -42.1295321 -0.421295E+02  0.289E+00    0.66       0.0  T
   2    -42.0232561  0.106276E+00  0.340E+00    0.51       1.0  T
   3    -42.4036622 -0.380406E+00  0.171E+00    2.14       1.0  T
   4    -42.4315068 -0.278446E-01  0.124E+00    1.91       1.0  T
   5    -42.4382335 -0.672676E-02  0.835E-01    1.93       1.0  T
   6    -42.4416499 -0.341633E-02  0.281E-01    1.78       1.0  T
   7    -42.4429854 -0.133551E-02  0.140E-01    1.84       1.0  T
   8    -42.4432069 -0.221514E-03  0.690E-02    1.86       1.0  T
   9    -42.4432637 -0.567575E-04  0.126E-02    1.87       1.6  T
  10    -42.4432647 -0.100750E-05  0.414E-03    1.87       4.8  T
  11    -42.4432649 -0.257942E-06  0.203E-03    1.87       9.9  T
  12    -42.4432650 -0.476821E-07  0.567E-04    1.87      35.3  T
  13    -42.4432650 -0.346976E-08  0.236E-04    1.87      84.8  T
     SCC iter.                  ...        0 min,  0.011 sec
     gradient                   ...        0 min,  0.008 sec
 * total energy  :  -123.0851965 Eh     change        0.7252243E+01 Eh
   gradient norm :   237.1332106 Eh/α   predicted    -0.2496653E+02 (-444.26%)
   displ. norm   :     0.9999233 α      lambda       -0.2371142E+03
   maximum displ.:     0.9971425 α      in ANC's #1, #49, #68, ...

........................................................................
.............................. CYCLE    7 ..............................
........................................................................

 iter      E             dE          RMSdq      gap      omega  full diag
   1    -42.0577156 -0.420577E+02  0.321E+00    0.65       0.0  T
   2    -42.1140148 -0.562992E-01  0.297E+00    1.42       1.0  T
   3    -42.3345457 -0.220531E+00  0.125E+00    1.85       1.0  T
   4    -42.3534295 -0.188838E-01  0.681E-01    1.49       1.0  T
   5    -42.3595030 -0.607355E-02  0.303E-01    1.28       1.0  T
   6    -42.3600856 -0.582613E-03  0.131E-01    1.30       1.0  T
   7    -42.3603771 -0.291492E-03  0.476E-02    1.33       1.0  T
   8    -42.3604082 -0.310642E-04  0.175E-02    1.34       1.1  T
   9    -42.3604118 -0.359787E-05  0.739E-03    1.34       2.7  T
  10    -42.3604122 -0.438987E-06  0.268E-03    1.34       7.5  T
  11    -42.3604122 -0.383431E-08  0.173E-03    1.34      11.6  T
  12    -42.3604123 -0.484131E-07  0.692E-04    1.34      28.9  T
  13    -42.3604123 -0.840912E-08  0.164E-04    1.34     121.8  T
     SCC iter.                  ...        0 min,  0.010 sec
     gradient                   ...        0 min,  0.008 sec
 * total energy  :  -123.4655267 Eh     change       -0.3803302E+00 Eh
   gradient norm :    25.5123408 Eh/α   predicted    -0.2370966E+03 (*******%)
   displ. norm   :     0.1591020 α      lambda       -0.2558751E+01
   maximum displ.:     0.0922959 α      in ANC's #1, #23, #68, ...

........................................................................
.............................. CYCLE    8 ..............................
........................................................................

 iter      E             dE          RMSdq      gap      omega  full diag
   1    -42.4082072 -0.424082E+02  0.670E-01    1.93       0.0  T
   2    -42.4008740  0.733313E-02  0.816E-01    1.24       1.0  T
   3    -42.4191287 -0.182547E-01  0.189E-01    1.65       1.0  T
   4    -42.4190864  0.422577E-04  0.122E-01    1.55       1.0  T
   5    -42.4193380 -0.251537E-03  0.644E-02    1.57       1.0  T
   6    -42.4194131 -0.750663E-04  0.170E-02    1.58       1.2  T
   7    -42.4194165 -0.348237E-05  0.598E-03    1.59       3.3  T
   8    -42.4194170 -0.442205E-06  0.238E-03    1.59       8.4  T
   9    -42.4194170 -0.254879E-07  0.638E-04    1.59      31.4  T
  10    -42.4194170 -0.702187E-09  0.383E-04    1.59      52.2  T
     SCC iter.                  ...        0 min,  0.008 sec
     gradient                   ...        0 min,  0.008 sec
 * total energy  :  -125.9697599 Eh     change       -0.2504233E+01 Eh
   gradient norm :    25.5182397 Eh/α   predicted    -0.1311767E+01 ( -47.62%)
   displ. norm   :     0.9049650 α      lambda       -0.2271634E+02
   maximum displ.:     0.8852391 α      in ANC's #1, #57, #23, ...

........................................................................
.............................. CYCLE    9 ..............................
........................................................................

 iter      E             dE          RMSdq      gap      omega  full diag
   1    -42.4563216 -0.424563E+02  0.141E+00    1.96       0.0  T
   2    -42.4632246 -0.690305E-02  0.100E+00    1.85       1.0  T
   3    -42.4774213 -0.141967E-01  0.589E-01    1.96       1.0  T
   4    -42.4815578 -0.413651E-02  0.187E-01    2.02       1.0  T
   5    -42.4818368 -0.279022E-03  0.118E-01    1.98       1.0  T
   6    -42.4821471 -0.310310E-03  0.218E-02    2.00       1.0  T
   7    -42.4821477 -0.565261E-06  0.130E-02    2.00       1.5  T
   8    -42.4821489 -0.121273E-05  0.502E-03    2.00       4.0  T
   9    -42.4821492 -0.239940E-06  0.172E-03    2.00      11.6  T
  10    -42.4821492 -0.198256E-07  0.681E-04    2.00      29.4  T
  11    -42.4821492 -0.349242E-08  0.213E-04    2.00      93.9  T
     SCC iter.                  ...        0 min,  0.009 sec
     gradient                   ...        0 min,  0.008 sec
 * total energy  :  -128.6528340 Eh     change       -0.2683074E+01 Eh
   gradient norm :   152.4218797 Eh/α   predicted    -0.2066014E+02 ( 670.02%)
   displ. norm   :     0.5203943 α      lambda       -0.7915363E+02
   maximum displ.:     0.4696073 α      in ANC's #1, #54, #68, ...

........................................................................
.............................. CYCLE   10 ..............................
........................................................................

 iter      E             dE          RMSdq      gap      omega  full diag
   1    -42.4954673 -0.424955E+02  0.856E-01    1.75       0.0  T
   2    -42.4948692  0.598101E-03  0.656E-01    1.98       1.0  T
   3    -42.5031537 -0.828447E-02  0.333E-01    1.97       1.0  T
   4    -42.5040017 -0.847994E-03  0.106E-01    2.02       1.0  T
   5    -42.5041604 -0.158660E-03  0.506E-02    2.04       1.0  T
   6    -42.5042104 -0.500612E-04  0.113E-02    2.03       1.8  T
   7    -42.5042121 -0.165174E-05  0.533E-03    2.03       3.8  T
   8    -42.5042122 -0.121884E-06  0.216E-03    2.03       9.3  T
   9    -42.5042122 -0.237552E-07  0.615E-04    2.03      32.5  T
  10    -42.5042122 -0.498388E-08  0.259E-04    2.03      77.3  T
     SCC iter.                  ...        0 min,  0.008 sec
     gradient                   ...        0 min,  0.008 sec
 * total energy  :  -134.8886107 Eh     change       -0.6235777E+01 Eh
   gradient norm :    22.2589043 Eh/α   predicted    -0.5029462E+02 ( 706.55%)
   displ. norm   :     0.1793953 α      lambda       -0.1586939E+01
   maximum displ.:     0.1199257 α      in ANC's #54, #60, #68, ...

........................................................................
.............................. CYCLE   11 ..............................
........................................................................

 iter      E             dE          RMSdq      gap      omega  full diag
   1    -42.4893916 -0.424894E+02  0.284E-01    2.04       0.0  T
   2    -42.4895361 -0.144456E-03  0.172E-01    2.03       1.0  T
   3    -42.4893573  0.178818E-03  0.104E-01    2.03       1.0  T
   4    -42.4895852 -0.227967E-03  0.356E-02    2.03       1.0  T
   5    -42.4896209 -0.356974E-04  0.949E-03    2.03       2.1  T
   6    -42.4896221 -0.114209E-05  0.424E-03    2.03       4.7  T
   7    -42.4896222 -0.938141E-07  0.229E-03    2.03       8.8  T
   8    -42.4896222 -0.351657E-07  0.951E-04    2.03      21.0  T
   9    -42.4896222 -0.156220E-07  0.190E-04    2.03     105.5  T
     SCC iter.                  ...        0 min,  0.007 sec
     gradient                   ...        0 min,  0.008 sec
 * total energy  :  -136.0280194 Eh     change       -0.1139409E+01 Eh
   gradient norm :    20.6628390 Eh/α   predicted    -0.8190031E+00 ( -28.12%)
   displ. norm   :     0.6389497 α      lambda       -0.1299208E+02
   maximum displ.:     0.5957251 α      in ANC's #1, #68, #67, ...

........................................................................
.............................. CYCLE   12 ..............................
........................................................................

 iter      E             dE          RMSdq      gap      omega  full diag
   1    -42.4969735 -0.424970E+02  0.111E+00    1.93       0.0  T
   2    -42.4953996  0.157393E-02  0.793E-01    1.95       1.0  T
   3    -42.4998888 -0.448914E-02  0.544E-01    1.92       1.0  T
   4    -42.5058053 -0.591651E-02  0.852E-02    2.01       1.0  T
   5    -42.5057982  0.707146E-05  0.481E-02    1.99       1.0  T
   6    -42.5058512 -0.529753E-04  0.163E-02    2.00       1.2  T
   7    -42.5058524 -0.126688E-05  0.713E-03    2.00       2.8  T
   8    -42.5058530 -0.542196E-06  0.177E-03    2.00      11.3  T
   9    -42.5058530 -0.350539E-07  0.535E-04    2.00      37.4  T
  10    -42.5058530 -0.117633E-08  0.219E-04    2.00      91.1  T
     SCC iter.                  ...        0 min,  0.008 sec
     gradient                   ...        0 min,  0.008 sec
================
 final structure:
================
25
 xtb: 6.6.1 (8d0f1dd)
C            3.21786164340000        1.13591514650000        0.01837059260000
N            2.27034809790000        0.05199982890000        0.00038279530000
C            2.54167221030000       -1.23971668410000       -0.00834188300000
N            1.39367826450000       -1.95088267900000       -0.00850347120000
C            0.35269634020000       -1.06748964300000        0.00059917290000
C            0.90759959010000        0.20069750900000        0.00663590170000
C            0.07590235260000        1.39864294500000       -0.00284827040000
O            0.48715076820000        2.53168346660000       -0.01725767220000
N           -1.27221500230000        1.06666939660000        0.00165480230000
C           -2.23229981500000        2.16656245330000       -0.00245172030000
C           -1.84872931540000       -0.19179276200000        0.00496135950000
O           -3.03273030250000       -0.36103538130000        0.00858583760000
N           -0.96599111670000       -1.30060631840000        0.00174701630000
C           -1.52030655580000       -2.64076660390000       -0.00239033190000
H            3.71480285180000        1.18589984860000        0.98803183970000
H            3.97079415090000        0.99383197990000       -0.75543416370000
H            2.68321036910000        2.07051068580000       -0.15067179540000
H            3.52469367910000       -1.66989040330000       -0.01523639120000
H           -1.67672429040000        3.10039111610000        0.00486339690000
H           -2.85755792270000        2.10547813320000       -0.89185337000000
H           -2.87119733260000        2.09858159720000        0.87661144540000
H           -1.20589108080000       -3.18768007210000        0.88663215920000
H           -1.21982032550000       -3.17678505510000       -0.90288069810000
H           -2.60531402170000       -2.54255916880000        0.00649952960000
H            1.32879827740000       -2.95942079410000       -0.01653446370000

 Bond Distances (Angstroems)
 ---------------------------
C1-N2=1.4398         C1-H15=1.0907        C1-H16=1.0890        C1-H17=1.0899        N2-C1=1.4398         N2-C3=1.3199         
N2-C6=1.3709         C3-N2=1.3199         C3-N4=1.3504         C3-H18=1.0730        N4-C3=1.3504         N4-C5=1.3653         
N4-H25=1.0107        C5-N4=1.3653         C5-C6=1.3843         C5-N13=1.3391        C6-N2=1.3709         C6-C5=1.3843         
C6-C7=1.4584         C7-C6=1.4584         C7-O8=1.2055         C7-N9=1.3884         O8-C7=1.2055         N9-C7=1.3884         
N9-C10=1.4600        N9-C11=1.3842        C10-N9=1.4600        C10-H19=1.0866       C10-H20=1.0889       C10-H21=1.0888       
C11-N9=1.3842        C11-O12=1.1960       C11-N13=1.4173       O12-C11=1.1960       N13-C5=1.3391        N13-C11=1.4173       
N13-C14=1.4503       C14-N13=1.4503       C14-H22=1.0901       C14-H23=1.0902       C14-H24=1.0895       H15-C1=1.0907        
H16-C1=1.0890        H17-C1=1.0899        H18-C3=1.0730        H19-C10=1.0866       H20-C10=1.0889       H21-C10=1.0888       
H22-C14=1.0901       H23-C14=1.0902       H24-C14=1.0895       H25-N4=1.0107        
 C  H  Rav=1.0877 sigma=0.0050  Rmin=1.0730  Rmax=1.0907    10
 C  C  Rav=1.4213 sigma=0.0370  Rmin=1.3843  Rmax=1.4584     2
 N  H  Rav=1.0107 sigma=0.0000  Rmin=1.0107  Rmax=1.0107     1
 N  C  Rav=1.3896 sigma=0.0445  Rmin=1.3199  Rmax=1.4600    11
 O  C  Rav=1.2007 sigma=0.0047  Rmin=1.1960  Rmax=1.2055     2

 selected bond angles (degree)
 --------------------
H15-C1-N2=110.21               H16-C1-N2=110.36               H16-C1-H15=108.82              H17-C1-N2=108.71               
H17-C1-H15=108.79              H17-C1-H16=109.93              C3-N2-C1=126.98                C6-N2-C1=124.92                
C6-N2-C3=108.09                N4-C3-N2=109.91                H18-C3-N2=125.50               H18-C3-N4=124.59               
C5-N4-C3=107.90                H25-N4-C3=125.46               H25-N4-C5=126.64               C6-C5-N4=106.69                
N13-C5-N4=129.66               N13-C5-C6=123.66               C5-C6-N2=107.40                C7-C6-N2=130.99                
C7-C6-C5=121.59                O8-C7-C6=125.28                N9-C7-C6=110.94                N9-C7-O8=123.78                
C10-N9-C7=117.28               C11-N9-C7=128.45               C11-N9-C10=114.27              H19-C10-N9=108.13              
H20-C10-N9=109.73              H20-C10-H19=110.32             H21-C10-N9=109.67              H21-C10-H19=110.38             
H21-C10-H20=108.60             

 selected dihedral angles (degree)
 ---------------------------------
C3-N2-C1-H15=289.54           C3-N2-C1-H16= 49.76           C3-N2-C1-H17=170.39           C6-N2-C1-H15=108.66           
C6-N2-C1-H16=228.88           C6-N2-C1-H17=349.51           N4-C3-N2-C1=179.26            N4-C3-N2-C6=  0.00            
H18-C3-N2-C1=359.21           H18-C3-N2-C6=179.97           C5-N4-C3-N2=  0.00            C5-N4-C3-H18=180.05           
H25-N4-C3-N2=179.85           H25-N4-C3-H18=359.90          C6-C5-N4-C3=  0.00            C6-C5-N4-H25=180.14           
N13-C5-N4-C3=179.88           N13-C5-N4-H25=  0.03          C5-C6-N2-C1=180.71            C5-C6-N2-C3=359.97            
C7-C6-N2-C1=  1.78            C7-C6-N2-C3=181.03            N2-C6-C5-N4=  0.03            N2-C6-C5-N13=180.13           
C7-C6-C5-N4=179.08            C7-C6-C5-N13=359.18           O8-C7-C6-N2=359.91            O8-C7-C6-C5=181.10            
N9-C7-C6-N2=179.67            N9-C7-C6-C5=  0.86            C10-N9-C7-C6=179.81           C10-N9-C7-O8=359.58           
C11-N9-C7-C6=359.56           C11-N9-C7-O8=179.33           H19-C10-N9-C7=359.25          H19-C10-N9-C11=179.46         
H20-C10-N9-C7=119.63          H20-C10-N9-C11=299.84         H21-C10-N9-C7=238.84          H21-C10-N9-C11= 59.06         
           -------------------------------------------------
          |                Final Singlepoint                |
           -------------------------------------------------

          ...................................................
          :                      SETUP                      :
          :.................................................:
          :  # basis functions                  67          :
          :  # atomic orbitals                  67          :
          :  # shells                           39          :
          :  # electrons                        74          :
          :  max. iterations                   250          :
          :  Hamiltonian                  GFN2-xTB          :
          :  restarted?                      false          :
          :  GBSA solvation                  false          :
          :  PC potential                    false          :
          :  electronic temp.         5000.0000000     K    :
          :  accuracy                    1.0000000          :
          :  -> integral cutoff          0.2500000E+02      :
          :  -> integral neglect         0.1000000E-07      :
          :  -> SCF convergence          0.1000000E-05 Eh   :
          :  -> wf. convergence          0.1000000E-03 e    :
          :  Broyden damping             0.4000000          :
          ...................................................

 iter      E             dE          RMSdq      gap      omega  full diag
   1    -42.5892468 -0.425892E+02  0.319E+00    1.81       0.0  T
   2    -42.7357633 -0.146516E+00  0.235E+00    3.29       1.0  T
   3    -42.7748964 -0.391332E-01  0.128E+00    3.23       1.0  T
   4    -42.7755917 -0.695260E-03  0.563E-01    3.41       1.0  T
   5    -42.7788674 -0.327565E-02  0.160E-01    3.32       1.0  T
   6    -42.7790313 -0.163915E-03  0.646E-02    3.36       1.0  T
   7    -42.7790761 -0.448057E-04  0.201E-02    3.34       1.0  T
   8    -42.7790773 -0.123513E-05  0.834E-03    3.34       2.4  T
   9    -42.7790778 -0.530057E-06  0.425E-03    3.34       4.7  T
  10    -42.7790780 -0.112566E-06  0.153E-03    3.34      13.1  T
  11    -42.7790780 -0.170472E-07  0.674E-04    3.34      29.7  T
  12    -42.7790780 -0.213689E-08  0.201E-04    3.34      99.7  T

   *** convergence criteria satisfied after 12 iterations ***

         #    Occupation            Energy/Eh            Energy/eV
      -------------------------------------------------------------
         1        2.0000           -0.9186001             -24.9964
       ...           ...                  ...                  ...
        31        1.9996           -0.6230279             -16.9535
        32        1.9995           -0.6194598             -16.8564
        33        1.9979           -0.5974974             -16.2587
        34        1.9932           -0.5789617             -15.7543
        35        1.9817           -0.5631852             -15.3250
        36        1.9779           -0.5602242             -15.2445
        37        1.9748           -0.5581234             -15.1873 (HOMO)
        38        0.0652           -0.4353588             -11.8467 (LUMO)
        39        0.0099           -0.4050478             -11.0219
        40        0.0013           -0.3732227             -10.1559
        41        0.0000           -0.2886868              -7.8556
        42                         -0.2065809              -5.6214
       ...                                ...                  ...
        67                          0.5625650              15.3082
      -------------------------------------------------------------
                  HL-Gap            0.1227647 Eh            3.3406 eV
             Fermi-level           -0.4890458 Eh          -13.3076 eV

 SCC (total)                   0 d,  0 h,  0 min,  0.022 sec
 SCC setup                      ...        0 min,  0.000 sec (  0.722%)
 Dispersion                     ...        0 min,  0.000 sec (  0.553%)
 classical contributions        ...        0 min,  0.000 sec (  0.226%)
 integral evaluation            ...        0 min,  0.003 sec ( 14.730%)
 iterations                     ...        0 min,  0.010 sec ( 45.675%)
 molecular gradient             ...        0 min,  0.008 sec ( 37.702%)
 printout                       ...        0 min,  0.000 sec (  0.363%)

         :::::::::::::::::::::::::::::::::::::::::::::::::::::
         ::                     SUMMARY                     ::
         :::::::::::::::::::::::::::::::::::::::::::::::::::::
         :: total energy             -56.456797307153 Eh    ::
         :: gradient norm             10.661088196913 Eh/a0 ::
         :: HOMO-LUMO gap              3.340596182285 eV    ::
         ::.................................................::
         :: SCC energy               -42.779077977097 Eh    ::
         :: -> isotropic ES            0.141115280887 Eh    ::
         :: -> anisotropic ES         -0.005230292615 Eh    ::
         :: -> anisotropic XC          0.011966568653 Eh    ::
         :: -> dispersion             -0.022657737305 Eh    ::
         :: repulsion energy           0.531105277918 Eh    ::
         :: add. restraining         -14.208938766983 Eh    ::
         :: total charge               1.000000000002 e     ::
         :::::::::::::::::::::::::::::::::::::::::::::::::::::


last geometry written to: xtblast.xyz

########################################################################
[ERROR] Program stopped due to fatal error
-5- Geometry optimization failed
-4- xtb_geoopt: Trying to recover from failed geometry optimization
-3- xtb_geoopt: Geometry optimization did not converge
-2- optimizer_ancopt: Could not relax structure
-1- optimizer_relax: |grad| > 500, something is totally wrong!
########################################################################
