      -----------------------------------------------------------      
     |                   =====================                   |     
     |                           x T B                           |     
     |                   =====================                   |     
     |                         S. Grimme                         |     
     |          Mulliken Center for Theoretical Chemistry        |     
     |                    University of Bonn                     |     
      -----------------------------------------------------------      

   * xtb version 6.6.1 (8d0f1dd) compiled by 'conda@1efc2f54142f' on 2023-08-01

   xtb is free software: you can redistribute it and/or modify it under
   the terms of the GNU Lesser General Public License as published by
   the Free Software Foundation, either version 3 of the License, or
   (at your option) any later version.
   
   xtb is distributed in the hope that it will be useful,
   but WITHOUT ANY WARRANTY; without even the implied warranty of
   MERCHANTABILITY or FITNESS FOR A PARTICULAR PURPOSE.  See the
   GNU Lesser General Public License for more details.
   
   Cite this work as:
   * C. Bannwarth, E. Caldeweyher, S. Ehlert, A. Hansen, P. Pracht,
     J. Seibert, S. Spicher, S. Grimme, WIREs Comput. Mol. Sci., 2020, 11,
     e01493. DOI: 10.1002/wcms.1493
   
   for GFN2-xTB:
   * C. Bannwarth, S. Ehlert and S. Grimme., J. Chem. Theory Comput., 2019,
     15, 1652-1671. DOI: 10.1021/acs.jctc.8b01176
   for GFN1-xTB:
   * S. Grimme, C. Bannwarth, P. Shushkov, J. Chem. Theory Comput., 2017,
     13, 1989-2009. DOI: 10.1021/acs.jctc.7b00118
   for GFN0-xTB:
   * P. Pracht, E. Caldeweyher, S. Ehlert, S. Grimme, ChemRxiv, 2019, preprint.
     DOI: 10.26434/chemrxiv.8326202.v1
   for GFN-FF:
   * S. Spicher and S. Grimme, Angew. Chem. Int. Ed., 2020, 59, 15665-15673.
     DOI: 10.1002/anie.202004239
   
   for ALPB and GBSA implicit solvation:
   * S. Ehlert, M. Stahn, S. Spicher, S. Grimme, J. Chem. Theory Comput.,
     2021, 17, 4250-4261. DOI: 10.1021/acs.jctc.1c00471
   
   for DFT-D4:
   * E. Caldeweyher, C. Bannwarth and S. Grimme, J. Chem. Phys., 2017,
     147, 034112. DOI: 10.1063/1.4993215
   * E. Caldeweyher, S. Ehlert, A. Hansen, H. Neugebauer, S. Spicher,
     C. Bannwarth and S. Grimme, J. Chem. Phys., 2019, 150, 154122.
     DOI: 10.1063/1.5090222
   * E. Caldeweyher, J.-M. Mewes, S. Ehlert and S. Grimme, Phys. Chem. Chem. Phys.
     2020, 22, 8499-8512. DOI: 10.1039/D0CP00502A
   
   for sTDA-xTB:
   * S. Grimme and C. Bannwarth, J. Chem. Phys., 2016, 145, 054103.
     DOI: 10.1063/1.4959605
   
   in the mass-spec context:
   * V. Asgeirsson, C. Bauer and S. Grimme, Chem. Sci., 2017, 8, 4879.
     DOI: 10.1039/c7sc00601b
   * J. Koopman and S. Grimme, ACS Omega 2019, 4, 12, 15120-15133.
     DOI: 10.1021/acsomega.9b02011
   
   for metadynamics refer to:
   * S. Grimme, J. Chem. Theory Comput., 2019, 155, 2847-2862
     DOI: 10.1021/acs.jctc.9b00143
   
   for SPH calculations refer to:
   * S. Spicher and S. Grimme, J. Chem. Theory Comput., 2021, 17, 1701-1714
     DOI: 10.1021/acs.jctc.0c01306
   
   with help from (in alphabetical order)
   P. Atkinson, C. Bannwarth, F. Bohle, G. Brandenburg, E. Caldeweyher
   M. Checinski, S. Dohm, S. Ehlert, S. Ehrlich, I. Gerasimov, C. Hölzer
   A. Katbashev, J. Koopman, C. Lavigne, S. Lehtola, F. März, M. Müller,
   F. Musil, H. Neugebauer, J. Pisarek, C. Plett, P. Pracht, F. Pultar,
   J. Seibert, P. Shushkov, S. Spicher, M. Stahn, M. Steiner, T. Strunk,
   J. Stückrath, T. Rose, and J. Unsleber
   
 * started run on 2024/06/05 at 19:58:04.616     

           -------------------------------------------------
          |                Calculation Setup                |
           -------------------------------------------------

          program call               : xtb struc.xyz --opt loose --input .xc1 --gfn2
          hostname                   : n-62-29-35
          coordinate file            : struc.xyz
          omp threads                :                     1

   ID    Z sym.   atoms
    1    6 C      1, 3, 5-7, 10, 11, 14
    2    7 N      2, 4, 9, 13
    3    8 O      8, 12
    4    1 H      15-25
constraining bond 2 18 to    2.6866700 Å, actual value:    2.1303834 Å

           -------------------------------------------------
          |                 G F N 2 - x T B                 |
           -------------------------------------------------

        Reference                      10.1021/acs.jctc.8b01176
      * Hamiltonian:
        H0-scaling (s, p, d)           1.850000    2.230000    2.230000
        zeta-weighting                 0.500000
      * Dispersion:
        s8                             2.700000
        a1                             0.520000
        a2                             5.000000
        s9                             5.000000
      * Repulsion:
        kExp                           1.500000    1.000000
        rExp                           1.000000
      * Coulomb:
        alpha                          2.000000
        third order                    shell-resolved
        anisotropic                    true
        a3                             3.000000
        a5                             4.000000
        cn-shift                       1.200000
        cn-exp                         4.000000
        max-rad                        5.000000


          ...................................................
          :                      SETUP                      :
          :.................................................:
          :  # basis functions                  67          :
          :  # atomic orbitals                  67          :
          :  # shells                           39          :
          :  # electrons                        74          :
          :  max. iterations                   250          :
          :  Hamiltonian                  GFN2-xTB          :
          :  restarted?                      false          :
          :  GBSA solvation                  false          :
          :  PC potential                    false          :
          :  electronic temp.         5000.0000000     K    :
          :  accuracy                    1.0000000          :
          :  -> integral cutoff          0.2500000E+02      :
          :  -> integral neglect         0.1000000E-07      :
          :  -> SCF convergence          0.1000000E-05 Eh   :
          :  -> wf. convergence          0.1000000E-03 e    :
          :  Broyden damping             0.4000000          :
          ...................................................

 iter      E             dE          RMSdq      gap      omega  full diag
   1    -42.5894031 -0.425894E+02  0.445E+00    3.52       0.0  T
   2    -42.7683054 -0.178902E+00  0.251E+00    3.36       1.0  T
   3    -42.7759211 -0.761567E-02  0.147E+00    3.35       1.0  T
   4    -42.7728404  0.308066E-02  0.553E-01    3.33       1.0  T
   5    -42.7789548 -0.611444E-02  0.112E-01    3.35       1.0  T
   6    -42.7790473 -0.924914E-04  0.614E-02    3.33       1.0  T
   7    -42.7790721 -0.247928E-04  0.258E-02    3.34       1.0  T
   8    -42.7790772 -0.508996E-05  0.938E-03    3.34       2.1  T
   9    -42.7790779 -0.669422E-06  0.448E-03    3.34       4.5  T
  10    -42.7790780 -0.821511E-07  0.115E-03    3.34      17.4  T
  11    -42.7790780 -0.322662E-08  0.553E-04    3.34      36.2  T
  12    -42.7790780 -0.287052E-08  0.180E-04    3.34     111.1  T

   *** convergence criteria satisfied after 12 iterations ***

         #    Occupation            Energy/Eh            Energy/eV
      -------------------------------------------------------------
         1        2.0000           -0.9185990             -24.9964
       ...           ...                  ...                  ...
        31        1.9996           -0.6230278             -16.9534
        32        1.9995           -0.6194601             -16.8564
        33        1.9979           -0.5974976             -16.2587
        34        1.9932           -0.5789629             -15.7544
        35        1.9817           -0.5631863             -15.3251
        36        1.9779           -0.5602245             -15.2445
        37        1.9748           -0.5581234             -15.1873 (HOMO)
        38        0.0652           -0.4353579             -11.8467 (LUMO)
        39        0.0099           -0.4050467             -11.0219
        40        0.0013           -0.3732218             -10.1559
        41        0.0000           -0.2886859              -7.8555
        42                         -0.2065804              -5.6213
       ...                                ...                  ...
        67                          0.5625656              15.3082
      -------------------------------------------------------------
                  HL-Gap            0.1227656 Eh            3.3406 eV
             Fermi-level           -0.4890455 Eh          -13.3076 eV

 SCC (total)                   0 d,  0 h,  0 min,  0.037 sec
 SCC setup                      ...        0 min,  0.000 sec (  0.774%)
 Dispersion                     ...        0 min,  0.000 sec (  0.998%)
 classical contributions        ...        0 min,  0.000 sec (  0.264%)
 integral evaluation            ...        0 min,  0.006 sec ( 17.457%)
 iterations                     ...        0 min,  0.018 sec ( 48.596%)
 molecular gradient             ...        0 min,  0.012 sec ( 31.457%)
 printout                       ...        0 min,  0.000 sec (  0.420%)

         :::::::::::::::::::::::::::::::::::::::::::::::::::::
         ::                     SUMMARY                     ::
         :::::::::::::::::::::::::::::::::::::::::::::::::::::
         :: total energy             -42.800399896960 Eh    ::
         :: gradient norm              1.484206989903 Eh/a0 ::
         :: HOMO-LUMO gap              3.340621582928 eV    ::
         ::.................................................::
         :: SCC energy               -42.779077977399 Eh    ::
         :: -> isotropic ES            0.141123876439 Eh    ::
         :: -> anisotropic ES         -0.005230418907 Eh    ::
         :: -> anisotropic XC          0.011966818540 Eh    ::
         :: -> dispersion             -0.022657731803 Eh    ::
         :: repulsion energy           0.531105277918 Eh    ::
         :: add. restraining          -0.552541356488 Eh    ::
         :: total charge               1.000000000002 e     ::
         :::::::::::::::::::::::::::::::::::::::::::::::::::::

      ----------------------------------------------------------- 
     |                   =====================                   |
     |                        A N C O P T                        |
     |                   =====================                   |
     |               Approximate Normal Coordinate               |
     |                Rational Function Optimizer                |
      ----------------------------------------------------------- 

          ...................................................
          :                      SETUP                      :
          :.................................................:
          :   optimization level             loose          :
          :   max. optcycles                   200          :
          :   ANC micro-cycles                  20          :
          :   degrees of freedom                69          :
          :.................................................:
          :   RF solver                   davidson          :
          :   write xtbopt.log                true          :
          :   linear?                        false          :
          :   energy convergence         0.5000000E-04 Eh   :
          :   grad. convergence          0.4000000E-02 Eh/α :
          :   maxmium RF displ.          1.0000000          :
          :   Hlow (freq-cutoff)         0.1000000E-01      :
          :   Hmax (freq-cutoff)         5.0000000          :
          :   S6 in model hess.         20.0000000          :
          ...................................................

generating ANC from model Hessian ...
Using Lindh-Hessian (1995)
 Shifting diagonal of input Hessian by    1.3465141828623171     
 Lowest  eigenvalues of input Hessian
    0.010000    0.000000    0.000000    0.000000    0.000000    0.000000
    0.000000    1.349868    1.352088    1.352444    1.355698    1.356711
    1.358395    1.358575    1.360642    1.367627    1.369933    1.380553
 Highest eigenvalues
    3.398997    3.533243    3.604769    3.629751    3.759323    3.889745


........................................................................
.............................. CYCLE    1 ..............................
........................................................................

 iter      E             dE          RMSdq      gap      omega  full diag
   1    -42.7790780 -0.427791E+02  0.626E-05    3.34       0.0  T
   2    -42.7790780 -0.124203E-10  0.329E-05    3.34     607.4  T
   3    -42.7790780  0.106581E-12  0.193E-05    3.34    1034.2  T
     SCC iter.                  ...        0 min,  0.005 sec
     gradient                   ...        0 min,  0.012 sec
 * total energy  :   -42.8003999 Eh     change       -0.6650680E-10 Eh
   gradient norm :     1.4842064 Eh/α   predicted     0.0000000E+00 (-100.00%)
   displ. norm   :     0.9905421 α      lambda       -0.1454602E+01
   maximum displ.:     0.9869094 α      in ANC's #1, #64, #50, ...

........................................................................
.............................. CYCLE    2 ..............................
........................................................................

 iter      E             dE          RMSdq      gap      omega  full diag
   1    -42.7370828 -0.427371E+02  0.123E+00    3.95       0.0  T
   2    -42.7445213 -0.743846E-02  0.797E-01    3.99       1.0  T
   3    -42.7468713 -0.235002E-02  0.457E-01    3.97       1.0  T
   4    -42.7479616 -0.109027E-02  0.122E-01    3.96       1.0  T
   5    -42.7482205 -0.258875E-03  0.411E-02    3.98       1.0  T
   6    -42.7482290 -0.855054E-05  0.187E-02    3.97       1.1  T
   7    -42.7482302 -0.121297E-05  0.313E-03    3.98       6.4  T
   8    -42.7482303 -0.744503E-07  0.140E-03    3.98      14.3  T
   9    -42.7482303 -0.890559E-08  0.393E-04    3.97      50.9  T
  10    -42.7482303 -0.636469E-09  0.152E-04    3.97     131.5  T
     SCC iter.                  ...        0 min,  0.014 sec
     gradient                   ...        0 min,  0.011 sec
 * total energy  :   -44.8977364 Eh     change       -0.2097336E+01 Eh
   gradient norm :     2.7363844 Eh/α   predicted    -0.1440910E+01 ( -31.30%)
   displ. norm   :     0.9886221 α      lambda       -0.2679345E+01
   maximum displ.:     0.9788477 α      in ANC's #1, #67, #46, ...

........................................................................
.............................. CYCLE    3 ..............................
........................................................................

 iter      E             dE          RMSdq      gap      omega  full diag
   1    -42.3857289 -0.423857E+02  0.210E+00    3.39       0.0  T
   2    -42.3507863  0.349426E-01  0.250E+00    2.63       1.0  T
   3    -42.4970512 -0.146265E+00  0.774E-01    2.80       1.0  T
   4    -42.4940989  0.295230E-02  0.502E-01    2.74       1.0  T
   5    -42.4976366 -0.353770E-02  0.125E-01    2.73       1.0  T
   6    -42.4979604 -0.323832E-03  0.379E-02    2.77       1.0  T
   7    -42.4979652 -0.481571E-05  0.132E-02    2.76       1.5  T
   8    -42.4979666 -0.135965E-05  0.429E-03    2.77       4.7  T
   9    -42.4979667 -0.106910E-06  0.173E-03    2.77      11.6  T
  10    -42.4979667 -0.702951E-08  0.508E-04    2.77      39.4  T
  11    -42.4979667 -0.147937E-08  0.224E-04    2.77      89.3  T
     SCC iter.                  ...        0 min,  0.015 sec
     gradient                   ...        0 min,  0.011 sec
 * total energy  :   -48.1952181 Eh     change       -0.3297482E+01 Eh
   gradient norm :     4.0859312 Eh/α   predicted    -0.2649034E+01 ( -19.66%)
   displ. norm   :     0.9293363 α      lambda       -0.3651996E+01
   maximum displ.:     0.8348787 α      in ANC's #1, #67, #66, ...

........................................................................
.............................. CYCLE    4 ..............................
........................................................................

 iter      E             dE          RMSdq      gap      omega  full diag
   1    -42.3485873 -0.423486E+02  0.272E+00    1.15       0.0  T
   2    -42.3892753 -0.406879E-01  0.225E+00    2.20       1.0  T
   3    -42.5177951 -0.128520E+00  0.970E-01    1.62       1.0  T
   4    -42.5282149 -0.104198E-01  0.689E-01    1.47       1.0  T
   5    -42.5407627 -0.125478E-01  0.191E-01    1.52       1.0  T
   6    -42.5408577 -0.949355E-04  0.671E-02    1.52       1.0  T
   7    -42.5409616 -0.103939E-03  0.198E-02    1.52       1.0  T
   8    -42.5409628 -0.117282E-05  0.878E-03    1.52       2.3  T
   9    -42.5409633 -0.509457E-06  0.343E-03    1.52       5.8  T
  10    -42.5409636 -0.288927E-06  0.103E-03    1.52      19.3  T
  11    -42.5409636 -0.786451E-08  0.459E-04    1.52      43.6  T
  12    -42.5409636 -0.118411E-08  0.176E-04    1.52     113.8  T
     SCC iter.                  ...        0 min,  0.017 sec
     gradient                   ...        0 min,  0.011 sec
 * total energy  :   -25.2250830 Eh     change        0.2297014E+02 Eh
   gradient norm :   272.3628138 Eh/α   predicted    -0.3403066E+01 (-114.82%)
   displ. norm   :     0.5473822 α      lambda       -0.1490295E+03
   maximum displ.:     0.5302494 α      in ANC's #1, #64, #50, ...

........................................................................
.............................. CYCLE    5 ..............................
........................................................................

 iter      E             dE          RMSdq      gap      omega  full diag
   1    -42.4567038 -0.424567E+02  0.166E+00    2.59       0.0  T
   2    -42.3775292  0.791745E-01  0.203E+00    2.07       1.0  T
   3    -42.5031215 -0.125592E+00  0.685E-01    2.23       1.0  T
   4    -42.5092407 -0.611916E-02  0.242E-01    2.16       1.0  T
   5    -42.5095863 -0.345614E-03  0.603E-02    2.12       1.0  T
   6    -42.5096679 -0.815503E-04  0.233E-02    2.13       1.0  T
   7    -42.5096733 -0.545725E-05  0.992E-03    2.13       2.0  T
   8    -42.5096740 -0.670063E-06  0.311E-03    2.13       6.4  T
   9    -42.5096741 -0.130868E-06  0.108E-03    2.13      18.6  T
  10    -42.5096741  0.580464E-09  0.635E-04    2.13      31.5  T
  11    -42.5096741 -0.529639E-08  0.120E-04    2.13     166.5  T
     SCC iter.                  ...        0 min,  0.015 sec
     gradient                   ...        0 min,  0.011 sec
 * total energy  :   -49.3524644 Eh     change       -0.2412738E+02 Eh
   gradient norm :     0.5507974 Eh/α   predicted    -0.9684895E+02 ( 301.41%)
   displ. norm   :     0.8246735 α      lambda       -0.2816206E+00
   maximum displ.:     0.3764131 α      in ANC's #67, #66, #50, ...

........................................................................
.............................. CYCLE    6 ..............................
........................................................................

 iter      E             dE          RMSdq      gap      omega  full diag
   1    -42.3585346 -0.423585E+02  0.261E+00    1.40       0.0  T
   2    -42.2756780  0.828566E-01  0.283E+00    0.54       1.0  T
   3    -42.4684241 -0.192746E+00  0.123E+00    1.81       1.0  T
   4    -42.4753593 -0.693517E-02  0.818E-01    1.17       1.0  T
   5    -42.4920631 -0.167038E-01  0.404E-01    1.25       1.0  T
   6    -42.4959090 -0.384594E-02  0.150E-01    1.31       1.0  T
   7    -42.4965010 -0.592018E-03  0.316E-02    1.35       1.0  T
   8    -42.4965142 -0.131388E-04  0.189E-02    1.35       1.1  T
   9    -42.4965181 -0.397131E-05  0.897E-03    1.35       2.2  T
  10    -42.4965194 -0.126159E-05  0.183E-03    1.35      10.9  T
  11    -42.4965194  0.850670E-08  0.109E-03    1.35      18.4  T
  12    -42.4965194 -0.221141E-07  0.315E-04    1.35      63.6  T
  13    -42.4965194 -0.167132E-08  0.989E-05    1.35     202.2  T
     SCC iter.                  ...        0 min,  0.018 sec
     gradient                   ...        0 min,  0.011 sec
 * total energy  :   -49.3086013 Eh     change        0.4386312E-01 Eh
   gradient norm :     1.0686248 Eh/α   predicted    -0.2365757E+00 (-639.35%)
   displ. norm   :     0.5625010 α      lambda       -0.4701834E+00
   maximum displ.:     0.2847311 α      in ANC's #62, #41, #45, ...

........................................................................
.............................. CYCLE    7 ..............................
........................................................................

 iter      E             dE          RMSdq      gap      omega  full diag
   1    -42.3952644 -0.423953E+02  0.149E+00    1.49       0.0  T
   2    -42.3619800  0.332844E-01  0.185E+00    1.43       1.0  T
   3    -42.4487244 -0.867444E-01  0.505E-01    1.58       1.0  T
   4    -42.4386439  0.100804E-01  0.752E-01    1.39       1.0  T
   5    -42.4486752 -0.100313E-01  0.430E-01    1.56       1.0  T
   6    -42.4509530 -0.227782E-02  0.130E-01    1.46       1.0  T
   7    -42.4513898 -0.436807E-03  0.606E-02    1.50       1.0  T
   8    -42.4514454 -0.555340E-04  0.349E-02    1.51       1.0  T
   9    -42.4514576 -0.122327E-04  0.102E-02    1.50       2.0  T
  10    -42.4514605 -0.290708E-05  0.367E-03    1.50       5.4  T
  11    -42.4514607 -0.178428E-06  0.169E-03    1.50      11.9  T
  12    -42.4514607 -0.119560E-07  0.913E-04    1.50      21.9  T
  13    -42.4514607 -0.158460E-07  0.232E-04    1.50      86.1  T
     SCC iter.                  ...        0 min,  0.018 sec
     gradient                   ...        0 min,  0.011 sec
 * total energy  :   -49.4461968 Eh     change       -0.1375955E+00 Eh
   gradient norm :     0.3743797 Eh/α   predicted    -0.3094767E+00 ( 124.92%)
   displ. norm   :     0.2346552 α      lambda       -0.3437238E-01
   maximum displ.:     0.0987837 α      in ANC's #66, #50, #67, ...

........................................................................
.............................. CYCLE    8 ..............................
........................................................................

 iter      E             dE          RMSdq      gap      omega  full diag
   1    -42.4706853 -0.424707E+02  0.574E-01    1.94       0.0  T
   2    -42.4691611  0.152419E-02  0.408E-01    1.80       1.0  T
   3    -42.4700012 -0.840052E-03  0.371E-01    1.92       1.0  T
   4    -42.4719245 -0.192334E-02  0.162E-01    1.89       1.0  T
   5    -42.4727078 -0.783335E-03  0.519E-02    1.88       1.0  T
   6    -42.4727410 -0.331967E-04  0.330E-02    1.88       1.0  T
   7    -42.4727511 -0.100089E-04  0.135E-02    1.88       1.5  T
   8    -42.4727586 -0.759302E-05  0.307E-03    1.88       6.5  T
   9    -42.4727587 -0.396716E-07  0.152E-03    1.88      13.1  T
  10    -42.4727587 -0.268412E-07  0.501E-04    1.88      39.9  T
  11    -42.4727587 -0.516285E-08  0.210E-04    1.88      95.1  T
     SCC iter.                  ...        0 min,  0.015 sec
     gradient                   ...        0 min,  0.011 sec
 * total energy  :   -49.4762384 Eh     change       -0.3004158E-01 Eh
   gradient norm :     0.4709222 Eh/α   predicted    -0.1813273E-01 ( -39.64%)
   displ. norm   :     0.5351079 α      lambda       -0.5713215E-01
   maximum displ.:     0.2255224 α      in ANC's #66, #50, #67, ...

........................................................................
.............................. CYCLE    9 ..............................
........................................................................

 iter      E             dE          RMSdq      gap      omega  full diag
   1    -42.4756713 -0.424757E+02  0.158E+00    2.28       0.0  T
   2    -42.4831367 -0.746546E-02  0.119E+00    2.27       1.0  T
   3    -42.5045206 -0.213839E-01  0.692E-01    2.05       1.0  T
   4    -42.5121583 -0.763770E-02  0.435E-01    2.35       1.0  T
   5    -42.5155217 -0.336336E-02  0.847E-02    2.25       1.0  T
   6    -42.5155964 -0.747205E-04  0.407E-02    2.23       1.0  T
   7    -42.5156056 -0.918561E-05  0.186E-02    2.23       1.1  T
   8    -42.5156101 -0.449586E-05  0.648E-03    2.23       3.1  T
   9    -42.5156111 -0.104239E-05  0.188E-03    2.23      10.6  T
  10    -42.5156112 -0.425136E-07  0.782E-04    2.23      25.6  T
  11    -42.5156112 -0.172113E-08  0.204E-04    2.23      97.9  T
     SCC iter.                  ...        0 min,  0.015 sec
     gradient                   ...        0 min,  0.011 sec
 * total energy  :   -49.4834614 Eh     change       -0.7223016E-02 Eh
   gradient norm :     0.8165627 Eh/α   predicted    -0.3674586E-01 ( 408.73%)
   displ. norm   :     0.2777503 α      lambda       -0.5267404E-01
   maximum displ.:     0.1265204 α      in ANC's #66, #67, #50, ...

........................................................................
.............................. CYCLE   10 ..............................
........................................................................

 iter      E             dE          RMSdq      gap      omega  full diag
   1    -42.4752919 -0.424753E+02  0.978E-01    1.88       0.0  T
   2    -42.4754443 -0.152417E-03  0.832E-01    1.82       1.0  T
   3    -42.4922219 -0.167776E-01  0.372E-01    2.16       1.0  T
   4    -42.4950320 -0.281006E-02  0.244E-01    1.94       1.0  T
   5    -42.4960135 -0.981455E-03  0.557E-02    2.01       1.0  T
   6    -42.4960861 -0.726434E-04  0.237E-02    2.02       1.0  T
   7    -42.4960950 -0.893040E-05  0.180E-02    2.02       1.1  T
   8    -42.4960991 -0.407432E-05  0.630E-03    2.02       3.2  T
   9    -42.4960995 -0.385855E-06  0.162E-03    2.02      12.3  T
  10    -42.4960995 -0.295215E-07  0.773E-04    2.02      25.9  T
  11    -42.4960995 -0.582155E-08  0.257E-04    2.02      77.8  T
     SCC iter.                  ...        0 min,  0.015 sec
     gradient                   ...        0 min,  0.011 sec
 * total energy  :   -49.4995706 Eh     change       -0.1610924E-01 Eh
   gradient norm :     0.4567853 Eh/α   predicted    -0.2836888E-01 (  76.10%)
   displ. norm   :     0.0628805 α      lambda       -0.4361406E-02
   maximum displ.:     0.0271109 α      in ANC's #50, #46, #66, ...

........................................................................
.............................. CYCLE   11 ..............................
........................................................................

 iter      E             dE          RMSdq      gap      omega  full diag
   1    -42.5008477 -0.425008E+02  0.139E-01    2.07       0.0  T
   2    -42.5008923 -0.445382E-04  0.117E-01    2.09       1.0  T
   3    -42.5011529 -0.260662E-03  0.575E-02    2.05       1.0  T
   4    -42.5011462  0.672559E-05  0.500E-02    2.09       1.0  T
   5    -42.5012116 -0.654602E-04  0.769E-03    2.07       2.6  T
   6    -42.5012121 -0.456200E-06  0.395E-03    2.07       5.1  T
   7    -42.5012122 -0.536585E-07  0.231E-03    2.07       8.6  T
   8    -42.5012123 -0.108068E-06  0.445E-04    2.07      44.9  T
   9    -42.5012123 -0.335817E-08  0.204E-04    2.07      98.1  T
     SCC iter.                  ...        0 min,  0.013 sec
     gradient                   ...        0 min,  0.011 sec
 * total energy  :   -49.5033599 Eh     change       -0.3789248E-02 Eh
   gradient norm :     0.4641806 Eh/α   predicted    -0.2189714E-02 ( -42.21%)
   displ. norm   :     0.2032290 α      lambda       -0.1235054E-01
   maximum displ.:     0.0786117 α      in ANC's #50, #16, #46, ...

........................................................................
.............................. CYCLE   12 ..............................
........................................................................

 iter      E             dE          RMSdq      gap      omega  full diag
   1    -42.5100304 -0.425100E+02  0.349E-01    2.28       0.0  T
   2    -42.5103061 -0.275673E-03  0.311E-01    2.33       1.0  T
   3    -42.5121392 -0.183317E-02  0.149E-01    2.24       1.0  T
   4    -42.5120906  0.486200E-04  0.118E-01    2.32       1.0  T
   5    -42.5124445 -0.353926E-03  0.202E-02    2.28       1.0  T
   6    -42.5124503 -0.571901E-05  0.828E-03    2.27       2.4  T
   7    -42.5124502  0.661726E-07  0.462E-03    2.27       4.3  T
   8    -42.5124505 -0.311403E-06  0.102E-03    2.27      19.6  T
   9    -42.5124505 -0.183794E-07  0.477E-04    2.27      42.0  T
  10    -42.5124505 -0.809372E-09  0.137E-04    2.27     146.0  T
     SCC iter.                  ...        0 min,  0.014 sec
     gradient                   ...        0 min,  0.011 sec
 * total energy  :   -49.5110288 Eh     change       -0.7668939E-02 Eh
   gradient norm :     0.4806259 Eh/α   predicted    -0.6430440E-02 ( -16.15%)
   displ. norm   :     0.1293576 α      lambda       -0.5892197E-02
   maximum displ.:     0.0618413 α      in ANC's #16, #41, #17, ...

........................................................................
.............................. CYCLE   13 ..............................
........................................................................

 iter      E             dE          RMSdq      gap      omega  full diag
   1    -42.5136635 -0.425137E+02  0.148E-01    2.41       0.0  T
   2    -42.5136910 -0.274645E-04  0.902E-02    2.40       1.0  T
   3    -42.5136461  0.448937E-04  0.598E-02    2.41       1.0  T
   4    -42.5137130 -0.669552E-04  0.216E-02    2.39       1.0  T
   5    -42.5137291 -0.161044E-04  0.452E-03    2.40       4.4  T
   6    -42.5137295 -0.415894E-06  0.233E-03    2.40       8.6  T
   7    -42.5137296 -0.439509E-07  0.754E-04    2.40      26.5  T
   8    -42.5137296 -0.859276E-08  0.186E-04    2.40     107.8  T
     SCC iter.                  ...        0 min,  0.011 sec
     gradient                   ...        0 min,  0.011 sec
 * total energy  :   -49.5161155 Eh     change       -0.5086696E-02 Eh
   gradient norm :     0.4348876 Eh/α   predicted    -0.2995821E-02 ( -41.10%)
   displ. norm   :     0.3353295 α      lambda       -0.1546429E-01
   maximum displ.:     0.1614864 α      in ANC's #16, #41, #17, ...

........................................................................
.............................. CYCLE   14 ..............................
........................................................................

 iter      E             dE          RMSdq      gap      omega  full diag
   1    -42.5069620 -0.425070E+02  0.472E-01    2.77       0.0  T
   2    -42.5068872  0.747999E-04  0.278E-01    2.72       1.0  T
   3    -42.5065593  0.327844E-03  0.237E-01    2.82       1.0  T
   4    -42.5075665 -0.100722E-02  0.878E-02    2.72       1.0  T
   5    -42.5077645 -0.197924E-03  0.134E-02    2.75       1.5  T
   6    -42.5077648 -0.303762E-06  0.945E-03    2.75       2.1  T
   7    -42.5077658 -0.103728E-05  0.234E-03    2.75       8.5  T
   8    -42.5077659 -0.789725E-07  0.974E-04    2.75      20.5  T
   9    -42.5077659 -0.852290E-08  0.377E-04    2.75      53.1  T
     SCC iter.                  ...        0 min,  0.013 sec
     gradient                   ...        0 min,  0.011 sec
 * total energy  :   -49.5260784 Eh     change       -0.9962862E-02 Eh
   gradient norm :     0.2517502 Eh/α   predicted    -0.8601550E-02 ( -13.66%)
   displ. norm   :     0.1586564 α      lambda       -0.4855568E-02
   maximum displ.:     0.0705920 α      in ANC's #16, #41, #17, ...

........................................................................
.............................. CYCLE   15 ..............................
........................................................................

 iter      E             dE          RMSdq      gap      omega  full diag
   1    -42.5041368 -0.425041E+02  0.239E-01    2.99       0.0  T
   2    -42.5040878  0.490450E-04  0.152E-01    2.94       1.0  T
   3    -42.5039769  0.110857E-03  0.122E-01    2.99       1.0  T
   4    -42.5042936 -0.316698E-03  0.348E-02    2.96       1.0  T
   5    -42.5043184 -0.247968E-04  0.913E-03    2.96       2.2  T
   6    -42.5043182  0.177693E-06  0.562E-03    2.96       3.6  T
   7    -42.5043187 -0.453647E-06  0.111E-03    2.96      18.0  T
   8    -42.5043187 -0.133223E-07  0.535E-04    2.96      37.4  T
   9    -42.5043187 -0.853021E-09  0.198E-04    2.96     100.8  T
     SCC iter.                  ...        0 min,  0.013 sec
     gradient                   ...        0 min,  0.011 sec
 * total energy  :   -49.5300075 Eh     change       -0.3929104E-02 Eh
   gradient norm :     0.1978917 Eh/α   predicted    -0.2488912E-02 ( -36.65%)
   displ. norm   :     0.2828709 α      lambda       -0.1054375E-01
   maximum displ.:     0.1086949 α      in ANC's #16, #64, #41, ...

........................................................................
.............................. CYCLE   16 ..............................
........................................................................

 iter      E             dE          RMSdq      gap      omega  full diag
   1    -42.5019944 -0.425020E+02  0.437E-01    2.88       0.0  T
   2    -42.5020364 -0.419956E-04  0.270E-01    2.90       1.0  T
   3    -42.5012498  0.786666E-03  0.199E-01    2.87       1.0  T
   4    -42.5022772 -0.102745E-02  0.476E-02    2.91       1.0  T
   5    -42.5023125 -0.352450E-04  0.192E-02    2.89       1.0  T
   6    -42.5023112  0.125651E-05  0.143E-02    2.90       1.4  T
   7    -42.5023139 -0.272580E-05  0.224E-03    2.90       8.9  T
   8    -42.5023140 -0.411394E-07  0.113E-03    2.90      17.8  T
   9    -42.5023140 -0.352192E-08  0.261E-04    2.90      76.6  T
  10    -42.5023140 -0.100893E-08  0.876E-05    2.90     228.2  T
     SCC iter.                  ...        0 min,  0.014 sec
     gradient                   ...        0 min,  0.011 sec
 * total energy  :   -49.5385286 Eh     change       -0.8521096E-02 Eh
   gradient norm :     0.1195086 Eh/α   predicted    -0.5693769E-02 ( -33.18%)
   displ. norm   :     0.4104395 α      lambda       -0.1776286E-01
   maximum displ.:     0.1695636 α      in ANC's #64, #16, #36, ...

........................................................................
.............................. CYCLE   17 ..............................
........................................................................

 iter      E             dE          RMSdq      gap      omega  full diag
   1    -42.5078656 -0.425079E+02  0.636E-01    2.61       0.0  T
   2    -42.5081887 -0.323069E-03  0.364E-01    2.60       1.0  T
   3    -42.5080317  0.157013E-03  0.137E-01    2.64       1.0  T
   4    -42.5083024 -0.270686E-03  0.459E-02    2.62       1.0  T
   5    -42.5083168 -0.144624E-04  0.295E-02    2.62       1.0  T
   6    -42.5083185 -0.167527E-05  0.906E-03    2.62       2.2  T
   7    -42.5083198 -0.133304E-05  0.450E-03    2.62       4.4  T
   8    -42.5083201 -0.237810E-06  0.300E-03    2.62       6.7  T
   9    -42.5083202 -0.165621E-06  0.647E-04    2.62      30.9  T
  10    -42.5083202 -0.308629E-08  0.277E-04    2.62      72.2  T
     SCC iter.                  ...        0 min,  0.014 sec
     gradient                   ...        0 min,  0.011 sec
 * total energy  :   -49.5507869 Eh     change       -0.1225828E-01 Eh
   gradient norm :     0.1239196 Eh/α   predicted    -0.1037772E-01 ( -15.34%)
   displ. norm   :     0.1940181 α      lambda       -0.1158618E-01
   maximum displ.:     0.0893550 α      in ANC's #64, #65, #24, ...

........................................................................
.............................. CYCLE   18 ..............................
........................................................................

 iter      E             dE          RMSdq      gap      omega  full diag
   1    -42.5236218 -0.425236E+02  0.323E-01    2.49       0.0  T
   2    -42.5236950 -0.732521E-04  0.203E-01    2.50       1.0  T
   3    -42.5233309  0.364157E-03  0.162E-01    2.44       1.0  T
   4    -42.5237519 -0.421057E-03  0.736E-02    2.52       1.0  T
   5    -42.5239038 -0.151871E-03  0.186E-02    2.48       1.1  T
   6    -42.5239056 -0.183144E-05  0.129E-02    2.49       1.6  T
   7    -42.5239071 -0.148278E-05  0.347E-03    2.48       5.8  T
   8    -42.5239073 -0.185701E-06  0.109E-03    2.48      18.4  T
   9    -42.5239073 -0.336633E-08  0.318E-04    2.48      62.9  T
  10    -42.5239073 -0.805976E-09  0.807E-05    2.48     247.7  T
     SCC iter.                  ...        0 min,  0.014 sec
     gradient                   ...        0 min,  0.011 sec
 * total energy  :   -49.5593772 Eh     change       -0.8590295E-02 Eh
   gradient norm :     0.1369455 Eh/α   predicted    -0.6011598E-02 ( -30.02%)
   displ. norm   :     0.2208556 α      lambda       -0.1728473E-01
   maximum displ.:     0.0821273 α      in ANC's #16, #65, #41, ...

........................................................................
.............................. CYCLE   19 ..............................
........................................................................

 iter      E             dE          RMSdq      gap      omega  full diag
   1    -42.5470914 -0.425471E+02  0.413E-01    2.54       0.0  T
   2    -42.5468208  0.270613E-03  0.308E-01    2.59       1.0  T
   3    -42.5482945 -0.147372E-02  0.199E-01    2.48       1.0  T
   4    -42.5487594 -0.464879E-03  0.677E-02    2.55       1.0  T
   5    -42.5488503 -0.909553E-04  0.220E-02    2.52       1.0  T
   6    -42.5488607 -0.104216E-04  0.587E-03    2.52       3.4  T
   7    -42.5488608 -0.478103E-07  0.325E-03    2.52       6.1  T
   8    -42.5488609 -0.606742E-07  0.808E-04    2.52      24.8  T
   9    -42.5488609 -0.535282E-08  0.367E-04    2.52      54.5  T
     SCC iter.                  ...        0 min,  0.013 sec
     gradient                   ...        0 min,  0.011 sec
 * total energy  :   -49.5715140 Eh     change       -0.1213688E-01 Eh
   gradient norm :     0.1035929 Eh/α   predicted    -0.9064117E-02 ( -25.32%)
   displ. norm   :     0.2436979 α      lambda       -0.1302405E-01
   maximum displ.:     0.1250348 α      in ANC's #16, #41, #17, ...

........................................................................
.............................. CYCLE   20 ..............................
........................................................................

 iter      E             dE          RMSdq      gap      omega  full diag
   1    -42.5623806 -0.425624E+02  0.386E-01    2.76       0.0  T
   2    -42.5626753 -0.294631E-03  0.227E-01    2.78       1.0  T
   3    -42.5628542 -0.178922E-03  0.194E-01    2.70       1.0  T
   4    -42.5633638 -0.509663E-03  0.473E-02    2.75       1.0  T
   5    -42.5633911 -0.272276E-04  0.211E-02    2.73       1.0  T
   6    -42.5633943 -0.323356E-05  0.119E-02    2.74       1.7  T
   7    -42.5633951 -0.820788E-06  0.438E-03    2.74       4.6  T
   8    -42.5633953 -0.216438E-06  0.121E-03    2.74      16.5  T
   9    -42.5633953 -0.166927E-08  0.557E-04    2.74      35.9  T
  10    -42.5633953 -0.266238E-08  0.992E-05    2.74     201.7  T
     SCC iter.                  ...        0 min,  0.014 sec
     gradient                   ...        0 min,  0.011 sec
 * total energy  :   -49.5796725 Eh     change       -0.8158450E-02 Eh
   gradient norm :     0.0752343 Eh/α   predicted    -0.6898948E-02 ( -15.44%)
   displ. norm   :     0.0954913 α      lambda       -0.4629777E-02
   maximum displ.:     0.0498487 α      in ANC's #16, #49, #17, ...
 * RMSD in coord.:     0.6240066 α      energy gain  -0.6779273E+01 Eh

generating ANC from model Hessian ...
Using Lindh-Hessian (1995)
 Shifting diagonal of input Hessian by    7.8014840454628323E-003
 Lowest  eigenvalues of input Hessian
    0.000000    0.000000    0.000000    0.000000    0.000000    0.000000
    0.010000    0.012528    0.013082    0.017540    0.018495    0.020320
    0.020810    0.022258    0.023510    0.029186    0.037961    0.047207
 Highest eigenvalues
    2.163450    2.297919    2.353514    2.538041    9.295561   13.960930


........................................................................
.............................. CYCLE   21 ..............................
........................................................................

 iter      E             dE          RMSdq      gap      omega  full diag
   1    -42.5649984 -0.425650E+02  0.125E-01    2.81       0.0  T
   2    -42.5650490 -0.505866E-04  0.836E-02    2.81       1.0  T
   3    -42.5650735 -0.245704E-04  0.522E-02    2.80       1.0  T
   4    -42.5650961 -0.225571E-04  0.195E-02    2.82       1.0  T
   5    -42.5651051 -0.900841E-05  0.739E-03    2.81       2.7  T
   6    -42.5651060 -0.886819E-06  0.283E-03    2.81       7.1  T
   7    -42.5651060 -0.519721E-08  0.108E-03    2.81      18.5  T
   8    -42.5651060 -0.149193E-07  0.373E-04    2.81      53.6  T
   9    -42.5651060 -0.444217E-09  0.175E-04    2.81     114.0  T
     SCC iter.                  ...        0 min,  0.013 sec
     gradient                   ...        0 min,  0.011 sec
 * total energy  :   -49.5831069 Eh     change       -0.3434365E-02 Eh
   gradient norm :     0.1345723 Eh/α   predicted     0.0000000E+00 (-100.00%)
   displ. norm   :     0.4032503 α      lambda       -0.2616617E-01
   maximum displ.:     0.2630908 α      in ANC's #15, #17, #12, ...

........................................................................
.............................. CYCLE   22 ..............................
........................................................................

 iter      E             dE          RMSdq      gap      omega  full diag
   1    -42.5746925 -0.425747E+02  0.394E-01    2.75       0.0  T
   2    -42.5747824 -0.899296E-04  0.226E-01    2.74       1.0  T
   3    -42.5744256  0.356763E-03  0.200E-01    2.81       1.0  T
   4    -42.5750922 -0.666602E-03  0.351E-02    2.75       1.0  T
   5    -42.5751258 -0.335261E-04  0.103E-02    2.76       1.9  T
   6    -42.5751265 -0.758718E-06  0.590E-03    2.76       3.4  T
   7    -42.5751266 -0.106437E-06  0.222E-03    2.76       9.0  T
   8    -42.5751267 -0.738571E-07  0.766E-04    2.76      26.1  T
   9    -42.5751267 -0.312686E-08  0.310E-04    2.76      64.6  T
     SCC iter.                  ...        0 min,  0.013 sec
     gradient                   ...        0 min,  0.011 sec
 * total energy  :   -49.4587057 Eh     change        0.1244012E+00 Eh
   gradient norm :     3.3835584 Eh/α   predicted    -0.1522768E-01 (-112.24%)
   displ. norm   :     0.1128890 α      lambda       -0.3003018E+00
   maximum displ.:     0.0457024 α      in ANC's #63, #15, #49, ...

........................................................................
.............................. CYCLE   23 ..............................
........................................................................

 iter      E             dE          RMSdq      gap      omega  full diag
   1    -42.5758251 -0.425758E+02  0.141E-01    2.68       0.0  T
   2    -42.5758423 -0.171322E-04  0.106E-01    2.73       1.0  T
   3    -42.5759995 -0.157273E-03  0.585E-02    2.70       1.0  T
   4    -42.5760259 -0.264208E-04  0.260E-02    2.72       1.0  T
   5    -42.5760381 -0.121654E-04  0.628E-03    2.71       3.2  T
   6    -42.5760385 -0.423088E-06  0.331E-03    2.71       6.0  T
   7    -42.5760386 -0.587293E-07  0.126E-03    2.71      15.9  T
   8    -42.5760386 -0.205575E-07  0.420E-04    2.71      47.7  T
   9    -42.5760386 -0.995428E-09  0.130E-04    2.71     153.9  T
     SCC iter.                  ...        0 min,  0.013 sec
     gradient                   ...        0 min,  0.011 sec
 * total energy  :   -49.5963304 Eh     change       -0.1376247E+00 Eh
   gradient norm :     0.0312657 Eh/α   predicted    -0.1520645E+00 (  10.49%)
   displ. norm   :     0.3794921 α      lambda       -0.5925032E-02
   maximum displ.:     0.2251269 α      in ANC's #15, #4, #10, ...

........................................................................
.............................. CYCLE   24 ..............................
........................................................................

 iter      E             dE          RMSdq      gap      omega  full diag
   1    -42.5806831 -0.425807E+02  0.295E-01    2.61       0.0  T
   2    -42.5807902 -0.107136E-03  0.172E-01    2.62       1.0  T
   3    -42.5807142  0.759964E-04  0.783E-02    2.64       1.0  T
   4    -42.5807876 -0.733646E-04  0.313E-02    2.62       1.0  T
   5    -42.5808189 -0.313264E-04  0.853E-03    2.63       2.3  T
   6    -42.5808198 -0.872995E-06  0.375E-03    2.63       5.3  T
   7    -42.5808199 -0.493772E-07  0.115E-03    2.63      17.3  T
   8    -42.5808199 -0.101326E-07  0.489E-04    2.63      40.9  T
   9    -42.5808199 -0.780645E-09  0.106E-04    2.63     188.1  T
     SCC iter.                  ...        0 min,  0.013 sec
     gradient                   ...        0 min,  0.011 sec
 * total energy  :   -49.5999586 Eh     change       -0.3628279E-02 Eh
   gradient norm :     0.0314936 Eh/α   predicted    -0.3389137E-02 (  -6.59%)
   displ. norm   :     0.3186517 α      lambda       -0.2780045E-02
   maximum displ.:     0.1769495 α      in ANC's #4, #9, #2, ...

........................................................................
.............................. CYCLE   25 ..............................
........................................................................

 iter      E             dE          RMSdq      gap      omega  full diag
   1    -42.5865181 -0.425865E+02  0.166E-01    2.54       0.0  T
   2    -42.5865733 -0.552067E-04  0.925E-02    2.55       1.0  T
   3    -42.5865353  0.379636E-04  0.558E-02    2.56       1.0  T
   4    -42.5865659 -0.306249E-04  0.261E-02    2.54       1.0  T
   5    -42.5865871 -0.211647E-04  0.631E-03    2.55       3.2  T
   6    -42.5865876 -0.483843E-06  0.292E-03    2.55       6.9  T
   7    -42.5865876 -0.349603E-07  0.948E-04    2.55      21.1  T
   8    -42.5865876 -0.822239E-08  0.481E-04    2.55      41.6  T
     SCC iter.                  ...        0 min,  0.012 sec
     gradient                   ...        0 min,  0.011 sec
 * total energy  :   -49.6021738 Eh     change       -0.2215200E-02 Eh
   gradient norm :     0.0349686 Eh/α   predicted    -0.1531171E-02 ( -30.88%)
   displ. norm   :     0.5575325 α      lambda       -0.4130595E-02
   maximum displ.:     0.2417321 α      in ANC's #2, #9, #4, ...

........................................................................
.............................. CYCLE   26 ..............................
........................................................................

 iter      E             dE          RMSdq      gap      omega  full diag
   1    -42.5906883 -0.425907E+02  0.306E-01    2.38       0.0  T
   2    -42.5908266 -0.138310E-03  0.174E-01    2.38       1.0  T
   3    -42.5905255  0.301136E-03  0.133E-01    2.41       1.0  T
   4    -42.5908368 -0.311297E-03  0.439E-02    2.37       1.0  T
   5    -42.5908963 -0.595318E-04  0.152E-02    2.39       1.3  T
   6    -42.5908999 -0.354247E-05  0.720E-03    2.38       2.8  T
   7    -42.5909001 -0.255374E-06  0.247E-03    2.38       8.1  T
   8    -42.5909002 -0.443923E-07  0.110E-03    2.38      18.2  T
   9    -42.5909002 -0.465140E-08  0.344E-04    2.38      58.1  T
  10    -42.5909002 -0.144593E-08  0.874E-05    2.38     228.8  T
     SCC iter.                  ...        0 min,  0.014 sec
     gradient                   ...        0 min,  0.011 sec
 * total energy  :   -49.6058109 Eh     change       -0.3637034E-02 Eh
   gradient norm :     0.0572920 Eh/α   predicted    -0.2707290E-02 ( -25.56%)
   displ. norm   :     0.7458735 α      lambda       -0.6057557E-02
   maximum displ.:     0.3445237 α      in ANC's #2, #9, #1, ...

........................................................................
.............................. CYCLE   27 ..............................
........................................................................

 iter      E             dE          RMSdq      gap      omega  full diag
   1    -42.5903258 -0.425903E+02  0.427E-01    2.17       0.0  T
   2    -42.5904415 -0.115732E-03  0.265E-01    2.14       1.0  T
   3    -42.5894166  0.102485E-02  0.269E-01    2.23       1.0  T
   4    -42.5907394 -0.132272E-02  0.764E-02    2.14       1.0  T
   5    -42.5909410 -0.201673E-03  0.312E-02    2.18       1.0  T
   6    -42.5909606 -0.195905E-04  0.121E-02    2.17       1.7  T
   7    -42.5909613 -0.634101E-06  0.389E-03    2.17       5.1  T
   8    -42.5909614 -0.951772E-07  0.168E-03    2.17      11.9  T
   9    -42.5909614 -0.949729E-08  0.367E-04    2.17      54.5  T
  10    -42.5909614 -0.143228E-08  0.128E-04    2.17     156.7  T
     SCC iter.                  ...        0 min,  0.014 sec
     gradient                   ...        0 min,  0.011 sec
 * total energy  :   -49.6101692 Eh     change       -0.4358332E-02 Eh
   gradient norm :     0.1037393 Eh/α   predicted    -0.4713807E-02 (   8.16%)
   displ. norm   :     0.3679969 α      lambda       -0.4538441E-02
   maximum displ.:     0.2070379 α      in ANC's #2, #9, #1, ...

........................................................................
.............................. CYCLE   28 ..............................
........................................................................

 iter      E             dE          RMSdq      gap      omega  full diag
   1    -42.5948924 -0.425949E+02  0.213E-01    2.13       0.0  T
   2    -42.5948505  0.418837E-04  0.142E-01    2.09       1.0  T
   3    -42.5945955  0.254977E-03  0.144E-01    2.15       1.0  T
   4    -42.5950004 -0.404897E-03  0.399E-02    2.10       1.0  T
   5    -42.5950563 -0.558818E-04  0.145E-02    2.12       1.4  T
   6    -42.5950607 -0.438094E-05  0.500E-03    2.11       4.0  T
   7    -42.5950608 -0.932844E-07  0.132E-03    2.11      15.2  T
   8    -42.5950608 -0.984524E-08  0.756E-04    2.11      26.5  T
   9    -42.5950608 -0.345536E-08  0.224E-04    2.11      89.3  T
     SCC iter.                  ...        0 min,  0.013 sec
     gradient                   ...        0 min,  0.011 sec
 * total energy  :   -49.6139077 Eh     change       -0.3738468E-02 Eh
   gradient norm :     0.1444384 Eh/α   predicted    -0.2576549E-02 ( -31.08%)
   displ. norm   :     0.4422418 α      lambda       -0.1014138E-01
   maximum displ.:     0.2306900 α      in ANC's #2, #10, #9, ...

........................................................................
.............................. CYCLE   29 ..............................
........................................................................

 iter      E             dE          RMSdq      gap      omega  full diag
   1    -42.6080319 -0.426080E+02  0.275E-01    2.18       0.0  T
   2    -42.6081169 -0.849878E-04  0.160E-01    2.15       1.0  T
   3    -42.6079252  0.191672E-03  0.102E-01    2.18       1.0  T
   4    -42.6080724 -0.147267E-03  0.508E-02    2.14       1.0  T
   5    -42.6081541 -0.816620E-04  0.130E-02    2.16       1.5  T
   6    -42.6081588 -0.471813E-05  0.393E-03    2.15       5.1  T
   7    -42.6081589 -0.801486E-07  0.138E-03    2.16      14.5  T
   8    -42.6081589 -0.305838E-07  0.399E-04    2.16      50.1  T
   9    -42.6081589 -0.566523E-09  0.177E-04    2.16     113.2  T
     SCC iter.                  ...        0 min,  0.013 sec
     gradient                   ...        0 min,  0.011 sec
 * total energy  :   -49.6206870 Eh     change       -0.6779302E-02 Eh
   gradient norm :     0.2785564 Eh/α   predicted    -0.6062417E-02 ( -10.57%)
   displ. norm   :     0.4308742 α      lambda       -0.6899592E-02
   maximum displ.:     0.2511045 α      in ANC's #2, #1, #9, ...

........................................................................
.............................. CYCLE   30 ..............................
........................................................................

 iter      E             dE          RMSdq      gap      omega  full diag
   1    -42.6067751 -0.426068E+02  0.220E-01    2.20       0.0  T
   2    -42.6068081 -0.329919E-04  0.128E-01    2.19       1.0  T
   3    -42.6066536  0.154448E-03  0.915E-02    2.22       1.0  T
   4    -42.6067983 -0.144704E-03  0.379E-02    2.18       1.0  T
   5    -42.6068451 -0.467317E-04  0.798E-03    2.20       2.5  T
   6    -42.6068463 -0.120711E-05  0.382E-03    2.20       5.2  T
   7    -42.6068464 -0.105905E-06  0.101E-03    2.20      19.7  T
   8    -42.6068464 -0.130021E-07  0.455E-04    2.20      44.0  T
   9    -42.6068464 -0.179264E-08  0.209E-04    2.20      95.5  T
     SCC iter.                  ...        0 min,  0.013 sec
     gradient                   ...        0 min,  0.011 sec
 * total energy  :   -49.6261074 Eh     change       -0.5420417E-02 Eh
   gradient norm :     0.2828750 Eh/α   predicted    -0.4090261E-02 ( -24.54%)
   displ. norm   :     0.4553593 α      lambda       -0.1160061E-01
   maximum displ.:     0.2552669 α      in ANC's #10, #2, #1, ...

........................................................................
.............................. CYCLE   31 ..............................
........................................................................

 iter      E             dE          RMSdq      gap      omega  full diag
   1    -42.6159399 -0.426159E+02  0.366E-01    2.33       0.0  T
   2    -42.6161938 -0.253923E-03  0.196E-01    2.39       1.0  T
   3    -42.6157390  0.454803E-03  0.177E-01    2.29       1.0  T
   4    -42.6163764 -0.637410E-03  0.634E-02    2.37       1.0  T
   5    -42.6164568 -0.804482E-04  0.177E-02    2.35       1.1  T
   6    -42.6164603 -0.346921E-05  0.101E-02    2.35       2.0  T
   7    -42.6164611 -0.798796E-06  0.318E-03    2.35       6.3  T
   8    -42.6164612 -0.124062E-06  0.123E-03    2.35      16.3  T
   9    -42.6164612 -0.928451E-08  0.499E-04    2.35      40.1  T
  10    -42.6164612 -0.260088E-08  0.943E-05    2.35     212.0  T
     SCC iter.                  ...        0 min,  0.014 sec
     gradient                   ...        0 min,  0.011 sec
 * total energy  :   -49.6327137 Eh     change       -0.6606352E-02 Eh
   gradient norm :     0.0873799 Eh/α   predicted    -0.7003024E-02 (   6.00%)
   displ. norm   :     0.5332446 α      lambda       -0.9925002E-02
   maximum displ.:     0.3042473 α      in ANC's #1, #2, #7, ...

........................................................................
.............................. CYCLE   32 ..............................
........................................................................

 iter      E             dE          RMSdq      gap      omega  full diag
   1    -42.6185733 -0.426186E+02  0.310E-01    2.37       0.0  T
   2    -42.6187201 -0.146833E-03  0.164E-01    2.39       1.0  T
   3    -42.6186388  0.813140E-04  0.921E-02    2.37       1.0  T
   4    -42.6187437 -0.104955E-03  0.295E-02    2.39       1.0  T
   5    -42.6187612 -0.175139E-04  0.133E-02    2.38       1.5  T
   6    -42.6187658 -0.457498E-05  0.411E-03    2.38       4.9  T
   7    -42.6187658  0.392531E-08  0.192E-03    2.38      10.4  T
   8    -42.6187659 -0.578840E-07  0.582E-04    2.38      34.4  T
   9    -42.6187659 -0.170834E-08  0.269E-04    2.38      74.5  T
     SCC iter.                  ...        0 min,  0.013 sec
     gradient                   ...        0 min,  0.011 sec
 * total energy  :   -49.6388101 Eh     change       -0.6096408E-02 Eh
   gradient norm :     0.3327230 Eh/α   predicted    -0.6373619E-02 (   4.55%)
   displ. norm   :     0.3082537 α      lambda       -0.1164498E-01
   maximum displ.:     0.1603688 α      in ANC's #1, #15, #32, ...

........................................................................
.............................. CYCLE   33 ..............................
........................................................................

 iter      E             dE          RMSdq      gap      omega  full diag
   1    -42.6202699 -0.426203E+02  0.302E-01    2.36       0.0  T
   2    -42.6204923 -0.222336E-03  0.169E-01    2.42       1.0  T
   3    -42.6201726  0.319628E-03  0.147E-01    2.34       1.0  T
   4    -42.6206238 -0.451137E-03  0.475E-02    2.40       1.0  T
   5    -42.6206666 -0.428654E-04  0.853E-03    2.39       2.3  T
   6    -42.6206674 -0.731152E-06  0.477E-03    2.39       4.2  T
   7    -42.6206675 -0.103947E-06  0.128E-03    2.39      15.6  T
   8    -42.6206675 -0.198962E-07  0.653E-04    2.39      30.6  T
   9    -42.6206675 -0.320532E-08  0.231E-04    2.39      86.5  T
     SCC iter.                  ...        0 min,  0.013 sec
     gradient                   ...        0 min,  0.011 sec
 * total energy  :   -49.6464453 Eh     change       -0.7635107E-02 Eh
   gradient norm :     0.1394589 Eh/α   predicted    -0.6375754E-02 ( -16.49%)
   displ. norm   :     0.3749582 α      lambda       -0.1443961E-01
   maximum displ.:     0.1176528 α      in ANC's #48, #19, #37, ...

........................................................................
.............................. CYCLE   34 ..............................
........................................................................

 iter      E             dE          RMSdq      gap      omega  full diag
   1    -42.6391303 -0.426391E+02  0.514E-01    2.47       0.0  T
   2    -42.6405888 -0.145850E-02  0.268E-01    2.53       1.0  T
   3    -42.6403640  0.224766E-03  0.192E-01    2.43       1.0  T
   4    -42.6406112 -0.247149E-03  0.979E-02    2.52       1.0  T
   5    -42.6408449 -0.233665E-03  0.251E-02    2.47       1.0  T
   6    -42.6408519 -0.708471E-05  0.130E-02    2.48       1.5  T
   7    -42.6408528 -0.814798E-06  0.458E-03    2.48       4.4  T
   8    -42.6408531 -0.321247E-06  0.139E-03    2.48      14.4  T
   9    -42.6408531 -0.107086E-07  0.499E-04    2.48      40.1  T
  10    -42.6408531 -0.184867E-08  0.110E-04    2.48     182.4  T
     SCC iter.                  ...        0 min,  0.014 sec
     gradient                   ...        0 min,  0.012 sec
 * total energy  :   -49.6510936 Eh     change       -0.4648343E-02 Eh
   gradient norm :     0.5243762 Eh/α   predicted    -0.8234857E-02 (  77.16%)
   displ. norm   :     0.2373992 α      lambda       -0.1482154E-01
   maximum displ.:     0.1039757 α      in ANC's #1, #10, #13, ...

........................................................................
.............................. CYCLE   35 ..............................
........................................................................

 iter      E             dE          RMSdq      gap      omega  full diag
   1    -42.6403844 -0.426404E+02  0.165E-01    2.51       0.0  T
   2    -42.6404208 -0.364198E-04  0.924E-02    2.51       1.0  T
   3    -42.6403754  0.453405E-04  0.546E-02    2.49       1.0  T
   4    -42.6404235 -0.480580E-04  0.181E-02    2.51       1.1  T
   5    -42.6404344 -0.108952E-04  0.447E-03    2.50       4.5  T
   6    -42.6404345 -0.109817E-06  0.213E-03    2.50       9.4  T
   7    -42.6404345 -0.340671E-07  0.684E-04    2.50      29.2  T
   8    -42.6404346 -0.838036E-08  0.250E-04    2.50      79.9  T
     SCC iter.                  ...        0 min,  0.011 sec
     gradient                   ...        0 min,  0.011 sec
 * total energy  :   -49.6551515 Eh     change       -0.4057929E-02 Eh
   gradient norm :     0.1887134 Eh/α   predicted    -0.7828444E-02 (  92.92%)
   displ. norm   :     0.2588608 α      lambda       -0.6320401E-02
   maximum displ.:     0.1114864 α      in ANC's #15, #9, #2, ...

........................................................................
.............................. CYCLE   36 ..............................
........................................................................

 iter      E             dE          RMSdq      gap      omega  full diag
   1    -42.6395016 -0.426395E+02  0.171E-01    2.48       0.0  T
   2    -42.6395384 -0.367752E-04  0.101E-01    2.48       1.0  T
   3    -42.6394803  0.580978E-04  0.629E-02    2.49       1.0  T
   4    -42.6395557 -0.753769E-04  0.154E-02    2.47       1.3  T
   5    -42.6395604 -0.470650E-05  0.675E-03    2.48       3.0  T
   6    -42.6395612 -0.848813E-06  0.299E-03    2.48       6.7  T
   7    -42.6395613 -0.740191E-07  0.651E-04    2.48      30.7  T
   8    -42.6395613 -0.447805E-08  0.256E-04    2.48      78.0  T
     SCC iter.                  ...        0 min,  0.011 sec
     gradient                   ...        0 min,  0.011 sec
 * total energy  :   -49.6592637 Eh     change       -0.4112216E-02 Eh
   gradient norm :     0.0754452 Eh/α   predicted    -0.3371965E-02 ( -18.00%)
   displ. norm   :     0.2518283 α      lambda       -0.3796366E-02
   maximum displ.:     0.1107119 α      in ANC's #15, #2, #10, ...

........................................................................
.............................. CYCLE   37 ..............................
........................................................................

 iter      E             dE          RMSdq      gap      omega  full diag
   1    -42.6447530 -0.426448E+02  0.159E-01    2.51       0.0  T
   2    -42.6448511 -0.981248E-04  0.850E-02    2.51       1.0  T
   3    -42.6448369  0.142341E-04  0.533E-02    2.50       1.0  T
   4    -42.6448432 -0.633560E-05  0.228E-02    2.52       1.0  T
   5    -42.6448623 -0.190529E-04  0.857E-03    2.50       2.3  T
   6    -42.6448630 -0.721375E-06  0.480E-03    2.50       4.2  T
   7    -42.6448632 -0.186233E-06  0.111E-03    2.50      18.0  T
   8    -42.6448632 -0.180016E-07  0.328E-04    2.50      61.1  T
   9    -42.6448632 -0.322437E-09  0.136E-04    2.50     147.4  T
     SCC iter.                  ...        0 min,  0.013 sec
     gradient                   ...        0 min,  0.011 sec
 * total energy  :   -49.6613007 Eh     change       -0.2036915E-02 Eh
   gradient norm :     0.2432901 Eh/α   predicted    -0.2018571E-02 (  -0.90%)
   displ. norm   :     0.1592645 α      lambda       -0.2061802E-02
   maximum displ.:     0.0787411 α      in ANC's #2, #8, #15, ...

........................................................................
.............................. CYCLE   38 ..............................
........................................................................

 iter      E             dE          RMSdq      gap      omega  full diag
   1    -42.6460789 -0.426461E+02  0.779E-02    2.51       0.0  T
   2    -42.6460940 -0.151347E-04  0.450E-02    2.50       1.0  T
   3    -42.6460904  0.362209E-05  0.228E-02    2.51       1.0  T
   4    -42.6460953 -0.495606E-05  0.877E-03    2.51       2.3  T
   5    -42.6460968 -0.146399E-05  0.202E-03    2.51       9.9  T
   6    -42.6460969 -0.601380E-07  0.104E-03    2.51      19.3  T
   7    -42.6460969 -0.123657E-07  0.336E-04    2.51      59.5  T
   8    -42.6460969 -0.199849E-08  0.971E-05    2.51     206.1  T
     SCC iter.                  ...        0 min,  0.011 sec
     gradient                   ...        0 min,  0.011 sec
 * total energy  :   -49.6629045 Eh     change       -0.1603892E-02 Eh
   gradient norm :     0.1598573 Eh/α   predicted    -0.1057058E-02 ( -34.09%)
   displ. norm   :     0.2385455 α      lambda       -0.3343049E-02
   maximum displ.:     0.1280524 α      in ANC's #8, #10, #15, ...

........................................................................
.............................. CYCLE   39 ..............................
........................................................................

 iter      E             dE          RMSdq      gap      omega  full diag
   1    -42.6541203 -0.426541E+02  0.140E-01    2.53       0.0  T
   2    -42.6541640 -0.436836E-04  0.799E-02    2.54       1.0  T
   3    -42.6541363  0.276779E-04  0.568E-02    2.52       1.0  T
   4    -42.6541825 -0.462409E-04  0.141E-02    2.53       1.4  T
   5    -42.6541885 -0.599643E-05  0.714E-03    2.53       2.8  T
   6    -42.6541891 -0.610043E-06  0.384E-03    2.53       5.2  T
   7    -42.6541892 -0.108266E-06  0.954E-04    2.53      21.0  T
   8    -42.6541892 -0.117983E-07  0.286E-04    2.53      69.9  T
     SCC iter.                  ...        0 min,  0.011 sec
     gradient                   ...        0 min,  0.011 sec
 * total energy  :   -49.6651727 Eh     change       -0.2268120E-02 Eh
   gradient norm :     0.0726653 Eh/α   predicted    -0.1766640E-02 ( -22.11%)
   displ. norm   :     0.3608568 α      lambda       -0.3554910E-02
   maximum displ.:     0.1917396 α      in ANC's #2, #8, #15, ...

........................................................................
.............................. CYCLE   40 ..............................
........................................................................

 iter      E             dE          RMSdq      gap      omega  full diag
   1    -42.6535390 -0.426535E+02  0.187E-01    2.53       0.0  T
   2    -42.6535636 -0.245982E-04  0.107E-01    2.51       1.0  T
   3    -42.6534661  0.975297E-04  0.752E-02    2.55       1.0  T
   4    -42.6535848 -0.118711E-03  0.997E-03    2.52       2.0  T
   5    -42.6535874 -0.257297E-05  0.637E-03    2.53       3.1  T
   6    -42.6535877 -0.383072E-06  0.286E-03    2.52       7.0  T
   7    -42.6535878 -0.515537E-07  0.556E-04    2.52      35.9  T
   8    -42.6535878 -0.288521E-08  0.269E-04    2.52      74.2  T
     SCC iter.                  ...        0 min,  0.011 sec
     gradient                   ...        0 min,  0.011 sec
 * total energy  :   -49.6671541 Eh     change       -0.1981443E-02 Eh
   gradient norm :     0.1139701 Eh/α   predicted    -0.2008921E-02 (   1.39%)
   displ. norm   :     0.2547455 α      lambda       -0.3137662E-02
   maximum displ.:     0.1393843 α      in ANC's #8, #11, #9, ...

........................................................................
.............................. CYCLE   41 ..............................
........................................................................

 iter      E             dE          RMSdq      gap      omega  full diag
   1    -42.6569532 -0.426570E+02  0.189E-01    2.51       0.0  T
   2    -42.6569720 -0.188138E-04  0.110E-01    2.52       1.0  T
   3    -42.6569377  0.342803E-04  0.353E-02    2.50       1.0  T
   4    -42.6569721 -0.344429E-04  0.142E-02    2.52       1.4  T
   5    -42.6569777 -0.553980E-05  0.312E-03    2.51       6.4  T
   6    -42.6569777 -0.398860E-07  0.196E-03    2.51      10.2  T
   7    -42.6569778 -0.291943E-07  0.460E-04    2.51      43.5  T
   8    -42.6569778 -0.367236E-08  0.144E-04    2.51     139.3  T
     SCC iter.                  ...        0 min,  0.011 sec
     gradient                   ...        0 min,  0.011 sec
 * total energy  :   -49.6692484 Eh     change       -0.2094291E-02 Eh
   gradient norm :     0.0517415 Eh/α   predicted    -0.1670645E-02 ( -20.23%)
   displ. norm   :     0.3231997 α      lambda       -0.2799865E-02
   maximum displ.:     0.2156082 α      in ANC's #8, #11, #16, ...

........................................................................
.............................. CYCLE   42 ..............................
........................................................................

 iter      E             dE          RMSdq      gap      omega  full diag
   1    -42.6542025 -0.426542E+02  0.188E-01    2.50       0.0  T
   2    -42.6542463 -0.437999E-04  0.106E-01    2.51       1.0  T
   3    -42.6542301  0.161555E-04  0.371E-02    2.51       1.0  T
   4    -42.6542411 -0.109329E-04  0.181E-02    2.50       1.1  T
   5    -42.6542518 -0.106942E-04  0.400E-03    2.51       5.0  T
   6    -42.6542519 -0.115294E-06  0.213E-03    2.51       9.4  T
   7    -42.6542519 -0.257404E-07  0.736E-04    2.51      27.2  T
   8    -42.6542519 -0.102662E-07  0.175E-04    2.51     114.4  T
     SCC iter.                  ...        0 min,  0.011 sec
     gradient                   ...        0 min,  0.011 sec
 * total energy  :   -49.6705594 Eh     change       -0.1311023E-02 Eh
   gradient norm :     0.1594632 Eh/α   predicted    -0.1546166E-02 (  17.94%)
   displ. norm   :     0.3002797 α      lambda       -0.4247032E-02
   maximum displ.:     0.1247677 α      in ANC's #2, #10, #9, ...
 * RMSD in coord.:     0.8813463 α      energy gain  -0.9088693E-01 Eh

generating ANC from model Hessian ...
Using Lindh-Hessian (1995)
 Shifting diagonal of input Hessian by    5.3568160464864695E-003
 Lowest  eigenvalues of input Hessian
    0.000000    0.000000    0.000000    0.000000    0.000000    0.000000
    0.010000    0.010912    0.013328    0.013441    0.016466    0.016902
    0.019952    0.022098    0.024082    0.027351    0.037482    0.047326
 Highest eigenvalues
    2.106456    2.255548    2.385752    2.548043   12.049917   12.334440


........................................................................
.............................. CYCLE   43 ..............................
........................................................................

 iter      E             dE          RMSdq      gap      omega  full diag
   1    -42.6575285 -0.426575E+02  0.209E-01    2.49       0.0  T
   2    -42.6575904 -0.618781E-04  0.116E-01    2.48       1.0  T
   3    -42.6574359  0.154547E-03  0.102E-01    2.53       1.0  T
   4    -42.6576432 -0.207279E-03  0.181E-02    2.49       1.1  T
   5    -42.6576509 -0.774015E-05  0.887E-03    2.50       2.3  T
   6    -42.6576511 -0.244198E-06  0.573E-03    2.50       3.5  T
   7    -42.6576515 -0.364553E-06  0.121E-03    2.50      16.6  T
   8    -42.6576515 -0.264295E-07  0.362E-04    2.50      55.3  T
   9    -42.6576515 -0.531912E-09  0.166E-04    2.50     120.6  T
     SCC iter.                  ...        0 min,  0.013 sec
     gradient                   ...        0 min,  0.011 sec
 * total energy  :   -49.6714973 Eh     change       -0.9378769E-03 Eh
   gradient norm :     0.1793929 Eh/α   predicted     0.0000000E+00 (-100.00%)
   displ. norm   :     0.2004975 α      lambda       -0.2387959E-01
   maximum displ.:     0.0855050 α      in ANC's #1, #60, #36, ...

........................................................................
.............................. CYCLE   44 ..............................
........................................................................

 iter      E             dE          RMSdq      gap      omega  full diag
   1    -42.6613434 -0.426613E+02  0.183E-01    2.55       0.0  T
   2    -42.6615000 -0.156649E-03  0.856E-02    2.53       1.0  T
   3    -42.6614966  0.345823E-05  0.471E-02    2.53       1.0  T
   4    -42.6614994 -0.277640E-05  0.239E-02    2.54       1.0  T
   5    -42.6615126 -0.132487E-04  0.834E-03    2.53       2.4  T
   6    -42.6615134 -0.827219E-06  0.411E-03    2.53       4.9  T
   7    -42.6615135 -0.797898E-07  0.162E-03    2.53      12.3  T
   8    -42.6615136 -0.415228E-07  0.406E-04    2.53      49.3  T
   9    -42.6615136 -0.631225E-09  0.261E-04    2.53      76.7  T
     SCC iter.                  ...        0 min,  0.013 sec
     gradient                   ...        0 min,  0.011 sec
 * total energy  :   -49.5033385 Eh     change        0.1681588E+00 Eh
   gradient norm :     2.5490419 Eh/α   predicted    -0.1242135E-01 (-107.39%)
   displ. norm   :     0.1232041 α      lambda       -0.2948679E+00
   maximum displ.:     0.0718506 α      in ANC's #60, #59, #56, ...

........................................................................
.............................. CYCLE   45 ..............................
........................................................................

 iter      E             dE          RMSdq      gap      omega  full diag
   1    -42.6568680 -0.426569E+02  0.140E-01    2.51       0.0  T
   2    -42.6569438 -0.758449E-04  0.644E-02    2.51       1.0  T
   3    -42.6569380  0.585873E-05  0.361E-02    2.51       1.0  T
   4    -42.6569465 -0.854933E-05  0.181E-02    2.50       1.1  T
   5    -42.6569519 -0.541100E-05  0.558E-03    2.51       3.6  T
   6    -42.6569524 -0.517615E-06  0.298E-03    2.51       6.7  T
   7    -42.6569525 -0.555618E-07  0.770E-04    2.51      26.0  T
   8    -42.6569525 -0.117524E-07  0.194E-04    2.51     102.9  T
     SCC iter.                  ...        0 min,  0.011 sec
     gradient                   ...        0 min,  0.012 sec
 * total energy  :   -49.6733380 Eh     change       -0.1699995E+00 Eh
   gradient norm :     0.1247667 Eh/α   predicted    -0.1496718E+00 ( -11.96%)
   displ. norm   :     0.2630473 α      lambda       -0.2153103E-02
   maximum displ.:     0.2152154 α      in ANC's #1, #4, #3, ...

........................................................................
.............................. CYCLE   46 ..............................
........................................................................

 iter      E             dE          RMSdq      gap      omega  full diag
   1    -42.6587821 -0.426588E+02  0.992E-02    2.55       0.0  T
   2    -42.6587910 -0.887275E-05  0.571E-02    2.54       1.0  T
   3    -42.6587905  0.486179E-06  0.125E-02    2.54       1.6  T
   4    -42.6587913 -0.745118E-06  0.520E-03    2.54       3.8  T
   5    -42.6587919 -0.644093E-06  0.208E-03    2.54       9.6  T
   6    -42.6587919 -0.158496E-07  0.906E-04    2.54      22.1  T
   7    -42.6587920 -0.134196E-07  0.399E-04    2.54      50.1  T
     SCC iter.                  ...        0 min,  0.010 sec
     gradient                   ...        0 min,  0.012 sec
 * total energy  :   -49.6747610 Eh     change       -0.1422931E-02 Eh
   gradient norm :     0.0553686 Eh/α   predicted    -0.1151050E-02 ( -19.11%)
   displ. norm   :     0.3438099 α      lambda       -0.1388685E-02
   maximum displ.:     0.2666127 α      in ANC's #1, #4, #3, ...

........................................................................
.............................. CYCLE   47 ..............................
........................................................................

 iter      E             dE          RMSdq      gap      omega  full diag
   1    -42.6605992 -0.426606E+02  0.122E-01    2.58       0.0  T
   2    -42.6606103 -0.110640E-04  0.704E-02    2.57       1.0  T
   3    -42.6606084  0.188943E-05  0.153E-02    2.58       1.3  T
   4    -42.6606109 -0.251398E-05  0.627E-03    2.57       3.2  T
   5    -42.6606117 -0.747464E-06  0.195E-03    2.58      10.3  T
   6    -42.6606117  0.156717E-08  0.680E-04    2.58      29.4  T
   7    -42.6606117 -0.340947E-08  0.397E-04    2.58      50.3  T
     SCC iter.                  ...        0 min,  0.010 sec
     gradient                   ...        0 min,  0.011 sec
 * total energy  :   -49.6758970 Eh     change       -0.1136036E-02 Eh
   gradient norm :     0.0506739 Eh/α   predicted    -0.7764357E-03 ( -31.65%)
   displ. norm   :     0.4780727 α      lambda       -0.1631244E-02
   maximum displ.:     0.3582849 α      in ANC's #1, #4, #3, ...

........................................................................
.............................. CYCLE   48 ..............................
........................................................................

 iter      E             dE          RMSdq      gap      omega  full diag
   1    -42.6624934 -0.426625E+02  0.161E-01    2.62       0.0  T
   2    -42.6625028 -0.934009E-05  0.941E-02    2.61       1.0  T
   3    -42.6624915  0.112154E-04  0.225E-02    2.62       1.0  T
   4    -42.6625037 -0.121358E-04  0.771E-03    2.61       2.6  T
   5    -42.6625051 -0.143735E-05  0.250E-03    2.61       8.0  T
   6    -42.6625051 -0.239859E-07  0.163E-03    2.61      12.3  T
   7    -42.6625052 -0.384536E-07  0.320E-04    2.61      62.5  T
   8    -42.6625052 -0.109203E-08  0.134E-04    2.61     149.6  T
     SCC iter.                  ...        0 min,  0.011 sec
     gradient                   ...        0 min,  0.011 sec
 * total energy  :   -49.6771791 Eh     change       -0.1282093E-02 Eh
   gradient norm :     0.0258705 Eh/α   predicted    -0.1002049E-02 ( -21.84%)
   displ. norm   :     0.5097436 α      lambda       -0.1391757E-02
   maximum displ.:     0.3855793 α      in ANC's #1, #4, #3, ...

........................................................................
.............................. CYCLE   49 ..............................
........................................................................

 iter      E             dE          RMSdq      gap      omega  full diag
   1    -42.6634973 -0.426635E+02  0.170E-01    2.63       0.0  T
   2    -42.6635010 -0.369708E-05  0.100E-01    2.62       1.0  T
   3    -42.6634739  0.270959E-04  0.315E-02    2.64       1.0  T
   4    -42.6635038 -0.299098E-04  0.486E-03    2.62       4.1  T
   5    -42.6635042 -0.441195E-06  0.260E-03    2.63       7.7  T
   6    -42.6635043 -0.444652E-07  0.115E-03    2.63      17.3  T
   7    -42.6635043 -0.149077E-07  0.246E-04    2.63      81.3  T
   8    -42.6635043 -0.798082E-09  0.115E-04    2.63     173.7  T
     SCC iter.                  ...        0 min,  0.011 sec
     gradient                   ...        0 min,  0.011 sec
 * total energy  :   -49.6782191 Eh     change       -0.1040027E-02 Eh
   gradient norm :     0.0539130 Eh/α   predicted    -0.8767261E-03 ( -15.70%)
   displ. norm   :     0.4016852 α      lambda       -0.1019629E-02
   maximum displ.:     0.3057605 α      in ANC's #1, #4, #5, ...

........................................................................
.............................. CYCLE   50 ..............................
........................................................................

 iter      E             dE          RMSdq      gap      omega  full diag
   1    -42.6651675 -0.426652E+02  0.138E-01    2.62       0.0  T
   2    -42.6651705 -0.294525E-05  0.814E-02    2.62       1.0  T
   3    -42.6651531  0.174204E-04  0.264E-02    2.63       1.0  T
   4    -42.6651721 -0.190731E-04  0.421E-03    2.62       4.8  T
   5    -42.6651725 -0.382313E-06  0.219E-03    2.62       9.1  T
   6    -42.6651725 -0.235465E-07  0.760E-04    2.62      26.3  T
   7    -42.6651726 -0.827831E-08  0.202E-04    2.62      99.0  T
     SCC iter.                  ...        0 min,  0.010 sec
     gradient                   ...        0 min,  0.012 sec
 * total energy  :   -49.6789875 Eh     change       -0.7683611E-03 Eh
   gradient norm :     0.0737203 Eh/α   predicted    -0.5921142E-03 ( -22.94%)
   displ. norm   :     0.3171471 α      lambda       -0.9429593E-03
   maximum displ.:     0.2423224 α      in ANC's #1, #4, #10, ...

........................................................................
.............................. CYCLE   51 ..............................
........................................................................

 iter      E             dE          RMSdq      gap      omega  full diag
   1    -42.6675512 -0.426676E+02  0.119E-01    2.60       0.0  T
   2    -42.6675558 -0.453692E-05  0.696E-02    2.61       1.0  T
   3    -42.6675504  0.531973E-05  0.173E-02    2.61       1.2  T
   4    -42.6675563 -0.587404E-05  0.507E-03    2.61       3.9  T
   5    -42.6675569 -0.587773E-06  0.229E-03    2.61       8.7  T
   6    -42.6675569 -0.383205E-07  0.111E-03    2.61      18.1  T
   7    -42.6675570 -0.139035E-07  0.281E-04    2.61      71.1  T
   8    -42.6675570 -0.100436E-08  0.111E-04    2.61     180.0  T
     SCC iter.                  ...        0 min,  0.011 sec
     gradient                   ...        0 min,  0.011 sec
[...]
H           -1.62075881633476        3.09034069712922       -0.23559645467295
H           -2.91792143567436        2.03687338927483       -0.87045579590733
H           -2.68588248799030        2.18008042975663        0.87520715271288
H           -1.00976028636394       -3.08412845849938        1.15253565288222
H           -1.22253775901010       -3.25493101812604       -0.61525537014492
H           -2.50537151125408       -2.52987082578828        0.37402725114999
H            1.38471592576622       -2.96138472356584       -0.05810726931323

 Bond Distances (Angstroems)
 ---------------------------
C1-N2=1.5069         C1-H15=1.0883        C1-H16=1.0884        C1-H17=1.0907        N2-C1=1.5069         N2-C3=1.5023         
N2-C6=1.4633         N2-H18=0.4973        C3-N2=1.5023         C3-N4=1.3184         N4-C3=1.3184         N4-C5=1.3907         
N4-H25=1.0124        C5-N4=1.3907         C5-C6=1.3672         C5-N13=1.3365        C6-N2=1.4633         C6-C5=1.3672         
C6-C7=1.4388         C7-C6=1.4388         C7-O8=1.2074         C7-N9=1.3988         O8-C7=1.2074         N9-C7=1.3988         
N9-C10=1.4555        N9-C11=1.3817        C10-N9=1.4555        C10-H19=1.0876       C10-H20=1.0901       C10-H21=1.0900       
C11-N9=1.3817        C11-O12=1.1968       C11-N13=1.4210       O12-C11=1.1968       N13-C5=1.3365        N13-C11=1.4210       
N13-C14=1.4495       C14-N13=1.4495       C14-H22=1.0907       C14-H23=1.0907       C14-H24=1.0898       H15-C1=1.0883        
H16-C1=1.0884        H17-C1=1.0907        H18-N2=0.4973        H19-C10=1.0876       H20-C10=1.0901       H21-C10=1.0900       
H22-C14=1.0907       H23-C14=1.0907       H24-C14=1.0898       H25-N4=1.0124        
 C  H  Rav=1.0896 sigma=0.0011  Rmin=1.0876  Rmax=1.0907     9
 C  C  Rav=1.4030 sigma=0.0358  Rmin=1.3672  Rmax=1.4388     2
 N  H  Rav=0.7549 sigma=0.2576  Rmin=0.4973  Rmax=1.0124     2
 N  C  Rav=1.4204 sigma=0.0591  Rmin=1.3184  Rmax=1.5069    11
 O  C  Rav=1.2021 sigma=0.0053  Rmin=1.1968  Rmax=1.2074     2

 selected bond angles (degree)
 --------------------
H15-C1-N2=111.16               H16-C1-N2=108.28               H16-C1-H15=109.42              H17-C1-N2=107.97               
H17-C1-H15=109.79              H17-C1-H16=110.21              C3-N2-C1=106.69                C6-N2-C1=111.34                
C6-N2-C3=103.82                H18-N2-C1=107.58               H18-N2-C3=112.82               H18-N2-C6=114.36               
N4-C3-N2=106.02                C5-N4-C3=113.89                H25-N4-C3=121.33               H25-N4-C5=124.78               
C6-C5-N4=107.34                N13-C5-N4=129.18               N13-C5-C6=123.48               C5-C6-N2=108.86                
C7-C6-N2=128.26                C7-C6-C5=122.88                O8-C7-C6=125.66                N9-C7-C6=110.66                
N9-C7-O8=123.67                C10-N9-C7=117.33               C11-N9-C7=127.80               C11-N9-C10=114.86              
H19-C10-N9=108.12              H20-C10-N9=109.90              H20-C10-H19=110.34             H21-C10-N9=109.82              
H21-C10-H19=110.39             H21-C10-H20=108.28             

 selected dihedral angles (degree)
 ---------------------------------
C3-N2-C1-H15=302.37           C3-N2-C1-H16= 62.59           C3-N2-C1-H17=181.90           C6-N2-C1-H15= 55.01           
C6-N2-C1-H16=175.23           C6-N2-C1-H17=294.54           H18-N2-C1-H15=181.06          H18-N2-C1-H16=301.28          
H18-N2-C1-H17= 60.58          N4-C3-N2-C1=119.89            N4-C3-N2-C6=  2.17            N4-C3-N2-H18=237.81           
C5-N4-C3-N2=358.99            H25-N4-C3-N2=179.42           C6-C5-N4-C3=359.31            C6-C5-N4-H25=178.87           
N13-C5-N4-C3=179.84           N13-C5-N4-H25=359.39          C5-C6-N2-C1=242.93            C5-C6-N2-C3=357.36            
C5-C6-N2-H18=120.72           C7-C6-N2-C1= 63.52            C7-C6-N2-C3=177.95            C7-C6-N2-H18=301.31           
N2-C6-C5-N4=  2.13            N2-C6-C5-N13=181.64           C7-C6-C5-N4=181.58            C7-C6-C5-N13=  1.09           
O8-C7-C6-N2=357.71            O8-C7-C6-C5=178.37            N9-C7-C6-N2=178.56            N9-C7-C6-C5=359.23            
C10-N9-C7-C6=180.27           C10-N9-C7-O8=  1.11           C11-N9-C7-C6=359.42           C11-N9-C7-O8=180.25           
H19-C10-N9-C7=358.77          H19-C10-N9-C11=179.51         H20-C10-N9-C7=119.26          H20-C10-N9-C11=300.00         
H21-C10-N9-C7=238.27          H21-C10-N9-C11= 59.01         
           -------------------------------------------------
          |                Final Singlepoint                |
           -------------------------------------------------

          ...................................................
          :                      SETUP                      :
          :.................................................:
          :  # basis functions                  67          :
          :  # atomic orbitals                  67          :
          :  # shells                           39          :
          :  # electrons                        74          :
          :  max. iterations                   250          :
          :  Hamiltonian                  GFN2-xTB          :
          :  restarted?                      false          :
          :  GBSA solvation                  false          :
          :  PC potential                    false          :
          :  electronic temp.         5000.0000000     K    :
          :  accuracy                    1.0000000          :
          :  -> integral cutoff          0.2500000E+02      :
          :  -> integral neglect         0.1000000E-07      :
          :  -> SCF convergence          0.1000000E-05 Eh   :
          :  -> wf. convergence          0.1000000E-03 e    :
          :  Broyden damping             0.4000000          :
          ...................................................

 iter      E             dE          RMSdq      gap      omega  full diag
   1    -42.6688786 -0.426689E+02  0.400E-05    2.62       0.0  T
   2    -42.6688786 -0.101252E-10  0.286E-05    2.62     698.5  T
   3    -42.6688786 -0.136922E-10  0.138E-05    2.62    1447.5  T

   *** convergence criteria satisfied after 3 iterations ***

         #    Occupation            Energy/Eh            Energy/eV
      -------------------------------------------------------------
         1        2.0000           -0.9173004             -24.9610
       ...           ...                  ...                  ...
        31        1.9987           -0.6280563             -17.0903
        32        1.9955           -0.6087557             -16.5651
        33        1.9878           -0.5928338             -16.1318
        34        1.9802           -0.5851816             -15.9236
        35        1.9598           -0.5737996             -15.6139
        36        1.9568           -0.5726254             -15.5819
        37        1.9516           -0.5707581             -15.5311 (HOMO)
        38        0.1680           -0.4744027             -12.9092 (LUMO)
        39        0.0029           -0.4088119             -11.1243
        40        0.0010           -0.3912498             -10.6465
        41        0.0000           -0.3061339              -8.3303
        42                         -0.2453829              -6.6772
       ...                                ...                  ...
        67                          3.6674551              99.7965
      -------------------------------------------------------------
                  HL-Gap            0.0963554 Eh            2.6220 eV
             Fermi-level           -0.5122377 Eh          -13.9387 eV

 SCC (total)                   0 d,  0 h,  0 min,  0.021 sec
 SCC setup                      ...        0 min,  0.000 sec (  0.813%)
 Dispersion                     ...        0 min,  0.000 sec (  0.858%)
 classical contributions        ...        0 min,  0.000 sec (  0.318%)
 integral evaluation            ...        0 min,  0.004 sec ( 20.988%)
 iterations                     ...        0 min,  0.005 sec ( 22.013%)
 molecular gradient             ...        0 min,  0.012 sec ( 54.418%)
 printout                       ...        0 min,  0.000 sec (  0.538%)

         :::::::::::::::::::::::::::::::::::::::::::::::::::::
         ::                     SUMMARY                     ::
         :::::::::::::::::::::::::::::::::::::::::::::::::::::
         :: total energy             -49.681531392287 Eh    ::
         :: gradient norm              0.003076053114 Eh/a0 ::
         :: HOMO-LUMO gap              2.621965129203 eV    ::
         ::.................................................::
         :: SCC energy               -42.668878569130 Eh    ::
         :: -> isotropic ES            0.138483517311 Eh    ::
         :: -> anisotropic ES          0.000840373680 Eh    ::
         :: -> anisotropic XC          0.011287111677 Eh    ::
         :: -> dispersion             -0.023008064614 Eh    ::
         :: repulsion energy           1.545605366307 Eh    ::
         :: add. restraining          -8.558429153166 Eh    ::
         :: total charge               1.000000000000 e     ::
         :::::::::::::::::::::::::::::::::::::::::::::::::::::

           -------------------------------------------------
          |                Property Printout                |
           -------------------------------------------------

    * Orbital Energies and Occupations

         #    Occupation            Energy/Eh            Energy/eV
      -------------------------------------------------------------
         1        2.0000           -0.9173004             -24.9610
       ...           ...                  ...                  ...
        25        1.9999           -0.6765763             -18.4106
        26        1.9999           -0.6681832             -18.1822
        27        1.9998           -0.6584871             -17.9183
        28        1.9998           -0.6559547             -17.8494
        29        1.9994           -0.6404809             -17.4284
        30        1.9991           -0.6342233             -17.2581
        31        1.9987           -0.6280563             -17.0903
        32        1.9955           -0.6087557             -16.5651
        33        1.9878           -0.5928338             -16.1318
        34        1.9802           -0.5851816             -15.9236
        35        1.9598           -0.5737996             -15.6139
        36        1.9568           -0.5726254             -15.5819
        37        1.9516           -0.5707581             -15.5311 (HOMO)
        38        0.1680           -0.4744027             -12.9092 (LUMO)
        39        0.0029           -0.4088119             -11.1243
        40        0.0010           -0.3912498             -10.6465
        41        0.0000           -0.3061339              -8.3303
        42                         -0.2453829              -6.6772
        43                         -0.2046258              -5.5682
        44                         -0.2003742              -5.4525
        45                         -0.1705961              -4.6422
        46                         -0.1602522              -4.3607
        47                         -0.1244509              -3.3865
        48                         -0.0478974              -1.3034
       ...                                ...                  ...
        67                          3.6674551              99.7965
      -------------------------------------------------------------
                  HL-Gap            0.0963554 Eh            2.6220 eV
             Fermi-level           -0.5122377 Eh          -13.9387 eV

     #   Z          covCN         q      C6AA      α(0)
     1   6 C        3.711    -0.087    22.304     6.749
     2   7 N        3.620     0.048    20.401     6.708
     3   6 C        1.945    -0.103    33.937     9.408
     4   7 N        2.762    -0.028    21.780     6.931
     5   6 C        2.938     0.122    25.325     8.253
     6   6 C        3.010    -0.050    29.227     8.868
     7   6 C        2.765     0.269    22.451     7.760
     8   8 O        0.858    -0.365    21.002     6.144
     9   7 N        2.748    -0.083    22.850     7.100
    10   6 C        3.709    -0.062    21.827     6.677
    11   6 C        2.728     0.318    21.594     7.608
    12   8 O        0.859    -0.344    20.592     6.084
    13   7 N        2.739    -0.055    22.296     7.013
    14   6 C        3.696    -0.071    22.033     6.715
    15   1 H        0.925     0.104     1.745     2.066
    16   1 H        0.925     0.128     1.553     1.949
    17   1 H        0.924     0.128     1.550     1.947
    18   1 H        0.893     0.267     0.818     1.416
    19   1 H        0.925     0.117     1.636     2.000
    20   1 H        0.925     0.105     1.742     2.064
    21   1 H        0.925     0.104     1.747     2.067
    22   1 H        0.924     0.088     1.894     2.152
    23   1 H        0.924     0.088     1.896     2.153
    24   1 H        0.925     0.129     1.545     1.943
    25   1 H        0.860     0.232     0.958     1.534

 Mol. C6AA /au·bohr⁶  :       6557.268081
 Mol. C8AA /au·bohr⁸  :     151282.687456
 Mol. α(0) /au        :        123.309259


Wiberg/Mayer (AO) data.
largest (>0.10) Wiberg bond orders for each atom

 ---------------------------------------------------------------------------
     #   Z sym  total        # sym  WBO       # sym  WBO       # sym  WBO
 ---------------------------------------------------------------------------
     1   6 C    3.870 --    15 H    0.982    16 H    0.970    17 H    0.967
                             2 N    0.889
     2   7 N    3.733 --     6 C    0.950     3 C    0.936     1 C    0.889
                            18 H    0.886
     3   6 C    2.644 --     4 N    1.519     2 N    0.936
     4   7 N    3.632 --     3 C    1.519     5 C    1.094    25 H    0.914
     5   6 C    3.936 --     6 C    1.438    13 N    1.241     4 N    1.094
     6   6 C    3.836 --     5 C    1.438     7 C    1.099     2 N    0.950
     7   6 C    3.955 --     8 O    1.681     6 C    1.099     9 N    1.083
     8   8 O    2.013 --     7 C    1.681     9 N    0.140
     9   7 N    3.536 --    11 C    1.130     7 C    1.083    10 C    0.971
                             8 O    0.140    12 O    0.139
    10   6 C    3.898 --     9 N    0.971    19 H    0.965    21 H    0.957
                            20 H    0.956
    11   6 C    3.958 --    12 O    1.718     9 N    1.130    13 N    1.019
    12   8 O    2.065 --    11 C    1.718     9 N    0.139    13 N    0.116
    13   7 N    3.554 --     5 C    1.241    11 C    1.019    14 C    0.975
                            12 O    0.116
    14   6 C    3.917 --    13 N    0.975    23 H    0.967    22 H    0.967
                            24 H    0.963
    15   1 H    0.989 --     1 C    0.982
    16   1 H    0.982 --     1 C    0.970
    17   1 H    0.983 --     1 C    0.967
    18   1 H    0.927 --     2 N    0.886
    19   1 H    0.983 --    10 C    0.965
    20   1 H    0.977 --    10 C    0.956
    21   1 H    0.977 --    10 C    0.957
    22   1 H    0.986 --    14 C    0.967
    23   1 H    0.986 --    14 C    0.967
    24   1 H    0.982 --    14 C    0.963
    25   1 H    0.946 --     4 N    0.914
 ---------------------------------------------------------------------------

Topologies differ in total number of bonds
Writing topology from bond orders to xtbtopo.mol

molecular dipole:
                 x           y           z       tot (Debye)
 q only:        2.107      -1.509       0.041
   full:        1.839      -1.663      -0.068       6.303
molecular quadrupole (traceless):
                xx          xy          yy          xz          yz          zz
 q only:        9.979      -2.443       4.188       0.945       0.878     -14.167
  q+dip:        2.888      -0.206       5.416       0.960       0.337      -8.304
   full:        1.760      -0.186       4.603       1.629       0.863      -6.364

           -------------------------------------------------
          |                Geometry Summary                 |
           -------------------------------------------------

      molecular mass/u    :      195.1988581
   center of mass at/Å    :        0.0507126      -0.0317617      -0.1104047
  moments of inertia/u·Å² :        0.4812159E+03   0.7144697E+03   0.1154278E+04
rotational constants/cm⁻¹ :        0.3503133E-01   0.2359461E-01   0.1460449E-01

 * 25 selected distances

     #   Z          #   Z                                           value/Å
     1   6 C        2   7 N                                       1.5069183 (max)
     3   6 C        4   7 N                                       1.3184274
     4   7 N        5   6 C                                       1.3907428
     2   7 N        6   6 C                                       1.4632894
     5   6 C        6   6 C                                       1.3671803
     6   6 C        7   6 C                                       1.4388234
     7   6 C        8   8 O                                       1.2073761
     7   6 C        9   7 N                                       1.3988184
     9   7 N       10   6 C                                       1.4554869
     9   7 N       11   6 C                                       1.3817078
    11   6 C       12   8 O                                       1.1968051
     5   6 C       13   7 N                                       1.3364653
    11   6 C       13   7 N                                       1.4210386
    13   7 N       14   6 C                                       1.4494869
     1   6 C       15   1 H                                       1.0882881
     1   6 C       16   1 H                                       1.0883690
     1   6 C       17   1 H                                       1.0907176
     2   7 N       18   1 H                                       0.4973301 (min)
    10   6 C       19   1 H                                       1.0876436
    10   6 C       20   1 H                                       1.0901131
    10   6 C       21   1 H                                       1.0899902
    14   6 C       22   1 H                                       1.0906920
    14   6 C       23   1 H                                       1.0906634
    14   6 C       24   1 H                                       1.0897580
     4   7 N       25   1 H                                       1.0124493

 * 5 distinct bonds (by element types)

   Z      Z             #   av. dist./Å        max./Å        min./Å
   1 H    6 C           9     1.0895817     1.0907176     1.0876436
   6 C    6 C           2     1.4030019     1.4388234     1.3671803
   1 H    7 N           2     0.7548897     1.0124493     0.4973301
   6 C    7 N          10     1.4122382     1.5069183     1.3184274
   6 C    8 O           2     1.2020906     1.2073761     1.1968051


optimized geometry written to: xtbopt.xyz


           -------------------------------------------------
          | TOTAL ENERGY              -49.681531392287 Eh   |
          | GRADIENT NORM               0.003076053114 Eh/α |
          | HOMO-LUMO GAP               2.621965129203 eV   |
           -------------------------------------------------

------------------------------------------------------------------------
 * finished run on 2024/06/05 at 19:58:06.526     
------------------------------------------------------------------------
 total:
 * wall-time:     0 d,  0 h,  0 min,  1.909 sec
 *  cpu-time:     0 d,  0 h,  0 min,  1.890 sec
 * ratio c/w:     0.990 speedup
 SCF:
 * wall-time:     0 d,  0 h,  0 min,  0.037 sec
 *  cpu-time:     0 d,  0 h,  0 min,  0.037 sec
 * ratio c/w:     1.000 speedup
 ANC optimizer:
 * wall-time:     0 d,  0 h,  0 min,  1.844 sec
 *  cpu-time:     0 d,  0 h,  0 min,  1.841 sec
 * ratio c/w:     0.999 speedup

