25
 energy: -39.545853651647 gnorm: 14.197261748915 xtb: 6.6.1 (8d0f1dd)
C            3.55867690460044       -0.17401130823642       -0.04355512053209
N           -0.20826091900664        2.91740232410008       -0.00308425796969
C            2.86517387613623       -1.45582718157560       -0.02729717036097
N            1.54951934182548       -1.61065153733375        0.01837447314210
C            0.56919907536995       -0.64558643159430        0.00863305213332
C            0.86999057279003        0.69860623450426        0.01214107348467
C           -0.20797878909336        1.55746797750118        0.00846422246419
O           -1.58937227070950        3.32994578239698        0.03462622916781
N           -1.48846947424435        1.08291900632653        0.05546838825451
C           -2.42037689819774        2.19124729556363        0.08200720179280
C           -1.83309526060747       -0.25227020961991        0.03047138027819
O           -2.97482708344197       -0.62151440067941        0.04045223586500
N           -0.73931693352581       -1.11564959296156       -0.01029740162891
C           -1.06017635008347       -2.53191749671482       -0.06676440702722
H            3.78587375301807        0.14483608606642        0.97815026401765
H            4.50453412417697       -0.25289134809587       -0.57420034872753
H            2.90756033801590        0.60215833952432       -0.46172978997292
H            3.43911811005173       -2.37096426430691       -0.05301769438619
H            0.05706108659645        3.18151176369398       -0.00407309357008
H           -3.09136046759140        2.17170374639397       -0.78910610387699
H           -3.01829671558040        2.19192435071715        1.00502678742462
H           -0.71902171006479       -3.05194043873575        0.83073984566838
H           -0.65051852272493       -2.99252134418164       -0.96741090849431
H           -2.14754746321916       -2.61014296730933       -0.10759636444766
H            1.20234318960514       -2.56559584384367        0.03474912520242
25
 energy: -42.026592732331 gnorm: 0.373632891761 xtb: 6.6.1 (8d0f1dd)
C            3.55867126966545       -0.17400873869287       -0.04355554769272
N           -0.43112996368257        2.69599635075779       -0.00220039519672
C            2.86517619377760       -1.45582436805968       -0.02729720899323
N            1.54951239998117       -1.61064891077593        0.01837225714903
C            0.56926551788020       -0.64558850570099        0.00863682427507
C            0.87034604152631        0.69896560565176        0.01213516384558
C           -0.21379311633296        1.54820609333445        0.00859686707822
O           -1.59481967601525        3.32716290944674        0.03473081060293
N           -1.48896743687313        1.08145522990889        0.05550563172198
C           -2.42135453152469        2.19123051412554        0.08204272491991
C           -1.83312797772354       -0.25234621113410        0.03047125844605
O           -2.97483172932754       -0.62151557821858        0.04045009969304
N           -0.73931105525569       -1.11565097784921       -0.01029984390771
C           -1.06017638154240       -2.53191678814147       -0.06676281498634
H            3.78587638920512        0.14483608464287        0.97815076973490
H            4.50453399232760       -0.25289311756005       -0.57419908131593
H            2.90756522527639        0.60215851924881       -0.46173046083638
H            3.43911616612602       -2.37096541504112       -0.05301574872615
H            0.29232337997253        3.41615637283718       -0.00526787596386
H           -3.09138926358546        2.17170593571330       -0.78911563342269
H           -3.01831580579850        2.19192672442240        1.00504577002746
H           -0.71901994868875       -3.05194043934850        0.83073641271832
H           -0.65051977029914       -2.99252187787827       -0.96741014342443
H           -2.14754801019024       -2.61014411602912       -0.10759568106078
H            1.20234960519686       -2.56559675406027        0.03474746321552
25
 energy: -42.075981795976 gnorm: 0.099589180206 xtb: 6.6.1 (8d0f1dd)
C            3.55913813974775       -0.17827366220877       -0.04316411919124
N           -0.38968167227282        2.82648352477821       -0.00789137192222
C            2.86494872282758       -1.46134894113635       -0.02745703689679
N            1.54940223911421       -1.61865246837198        0.01808934842504
C            0.57013621911888       -0.65467354460821        0.00900056321619
C            0.89046884099928        0.67658839517749        0.01556388459129
C           -0.19790084600252        1.51679722222708        0.01063952730676
O           -1.61548493365038        3.33069657949823        0.03661923107674
N           -1.50403645358162        1.04404925402007        0.05789954864976
C           -2.43601843914727        2.17035550688787        0.08312649836482
C           -1.84656695964890       -0.27687230749044        0.03117604023705
O           -2.98887582327805       -0.64573908360110        0.03947799128798
N           -0.74352414530610       -1.12562478259279       -0.01033217566684
C           -1.06288655873686       -2.53856956208186       -0.06716003420814
H            3.78596045020653        0.14074411801133        0.97842480710512
H            4.50477286725945       -0.25783350482750       -0.57380057791442
H            2.90920781454232        0.59749144677618       -0.46224420979603
H            3.43872721176754       -2.37571685250719       -0.05283298120143
H            0.33219113972651        3.54448549136158       -0.01075066994637
H           -3.10475181326105        2.15848737102215       -0.78817752392989
H           -3.03153053537980        2.17902203212492        1.00602203132583
H           -0.72143676632656       -3.05539612608780        0.83132584226224
H           -0.65300776353200       -2.99545164662778       -0.96891910718390
H           -2.15042376244019       -2.61081748307745       -0.10783343424972
H            1.20160434134947       -2.57199243506633        0.03436954615929
25
 energy: -42.083618397856 gnorm: 0.043785275184 xtb: 6.6.1 (8d0f1dd)
C            3.55990246841081       -0.17872105650401       -0.04262233828885
N           -0.33238206782995        2.85420890410024       -0.01386513589320
C            2.86182302696683       -1.45996331145451       -0.02692486313470
N            1.54536580247331       -1.61645942910493        0.01837752009509
C            0.56309077152221       -0.65207987251027        0.00993822859821
C            0.87639228566912        0.68597232719572        0.01646591673740
C           -0.20820335807705        1.53021367678427        0.01001650908826
O           -1.61801893134030        3.32431223978344        0.04046135685637
N           -1.51678924989690        1.04959783026198        0.05876708677364
C           -2.45542024207734        2.16616723372014        0.08578007446272
C           -1.85357336842923       -0.27746590182833        0.03055419249574
O           -2.99400058773142       -0.65584515129393        0.03861482352526
N           -0.74808166592877       -1.12753742631950       -0.01055682426551
C           -1.05971182292869       -2.54442529457437       -0.06768152703958
H            3.78526224270252        0.14113372739361        0.97900280602857
H            4.50614328992603       -0.26091028609427       -0.57203380904784
H            2.91130314700311        0.59716416458236       -0.46385761957623
H            3.43550426574010       -2.37480452492755       -0.05189953658255
H            0.38957145125613        3.56898373233302       -0.01677668678561
H           -3.12404501894371        2.14521900231677       -0.78555640617445
H           -3.05043064922585        2.16491114361292        1.00902426957308
H           -0.71700075722512       -3.06331492258757        0.82961194131372
H           -0.64918689215586       -3.00267253633034       -0.96891279793924
H           -2.14692278040988       -2.62408150721753       -0.10835875834248
H            1.19984015462526       -2.57136421973781        0.03360319542328
25
 energy: -42.084938767322 gnorm: 0.018904057387 xtb: 6.6.1 (8d0f1dd)
C            3.55870587439544       -0.18036024984753       -0.04205556987576
N           -0.30993996152940        2.86864950216895       -0.01714149003963
C            2.85927561859626       -1.46045184350684       -0.02601084802052
N            1.54312759271288       -1.61484714620892        0.01851683193847
C            0.55985424389232       -0.65066894390276        0.00966705566055
C            0.86319387076492        0.69310487750106        0.01521543694581
C           -0.22138569642220        1.54099334708130        0.00958845237798
O           -1.62458761680453        3.31891144917609        0.04175720663643
N           -1.51920683326982        1.05499356794461        0.06036741824569
C           -2.45935595040249        2.16297734541062        0.08777731506167
C           -1.85183141305729       -0.27703103020964        0.03082117798539
O           -2.99014904463535       -0.66067983852203        0.03837858004490
N           -0.74765169335571       -1.13003212450761       -0.01103135209660
C           -1.05698182729310       -2.54859958285815       -0.06860038789911
H            3.78324405596170        0.13967286343617        0.97966890338525
H            4.50549999461510       -0.26568439153659       -0.56987984021605
H            2.91230947447296        0.59584746255304       -0.46591552056463
H            3.43188938343478       -2.37630785785792       -0.04996707047634
H            0.41125864151342        3.58195717266248       -0.02028756732429
H           -3.12849345891731        2.14155645407149       -0.78313592252454
H           -3.05432926962440        2.16262996372884        1.01100614452014
H           -0.71221491518874       -3.06823062535046        0.82780112289598
H           -0.64635552044851       -3.00651581390207       -0.97026546399381
H           -2.14411914521813       -2.63309130138183       -0.10834094465851
H            1.19867510990262       -2.57055471454273        0.03323794989263
25
 energy: -42.085110235531 gnorm: 0.010351993693 xtb: 6.6.1 (8d0f1dd)
C            3.55748499901567       -0.18050231884171       -0.04181277843600
N           -0.30599500226362        2.86983753738747       -0.01787945200276
C            2.85862151679307       -1.46078779667916       -0.02528380708763
N            1.54264452087119       -1.61396828838315        0.01848075627201
C            0.55933082362174       -0.65044991726382        0.00900777911684
C            0.85856306852290        0.69413410453538        0.01361503642118
C           -0.22779067122429        1.54350952822017        0.00928494762755
O           -1.62786101764796        3.31744899511274        0.04109878139253
N           -1.51732405171050        1.05710945877061        0.06159105327441
C           -2.45717987136821        2.16265400243221        0.08859192825429
C           -1.84969725312689       -0.27672771593577        0.03117209992499
O           -2.98783723130403       -0.66030251282245        0.03861438466142
N           -0.74713131050935       -1.13111115166087       -0.01138504981791
C           -1.05647741164816       -2.54976341395765       -0.06936434221367
H            3.78131480341744        0.14005594672999        0.97988295918358
H            4.50478371272218       -0.26664076381251       -0.56853545123297
H            2.91214961468856        0.59525392960753       -0.46747258676963
H            3.43070960136751       -2.37704989664469       -0.04783262103561
H            0.41463568893225        3.58254797307971       -0.02111704180196
H           -3.12831071901645        2.14067860417914       -0.78147020130293
H           -3.05305331792226        2.16365931001817        1.01190902467792
H           -0.70990541022531       -3.06937163928219        0.82642722826348
H           -0.64598846114427       -3.00659468096837       -0.97171844285555
H           -2.14345145830320       -2.63571447367858       -0.10801469582580
H            1.19819635155737       -2.56966627854261        0.03338210921334
25
 energy: -42.085157486573 gnorm: 0.007685770020 xtb: 6.6.1 (8d0f1dd)
C            3.55675982760510       -0.18007443169422       -0.04169184331896
N           -0.30564720856604        2.86795845363114       -0.01832605375422
C            2.85869316325848       -1.46083692199314       -0.02456248198906
N            1.54269542948883       -1.61334826369535        0.01843115528892
C            0.55952996580051       -0.65015380827942        0.00852101947137
C            0.85763093757846        0.69369144356779        0.01250549191726
C           -0.23097463431498        1.54333133551859        0.00911595766883
O           -1.62876632731633        3.31675697241330        0.03950600562756
N           -1.51522172232372        1.05784030589238        0.06283905912328
C           -2.45474142911254        2.16327017023953        0.08921720444236
C           -1.84862176740076       -0.27680023842951        0.03160818004524
O           -2.98730762874118       -0.65856003812678        0.03895434036383
N           -0.74727527370593       -1.13136796439942       -0.01154294961846
C           -1.05682502255239       -2.54987006391529       -0.07019076947218
H            3.77952532290341        0.14142201578381        0.97993095042273
H            4.50467856016866       -0.26619481267009       -0.56735032955265
H            2.91180375410415        0.59481787340140       -0.46897013511290
H            3.43057915760393       -2.37718036327100       -0.04565183671634
H            0.41441419355285        3.58021981644313       -0.02163743555198
H           -3.12796915637379        2.13927125761235       -0.77987361744264
H           -3.05108644264666        2.16450976610194        1.01291775225210
H           -0.70889038356447       -3.06976232380889        0.82490583675825
H           -0.64680521590499       -3.00562788585760       -0.97331267711059
H           -2.14365513065283       -2.63620135519791       -0.10777489522293
H            1.19790854520759       -2.56887239766718        0.03360368938228
