72
 energy: 0.000000000000 xtb: 6.6.1 (8d0f1dd)
N           -1.47310934822924        2.74401318561852        2.22063942287560
C           -1.55658894218425        2.16490305624665        1.13274284460745
C           -2.74549225258129        2.05621251263064        0.23826250649470
C           -3.31377583855761        0.64333417511334        0.32332515650284
C           -4.30230195924506        0.24487112428158       -0.58026167086503
C           -4.85238808050968       -1.02286499940159       -0.53363593669082
O           -5.81420026757557       -1.48606047972767       -1.36157895357670
C           -6.39655692584623       -0.60827005826649       -2.29568495601309
C           -4.39972542350640       -1.94646120241305        0.44396933240983
O           -4.98748357557592       -3.16146026488900        0.41085995818162
C           -4.66362171172287       -4.10093865802695        1.40909140816864
C           -3.42072545213514       -1.54561399150247        1.33436558640148
C           -2.88302826362110       -0.26315802838497        1.27400162590187
C           -2.19303818453636        2.30467021687947       -1.18742988123374
C           -1.26651549989641        1.17243380322503       -1.65249445018642
C            0.01082525039567        1.09745464658138       -0.89354811789923
N            0.61779399208289       -0.02034948241203       -0.57705527866251
C            2.00145228921113       -0.02376006609561       -0.15611401051620
C            2.92554961797610       -0.53865287672537       -1.27700100652360
C            4.35756883501756       -0.43050761225877       -0.83075552032494
C            5.07346182539911        0.73206415878124       -1.03980975472950
C            6.38628045899965        0.84224449235903       -0.60344828301384
C            7.00047329721665       -0.20824758267940        0.05722314949100
O            8.26703733840855       -0.21011315050632        0.52410948507466
C            9.06912311989339        0.92943609656965        0.31863060963839
C            6.27040022445068       -1.40439766990411        0.28033468609137
O            6.94830004375713       -2.38012947787858        0.92752007684741
C            6.31537376337817       -3.61583233633369        1.15217722400438
C            4.96302840674480       -1.49347485723979       -0.16064431849589
C           -0.05511211878686       -1.29906259857679       -0.62085692079872
C           -3.86758072907722        3.07992629005348        0.58498065642721
C           -4.49286201346546        2.77383518785172        1.94313307512182
C           -3.39165211343248        4.52917708609625        0.54797528556046
H           -4.66030069703099        0.94509076131725       -1.31640581036773
H           -6.85037992114187        0.25803164586058       -1.80468862056629
H           -7.17287509152171       -1.18600121846629       -2.79318183475679
H           -5.66836870040540       -0.26952968819383       -3.04040283452035
H           -4.88416765986127       -3.71589494995018        2.40913564538747
H           -5.29223619720187       -4.96637504833431        1.20969248126828
H           -3.61139846644506       -4.39919876145526        1.35529370415983
H           -3.07077825100221       -2.21868786295666        2.10002682176568
H           -2.14562774333496        0.02067850888151        2.01001363031684
H           -3.02188903413801        2.38238034416975       -1.88813562572432
H           -1.65198546223364        3.25146730843841       -1.20556295755141
H           -1.81103391047759        0.23006526775522       -1.62116316669324
H           -0.99335697743926        1.37490224954061       -2.69443281971844
H           -0.67628070635666        1.65183902374723        0.61785732877701
H            0.63525847086258        1.98466388206871       -0.92314029755375
H            2.11132572081740       -0.65949698961381        0.72532619960637
H            2.30680494458141        0.98978260887088        0.11078973822125
H            2.76694224489122        0.06750735773687       -2.17075272340394
H            2.67954606229959       -1.57455642411728       -1.51167757545099
H            4.62170041431221        1.56295626549351       -1.56123593485311
H            6.92357738865082        1.75715832247601       -0.79119604059515
H            8.65159193263071        1.81001840117181        0.81701562739969
H            9.20136256512460        1.14042868409438       -0.74698998879646
H           10.03428931104811        0.69003246578081        0.76064945022918
H            7.05567240429544       -4.23621211097668        1.65347581279537
H            5.43848051513375       -3.50813590722545        1.79970582482858
H            6.02060097762632       -4.09420535105165        0.21253284608183
H            4.40102799328555       -2.40127288651695       -0.00490198294521
H           -0.22071301762289       -1.61775598610935       -1.65116024301020
H           -1.01972267469312       -1.24102728946113       -0.10935207845464
H            0.55899959333766       -2.04486104898380       -0.12333731565713
H           -4.63991918782192        2.95501120214274       -0.18098089750912
H           -3.76095251366987        2.90314731895452        2.73380846416528
H           -4.87457659255110        1.75695657819473        1.97884621460846
H           -5.31925601899505        3.45579242388173        2.12325583951056
H           -2.60025614255587        4.69225089676674        1.27368930043085
H           -3.03987434616939        4.81897697030947       -0.43870979129779
H           -4.22191779840287        5.18069696155015        0.80616701440619
H           -0.59832439338922        2.77744720721660        2.72959009765665
72
 energy: -4.845850600204 xtb: 6.6.1 (8d0f1dd)
N           -1.49556072628131        2.79647439150315        2.21403637207707
C           -1.57682824056479        2.16643074667771        1.13634451385244
C           -2.77015029143749        2.06839095260030        0.23992311199315
C           -3.33658267405097        0.65618477591517        0.32393796997552
C           -4.32512545288089        0.25135674673195       -0.57617522209450
C           -4.86891459571502       -1.01845712493907       -0.52937330892674
O           -5.83590265173509       -1.48831212250923       -1.35833441262138
C           -6.41669360310645       -0.61207449084322       -2.29271941440776
C           -4.41300168205279       -1.93838531181690        0.44579764122064
O           -5.00111142243996       -3.16099421356335        0.41434403666346
C           -4.66797592598230       -4.09600515825313        1.41125695453730
C           -3.43575723756300       -1.53384669936970        1.33491922279170
C           -2.90325134449167       -0.24962926624729        1.27355702047796
C           -2.22837239964671        2.31514111185614       -1.19176235483429
C           -1.29771535239130        1.19647622495035       -1.69148513200401
C           -0.00670498121773        1.12932706974138       -0.93436894818980
N            0.63144803843735       -0.02797865840987       -0.59646997875563
C            2.01770277461954       -0.05494273996814       -0.14738488233332
C            2.96417819261329       -0.56653117499187       -1.25283125277543
C            4.38620099216363       -0.44775783173550       -0.79450387864941
C            5.09511543437523        0.72153656399803       -0.99778867974433
C            6.41110132072993        0.83383239839014       -0.57595176530782
C            7.03583374378827       -0.21977741211177        0.06838211179303
O            8.31664442560341       -0.22255666156581        0.51781267852436
C            9.10684444206372        0.92100006890035        0.30452909364402
C            6.31286522109795       -1.41612610286120        0.29632197231702
O            7.00726967628272       -2.39809137791181        0.92812539503999
C            6.37798647017493       -3.63431275800878        1.15170502148776
C            5.00196445028774       -1.50887830199264       -0.12827387453545
C           -0.06236797920069       -1.28802735647362       -0.66568259574420
C           -3.89692515014534        3.08170530228107        0.59045767365807
C           -4.50499721965480        2.77626460868010        1.95712218677726
C           -3.42932930330842        4.53434141595577        0.55191846164514
H           -4.68289285668305        0.94835859279933       -1.31591564010934
H           -6.87122785155492        0.25555299366763       -1.80369781402314
H           -7.19252292914237       -1.19160870120924       -2.79000216714562
H           -5.68848480571206       -0.27250868171545       -3.03717160661429
H           -4.88645245919658       -3.71191444230288        2.41274400993093
H           -5.29290657485936       -4.96514407300900        1.21399005376722
H           -3.61402902889647       -4.38848528014432        1.35517313636856
H           -3.07937743716297       -2.20779930925828        2.09799400181209
H           -2.15990544373994        0.03553184569223        2.00193594261024
H           -3.06735155047532        2.40784444462041       -1.88256714190982
H           -1.68501049053109        3.26125940689357       -1.20753448093028
H           -1.84392091679714        0.25422742237222       -1.64700268034845
H           -1.07370110053755        1.40450351614379       -2.74726384742621
H           -0.70585184026931        1.65107206393749        0.63182060578298
H            0.61329655725162        2.01187315888775       -0.99159277984171
H            2.14479941197495       -0.69585016141222        0.73617962924975
H            2.33205291002110        0.95225252375932        0.13485949397972
H            2.80075205755513        0.04151103001738       -2.14374485347834
H            2.72375713671973       -1.60383900756073       -1.49031700414810
H            4.63293605482425        1.55499983218335       -1.50521024559353
H            6.94481225132800        1.75095741780405       -0.76682052266675
H            8.69225224723862        1.79894510523087        0.81082849061010
H            9.22381799126592        1.13756957720355       -0.76231529235304
H           10.07860446135251        0.68351450071365        0.73314583147615
H            7.12744749867325       -4.25829572284222        1.63488821257990
H            5.51178759911581       -3.53329342622800        1.81417198941497
H            6.06595773277597       -4.10584475465983        0.21391782654110
H            4.44364950259260       -2.41814576086761        0.03396732608856
H           -0.21571266269605       -1.60900846129731       -1.70070350850043
H           -1.03958481210875       -1.22546734450838       -0.17602071402494
H            0.53800486466534       -2.03198817840876       -0.15354134393554
H           -4.67919937445542        2.95652647585157       -0.16660062520438
H           -3.75936841917058        2.90786537578063        2.73494273013707
H           -4.87778907763545        1.75577696100625        1.99684500137053
H           -5.33377062669148        3.45404487499436        2.14836990476460
H           -2.62794393204388        4.69590840906608        1.26686067913107
H           -3.08769841543374        4.82358832030194       -0.43862352207051
H           -4.25936721028526        5.18417647505736        0.81998213851191
H           -0.60984661276564        2.80484713890378        2.70912958110499
72
 energy: -2.427855555761 xtb: 6.6.1 (8d0f1dd)
N           -1.52781605690546        2.86865691423813        2.19570876127246
C           -1.59746614867412        2.17193697800460        1.13503173362367
C           -2.80117254575365        2.08327589478218        0.24032494739362
C           -3.36183849574779        0.67019220150840        0.32041458748146
C           -4.35244581686353        0.25844215091836       -0.57338040371724
C           -4.88858703307504       -1.01318273482877       -0.52444743939191
O           -5.86529095234755       -1.49013002261293       -1.35363303712099
C           -6.44371572386007       -0.61425369262216       -2.28604243329227
C           -4.42840281303596       -1.92800117288408        0.44675485743511
O           -5.01965502241418       -3.16037065069975        0.41958196421804
C           -4.67557299301829       -4.08780677515909        1.41564204284863
C           -3.45173044170439       -1.52069696141247        1.33325221332262
C           -2.92563886018344       -0.23510471963780        1.26955991252688
C           -2.27331888581059        2.33356124928842       -1.19760714341868
C           -1.34363091875490        1.22245710398368       -1.73574289229048
C           -0.03265958488079        1.16736140368052       -0.99009739042809
N            0.64893789462007       -0.03503930307245       -0.62377496797564
C            2.03997401226167       -0.09547334621611       -0.12992164825698
C            3.01429812324293       -0.60181976916851       -1.21742007540184
C            4.42245081143709       -0.46769788580809       -0.73843692966590
C            5.12215774329527        0.71032968267144       -0.93275174025232
C            6.44408890887793        0.82508925221976       -0.53356708535639
C            7.08323996204886       -0.23446793649194        0.08366395922189
O            8.38462724910337       -0.23972762717267        0.50457350661054
C            9.15871085609649        0.90858006302653        0.28049467387372
C            6.37081489146840       -1.43077176977853        0.31665125091691
O            7.08655244196599       -2.42287648916636        0.92600417084912
C            6.45901960081768       -3.65765311444472        1.14958758100567
C            5.05406969135398       -1.52803020159900       -0.08434942519335
C           -0.07513606675980       -1.26941331799701       -0.72874015358583
C           -3.93327496612088        3.08220887548362        0.59758141299720
C           -4.52007776966388        2.77637678493721        1.97474067400763
C           -3.48042769774205        4.54073474294726        0.55346648075172
H           -4.71136041388527        0.95219005485764       -1.31642811038890
H           -6.89831164193946        0.25488090159811       -1.79813871388007
H           -7.22033123605574       -1.19443503781717       -2.78279140245389
H           -5.71672266400598       -0.27321014629909       -3.03131481438304
H           -4.89161503403644       -3.70394960381450        2.41869971008786
H           -5.29669437504849       -4.96139463353723        1.22248240289084
H           -3.61987278651753       -4.37494951340138        1.35775888585298
H           -3.08701963278413       -2.19546343019235        2.09296156470657
H           -2.17531971399319        0.05253020773197        1.98891632711189
H           -3.12625354285626        2.44527096901287       -1.87472526919377
H           -1.72673329399153        3.27891445517057       -1.21028925547413
H           -1.89285349669871        0.28075841942530       -1.68268069209016
H           -1.17904180708655        1.44297726873926       -2.80586053269630
H           -0.74341635420359        1.64692345093259        0.65566230459813
H            0.58046894781110        2.04316514054139       -1.07826902923044
H            2.18550780870748       -0.74990245920971        0.75431959693863
H            2.36775839105731        0.90065984289036        0.17972924826536
H            2.84656307505982        0.00909651128369       -2.10470869458094
H            2.78595154058773       -1.64176432363918       -1.46199022398138
H            4.64462450010010        1.54874891527504       -1.41770112214189
H            6.97178693208649        1.74615188256138       -0.72648162972683
H            8.75104460891142        1.78311247727779        0.79962939149723
H            9.25291972695015        1.13381300416382       -0.78791957193147
H           10.14072027396989        0.67313788355053        0.68767202981568
H            7.21987501991843       -4.28937011067386        1.60563585103470
H            5.60986348484402       -3.56366640031438        1.83519418064095
H            6.11954306434011       -4.11918604625797        0.21536900731419
H            4.50146427445865       -2.43982013945630        0.08591471435468
H           -0.20848843079214       -1.59724389238616       -1.76937202847193
H           -1.07089801100630       -1.20519572055662       -0.27150392233661
H            0.50333092017178       -2.01332939924117       -0.19457709385008
H           -4.72823402125072        2.95318045279474       -0.14749637156957
H           -3.75810538863626        2.91406408243606        2.73591876721861
H           -4.88074374920872        1.75115203252393        2.02080763901604
H           -5.35225231725711        3.44757117249540        2.17935640204260
H           -2.66653510167318        4.70237090849755        1.25391433113797
H           -3.15424471116570        4.82919524864871       -0.44278412069719
H           -4.31101784418590        5.18603271196253        0.83488907626370
H           -0.62454159708840        2.83958882758150        2.66956573574098
72
 energy: 8.069651852760 xtb: 6.6.1 (8d0f1dd)
N           -1.56199369556891        2.93615825266822        2.17665788775859
C           -1.61622425328411        2.18114022232722        1.13107705735257
C           -2.83250716658165        2.09830372586213        0.24016441945745
C           -3.38642371643195        0.68365947992423        0.31585470089327
C           -4.37959854202202        0.26541864643224       -0.57132795354875
C           -4.90817186560301       -1.00792726505587       -0.51950627192287
O           -5.89502892018350       -1.49157257363096       -1.34880933862707
C           -6.47105544502060       -0.61607997451604       -2.27883795337014
C           -4.44367077594191       -1.91747261638958        0.44758006738799
O           -5.03835829369387       -3.15960506366483        0.42519586743268
C           -4.68350419860111       -4.07912186480766        1.42028320277109
C           -3.46696523165188       -1.50804954153104        1.33130289022461
C           -2.94726390489441       -0.22130413666618        1.26482381525196
C           -2.31882656942825        2.35379852184976       -1.20373117065015
C           -1.39222073713747        1.24784360345852       -1.77883981135185
C           -0.06150325378759        1.20591714826645       -1.04826707321729
N            0.66720075240103       -0.04185274113110       -0.65252958542159
C            2.06421294176214       -0.13648504514290       -0.11098079348535
C            3.06450267450871       -0.63718603428646       -1.18143310053176
C            4.45894553364078       -0.48749234662931       -0.68031865209628
C            5.14949813454607        0.69928477211608       -0.86547125798836
C            6.47766317630299        0.81670077032944       -0.48993505552468
C            7.13122388648888       -0.24932481490807        0.09879318675851
O            8.45311432331497       -0.25683200677641        0.49030233236664
C            9.21118969698168        0.89575474763236        0.25545301593100
C            6.42976150272618       -1.44550414443394        0.33687519960860
O            7.16630131549051       -2.44785937857506        0.92355348772037
C            6.54066444394595       -3.68101926713709        1.14729898355993
C            5.10685385059079       -1.54741806029184       -0.03988245641169
C           -0.08812687528047       -1.24978190521804       -0.79265947779500
C           -3.96942453694530        3.08265330258357        0.60528355075471
C           -4.53504237230384        2.77596974636998        1.99261576870760
C           -3.53208446148723        4.54729222603424        0.55447977572191
H           -4.74015285000232        0.95615098212386       -1.31717345518919
H           -6.92583805803961        0.25450591199147       -1.79199232994403
H           -7.24867059930978       -1.19663754967047       -2.77504091460930
H           -5.74561721410245       -0.27352646199730       -3.02531302374031
H           -4.89722654626980       -3.69560164531137        2.42496362255171
H           -5.30086040294145       -4.95720685911727        1.23154851061303
H           -3.62616656527025       -4.36144508014259        1.36082976753378
H           -3.09426093389810       -2.18322501176974        2.08783693206519
H           -2.19057340920093        0.06930194431400        1.97577704643869
H           -3.18522848387769        2.48352660539642       -1.86711116208658
H           -1.76864546464228        3.29790192440997       -1.21351886964073
H           -1.94403956251177        0.30682758607231       -1.71942482232065
H           -1.28336448179227        1.48149097935265       -2.86068704088199
H           -0.78103780636490        1.64392501803617        0.68106145965847
H            0.54470832369454        2.07483819325253       -1.16455351073479
H            2.22541734043189       -0.80577116309793        0.77370988231358
H            2.40475585918401        0.84794454875046        0.22716562085682
H            2.89341723990900       -0.02367994969013       -2.06541372733756
H            2.84959273854906       -1.68002811418274       -1.43312681754580
H            4.65632620664612        1.54273754130392       -1.32720847050685
H            6.99882994821058        1.74184264044146       -0.68462585979068
H            8.81143785813346        1.76700448193606        0.78782302796466
H            9.28232525119738        1.12987274387705       -0.81430514485336
H           10.20369127638178        0.66244912659489        0.64029972590015
H            7.31272589655885       -4.32082764168699        1.57522976971514
H            5.70947586619225       -3.59423141064796        1.85675957475308
H            6.17303192173528       -4.13242700161145        0.21718734933453
H            4.56031676293326       -2.46186036960518        0.13851547536191
H           -0.20077386603125       -1.58495664782509       -1.83852404297522
H           -1.10237164132317       -1.18418987065449       -0.36873657193472
H            0.46656531976365       -1.99519930826359       -0.23635711748385
H           -4.77668288635071        2.94851373502819       -0.12782368838172
H           -3.75767567735762        2.92060362410804        2.73732715946495
H           -4.88359501577006        1.74620303944983        2.04504698207765
H           -5.37044237085631        3.44028560297504        2.21012210163733
H           -2.70602954100836        4.70987564329880        1.24023694441699
H           -3.22228829428230        4.83498290157768       -0.44760104376762
H           -4.36331612724011        5.18721036579399        0.84936668973688
H           -0.63899863104946        2.87410433220087        2.62515124607394
72
 energy: 23.731106731375 xtb: 6.6.1 (8d0f1dd)
N           -1.59083183545233        2.99757071316745        2.16138253651189
C           -1.64043113875998        2.19145093630197        1.12677897040288
C           -2.86396707560029        2.11315768373108        0.23884229026291
C           -3.41158154796724        0.69730744777271        0.31239154959480
C           -4.40657493172327        0.27248892603225       -0.56911345801186
C           -4.92868927471668       -1.00270492753878       -0.51517922009392
O           -5.92351610862018       -1.49273479011579       -1.34353396419896
C           -6.49866819731268       -0.61789678959175       -2.27219679019949
C           -4.45941572930660       -1.90802638570901        0.44884536282461
O           -5.05616916716495       -3.15782424499834        0.43059925211082
C           -4.69128633060084       -4.07109864619411        1.42529016936750
C           -3.48247959176036       -1.49521004064480        1.32921214825842
C           -2.96846354708230       -0.20680460198708        1.26015126953463
C           -2.36435004712099        2.37212066065671       -1.21080519258274
C           -1.43817042263837        1.27552684541527       -1.82248012349888
C           -0.08760886374042        1.24288609882608       -1.10109496686300
N            0.68289843661217       -0.04908229582671       -0.68045789999216
C            2.08392003567612       -0.17721459604906       -0.09477509374303
C            3.11414436493923       -0.67201285731542       -1.14526379249386
C            4.49580513334376       -0.50742880203380       -0.62435173880216
C            5.17653840996247        0.68859744122755       -0.79968898053805
C            6.51045738849367        0.80807540154126       -0.44728892679223
C            7.17990612319845       -0.26409221496332        0.11366498548896
O            8.52010562249941       -0.27369652886449        0.47730887293943
C            9.26370015369412        0.88351612155546        0.23092740029764
C            6.48794258984204       -1.46123016764303        0.35719831311683
O            7.24492039476465       -2.47205308163453        0.92133912195034
C            6.62205642553339       -3.70479481237053        1.14529655624960
C            5.15907249109178       -1.56688171241734        0.00488126718071
C           -0.09969208615804       -1.23352381166461       -0.85483878914593
C           -4.00653918608746        3.08347075749716        0.61246621158107
C           -4.54982715588143        2.77606854213030        2.01026701942832
C           -3.58353993206350        4.55341159491949        0.55593484610731
H           -4.76891105866463        0.96004117267419       -1.31768824232952
H           -6.95329945426687        0.25390727465028       -1.78620200684037
H           -7.27685151573888       -1.19937581633384       -2.76751133661432
H           -5.77436539467468       -0.27419194545244       -3.01945555797002
H           -4.90261322781957       -3.68743549893188        2.43113315309170
H           -5.30494200549831       -4.95322426282501        1.24032407096817
H           -3.63229275028504       -4.34795295457641        1.36363871363676
H           -3.10197600674173       -2.17082735466981        2.08292687177548
H           -2.20588906574679        0.08607049303751        1.96307701408357
H           -3.24349143638325        2.52033545045424       -1.86064190472497
H           -1.81090384736238        3.31545819400348       -1.21712966456079
H           -1.99351403663048        0.33489712466964       -1.75398283409096
H           -1.38423271279347        1.51909546340391       -2.91718956439078
H           -0.81615047857238        1.64099976043213        0.69891097107339
H            0.51066988324612        2.10793174817829       -1.24979967618396
H            2.26143570094902       -0.85902446647766        0.78953932242211
H            2.43866941038178        0.79589248512665        0.27057212013643
H            2.94070637776929       -0.05595485846517       -2.02635427732006
H            2.91152460914704       -1.71715017718663       -1.40382195519673
H            4.66841799555747        1.53674815553349       -1.23895934870479
H            7.02562520626963        1.73718158756039       -0.64361324223503
H            8.87114115613856        1.75115612979129        0.77620585047397
H            9.31160589663448        1.12569264976804       -0.84026608538463
H           10.26611012625487        0.65178168186636        0.59405701425183
H            7.40560683803092       -4.35185354048804        1.54581508331442
H            5.80827451488299       -3.62509161249846        1.87795306860788
H            6.22719377860912       -4.14585362373787        0.21891389204160
H            4.61859529356213       -2.48407523197104        0.19033008848141
H           -0.19249638021709       -1.57178819089024       -1.90648307847579
H           -1.13160024483747       -1.16196693421629       -0.46335840686582
H            0.43176976322175       -1.97947522870902       -0.27794561643713
H           -4.82564073237107        2.94468343830854       -0.10862885043627
H           -3.75718654324828        2.92689315318400        2.73946664288930
H           -4.88624124031933        1.74162934699049        2.06904589316186
H           -5.38887941470839        3.43364653484842        2.24078862749685
H           -2.74509013137553        4.71794097155943        1.22705163054550
H           -3.28974989555639        4.84073835389369       -0.45188801346172
H           -4.41547153482170        5.18873924566832        0.86393310735248
H           -0.65332404503585        2.91173519068843        2.58801385262685
72
 energy: 42.511061158640 xtb: 6.6.1 (8d0f1dd)
N           -1.61942660957323        3.03952774990904        2.14730821301095
C           -1.66275213961917        2.21479590221326        1.11388070408498
C           -2.89591193544941        2.12786379365375        0.23563175652629
C           -3.43535685252679        0.70908405198541        0.30739083469138
C           -4.43330705776199        0.27915606534816       -0.56812749345351
C           -4.94983795753033       -0.99747113630832       -0.51089512322004
O           -5.95114960531060       -1.49312989453802       -1.33790147985453
C           -6.52614409777153       -0.61975547522280       -2.26576668498509
C           -4.47544178385519       -1.89897509408253        0.45068983060118
O           -5.07323310716516       -3.15511647860673        0.43650015139474
C           -4.69879115716648       -4.06306346399500        1.43033496457195
C           -3.49734904227583       -1.48332698108412        1.32740409535131
C           -2.98848668696924       -0.19374625641592        1.25502872242162
C           -2.41035356487351        2.39501476863806       -1.21882424317362
C           -1.49098400112737        1.30280227254264       -1.86230771862385
C           -0.12224976974489        1.28320791869688       -1.15359801165903
N            0.70099656869563       -0.05693664563519       -0.71032832262671
C            2.10944780567663       -0.21789402098046       -0.07630737701355
C            3.16230199391940       -0.70667380400208       -1.11095511406550
C            4.53194166278977       -0.52718677687084       -0.56714045363746