25
 energy: -42.094048624307 gnorm: 0.009635828934 xtb: 6.6.1 (8d0f1dd)
C            3.15361376549036        1.40172480975158        0.04407751952969
N            2.35092025213832        0.26128183784841        0.01297527382263
C            2.56443133054091       -2.31054977298757       -0.23656892555414
N            1.28261373058799       -2.23414519552199       -0.16482121339272
C            0.46411746696625       -1.11410073103906       -0.06001788327511
C            1.06373568897650        0.16108491348922       -0.01807525570819
C            0.14390053160248        1.35275342307389       -0.00061044451621
O            0.56374475936295        2.48499806922118       -0.04100044873720
N           -1.19128483327220        1.05803817301952        0.06915665383255
C           -2.14379256625695        2.16239137010583        0.10574678252620
C           -1.76238509729180       -0.20039291299495        0.09408300664481
O           -2.94785042761032       -0.36512931913532        0.17819468017138
N           -0.87895403051041       -1.28732220580948        0.00338171598199
C           -1.48097118148489       -2.60878946690111       -0.00243799879751
H            2.57428803904007        2.29212323823313        0.31320365331065
H            3.96929270383242        1.24812124864295        0.75524608758317
H            3.59908304141312        1.57276448960879       -0.94222005423070
H            3.20167399997617       -1.42950747468815       -0.23467016206786
H           -1.59132179911398        3.09828873590984        0.11438137538333
H           -2.79184563567046        2.11526088666053       -0.76942454138818
H           -2.76392101289786        2.07670243281803        0.99757171501422
H           -1.14427277628755       -3.19739539369923        0.85282273232380
H           -1.27978488341772       -3.12985680199031       -0.94005718170159
H           -2.55974727974136       -2.46814874329351        0.08452290157429
H            0.76514772772709       -3.12195706872425       -0.18428837042932
