      -----------------------------------------------------------      
     |                   =====================                   |     
     |                           x T B                           |     
     |                   =====================                   |     
     |                         S. Grimme                         |     
     |          Mulliken Center for Theoretical Chemistry        |     
     |                    University of Bonn                     |     
      -----------------------------------------------------------      

   * xtb version 6.6.1 (8d0f1dd) compiled by 'conda@1efc2f54142f' on 2023-08-01

   xtb is free software: you can redistribute it and/or modify it under
   the terms of the GNU Lesser General Public License as published by
   the Free Software Foundation, either version 3 of the License, or
   (at your option) any later version.
   
   xtb is distributed in the hope that it will be useful,
   but WITHOUT ANY WARRANTY; without even the implied warranty of
   MERCHANTABILITY or FITNESS FOR A PARTICULAR PURPOSE.  See the
   GNU Lesser General Public License for more details.
   
   Cite this work as:
   * C. Bannwarth, E. Caldeweyher, S. Ehlert, A. Hansen, P. Pracht,
     J. Seibert, S. Spicher, S. Grimme, WIREs Comput. Mol. Sci., 2020, 11,
     e01493. DOI: 10.1002/wcms.1493
   
   for GFN2-xTB:
   * C. Bannwarth, S. Ehlert and S. Grimme., J. Chem. Theory Comput., 2019,
     15, 1652-1671. DOI: 10.1021/acs.jctc.8b01176
   for GFN1-xTB:
   * S. Grimme, C. Bannwarth, P. Shushkov, J. Chem. Theory Comput., 2017,
     13, 1989-2009. DOI: 10.1021/acs.jctc.7b00118
   for GFN0-xTB:
   * P. Pracht, E. Caldeweyher, S. Ehlert, S. Grimme, ChemRxiv, 2019, preprint.
     DOI: 10.26434/chemrxiv.8326202.v1
   for GFN-FF:
   * S. Spicher and S. Grimme, Angew. Chem. Int. Ed., 2020, 59, 15665-15673.
     DOI: 10.1002/anie.202004239
   
   for ALPB and GBSA implicit solvation:
   * S. Ehlert, M. Stahn, S. Spicher, S. Grimme, J. Chem. Theory Comput.,
     2021, 17, 4250-4261. DOI: 10.1021/acs.jctc.1c00471
   
   for DFT-D4:
   * E. Caldeweyher, C. Bannwarth and S. Grimme, J. Chem. Phys., 2017,
     147, 034112. DOI: 10.1063/1.4993215
   * E. Caldeweyher, S. Ehlert, A. Hansen, H. Neugebauer, S. Spicher,
     C. Bannwarth and S. Grimme, J. Chem. Phys., 2019, 150, 154122.
     DOI: 10.1063/1.5090222
   * E. Caldeweyher, J.-M. Mewes, S. Ehlert and S. Grimme, Phys. Chem. Chem. Phys.
     2020, 22, 8499-8512. DOI: 10.1039/D0CP00502A
   
   for sTDA-xTB:
   * S. Grimme and C. Bannwarth, J. Chem. Phys., 2016, 145, 054103.
     DOI: 10.1063/1.4959605
   
   in the mass-spec context:
   * V. Asgeirsson, C. Bauer and S. Grimme, Chem. Sci., 2017, 8, 4879.
     DOI: 10.1039/c7sc00601b
   * J. Koopman and S. Grimme, ACS Omega 2019, 4, 12, 15120-15133.
     DOI: 10.1021/acsomega.9b02011
   
   for metadynamics refer to:
   * S. Grimme, J. Chem. Theory Comput., 2019, 155, 2847-2862
     DOI: 10.1021/acs.jctc.9b00143
   
   for SPH calculations refer to:
   * S. Spicher and S. Grimme, J. Chem. Theory Comput., 2021, 17, 1701-1714
     DOI: 10.1021/acs.jctc.0c01306
   
   with help from (in alphabetical order)
   P. Atkinson, C. Bannwarth, F. Bohle, G. Brandenburg, E. Caldeweyher
   M. Checinski, S. Dohm, S. Ehlert, S. Ehrlich, I. Gerasimov, C. Hölzer
   A. Katbashev, J. Koopman, C. Lavigne, S. Lehtola, F. März, M. Müller,
   F. Musil, H. Neugebauer, J. Pisarek, C. Plett, P. Pracht, F. Pultar,
   J. Seibert, P. Shushkov, S. Spicher, M. Stahn, M. Steiner, T. Strunk,
   J. Stückrath, T. Rose, and J. Unsleber
   
 * started run on 2024/06/05 at 19:59:07.743     

           -------------------------------------------------
          |                Calculation Setup                |
           -------------------------------------------------

          program call               : xtb xtbopt.xyz --opt crude --input .xc2 --gfn2
          hostname                   : n-62-31-11
          coordinate file            : xtbopt.xyz
          omp threads                :                     1

   ID    Z sym.   atoms
    1    6 C      1, 3, 5-7, 10, 11, 14
    2    7 N      2, 4, 9, 13
    3    8 O      8, 12
    4    1 H      15-25
########################################################################
[WARNING] Please study the warnings concerning your input carefully
-1- readin_getIntValue: could not parse ''
########################################################################

           -------------------------------------------------
          |                 G F N 2 - x T B                 |
           -------------------------------------------------

        Reference                      10.1021/acs.jctc.8b01176
      * Hamiltonian:
        H0-scaling (s, p, d)           1.850000    2.230000    2.230000
        zeta-weighting                 0.500000
      * Dispersion:
        s8                             2.700000
        a1                             0.520000
        a2                             5.000000
        s9                             5.000000
      * Repulsion:
        kExp                           1.500000    1.000000
        rExp                           1.000000
      * Coulomb:
        alpha                          2.000000
        third order                    shell-resolved
        anisotropic                    true
        a3                             3.000000
        a5                             4.000000
        cn-shift                       1.200000
        cn-exp                         4.000000
        max-rad                        5.000000

q/qsh data taken from xtbrestart
CAMM data taken from xtbrestart

          ...................................................
          :                      SETUP                      :
          :.................................................:
          :  # basis functions                  67          :
          :  # atomic orbitals                  67          :
          :  # shells                           39          :
          :  # electrons                        74          :
          :  max. iterations                   250          :
          :  Hamiltonian                  GFN2-xTB          :
          :  restarted?                       true          :
          :  GBSA solvation                  false          :
          :  PC potential                    false          :
          :  electronic temp.         5000.0000000     K    :
          :  accuracy                    1.0000000          :
          :  -> integral cutoff          0.2500000E+02      :
          :  -> integral neglect         0.1000000E-07      :
          :  -> SCF convergence          0.1000000E-05 Eh   :
          :  -> wf. convergence          0.1000000E-03 e    :
          :  Broyden damping             0.4000000          :
          ...................................................

 iter      E             dE          RMSdq      gap      omega  full diag
   1    -42.6628903 -0.426629E+02  0.137E-05    1.69       0.0  T
   2    -42.6628903  0.129319E-11  0.143E-05    1.69    1396.0  T
   3    -42.6628903 -0.633804E-11  0.367E-06    1.69    5452.9  T

   *** convergence criteria satisfied after 3 iterations ***

         #    Occupation            Energy/Eh            Energy/eV
      -------------------------------------------------------------
         1        2.0000           -0.9476122             -25.7858
       ...           ...                  ...                  ...
        31        1.9946           -0.6213317             -16.9073
        32        1.9938           -0.6191340             -16.8475
        33        1.9825           -0.6025219             -16.3955
        34        1.9797           -0.6001104             -16.3298
        35        1.9619           -0.5900250             -16.0554
        36        1.9081           -0.5756265             -15.6636
        37        1.8308           -0.5653069             -15.3828 (HOMO)
        38        0.3556           -0.5033554             -13.6970 (LUMO)
        39        0.0032           -0.4257191             -11.5844
        40        0.0005           -0.3963672             -10.7857
        41        0.0000           -0.3151954              -8.5769
        42                         -0.2296669              -6.2496
       ...                                ...                  ...
        67                          0.5244464              14.2709
      -------------------------------------------------------------
                  HL-Gap            0.0619514 Eh            1.6858 eV
             Fermi-level           -0.5276013 Eh          -14.3568 eV

 SCC (total)                   0 d,  0 h,  0 min,  0.025 sec
 SCC setup                      ...        0 min,  0.000 sec (  1.022%)
 Dispersion                     ...        0 min,  0.000 sec (  1.131%)
 classical contributions        ...        0 min,  0.000 sec (  0.316%)
 integral evaluation            ...        0 min,  0.005 sec ( 19.810%)
 iterations                     ...        0 min,  0.005 sec ( 22.226%)
 molecular gradient             ...        0 min,  0.013 sec ( 54.825%)
 printout                       ...        0 min,  0.000 sec (  0.626%)

         :::::::::::::::::::::::::::::::::::::::::::::::::::::
         ::                     SUMMARY                     ::
         :::::::::::::::::::::::::::::::::::::::::::::::::::::
         :: total energy             -42.171512683926 Eh    ::
         :: gradient norm              0.032546366482 Eh/a0 ::
         :: HOMO-LUMO gap              1.685784032043 eV    ::
         ::.................................................::
         :: SCC energy               -42.662890302108 Eh    ::
         :: -> isotropic ES            0.127298746947 Eh    ::
         :: -> anisotropic ES         -0.001185246509 Eh    ::
         :: -> anisotropic XC          0.020284355227 Eh    ::
         :: -> dispersion             -0.021472250885 Eh    ::
         :: repulsion energy           0.491283351758 Eh    ::
         :: add. restraining           0.000000000000 Eh    ::
         :: total charge               1.000000000191 e     ::
         :::::::::::::::::::::::::::::::::::::::::::::::::::::

      ----------------------------------------------------------- 
     |                   =====================                   |
     |                        A N C O P T                        |
     |                   =====================                   |
     |               Approximate Normal Coordinate               |
     |                Rational Function Optimizer                |
      ----------------------------------------------------------- 

          ...................................................
          :                      SETUP                      :
          :.................................................:
          :   optimization level             crude          :
          :   max. optcycles                   200          :
          :   ANC micro-cycles                  20          :
          :   degrees of freedom                69          :
          :.................................................:
          :   RF solver                   davidson          :
          :   write xtbopt.log                true          :
          :   linear?                        false          :
          :   energy convergence         0.5000000E-03 Eh   :
          :   grad. convergence          0.1000000E-01 Eh/α :
          :   maxmium RF displ.          1.0000000          :
          :   Hlow (freq-cutoff)         0.1000000E-01      :
          :   Hmax (freq-cutoff)         5.0000000          :
          :   S6 in model hess.         20.0000000          :
          ...................................................

generating ANC from model Hessian ...
Using Lindh-Hessian (1995)
 Shifting diagonal of input Hessian by    7.9485579900267830E-003
 Lowest  eigenvalues of input Hessian
    0.000000    0.000000    0.000000    0.000000    0.000000    0.000000
    0.010000    0.012449    0.012516    0.014708    0.016016    0.018599
    0.019938    0.020735    0.026397    0.029958    0.033302    0.036666
 Highest eigenvalues
    1.886379    1.955843    2.049940    2.185846    2.304521    2.538651


........................................................................
.............................. CYCLE    1 ..............................
........................................................................

 iter      E             dE          RMSdq      gap      omega  full diag
   1    -42.6628903 -0.426629E+02  0.254E-06    1.69       0.0  T
   2    -42.6628903 -0.106581E-12  0.201E-06    1.69    9946.9  T
   3    -42.6628903 -0.135003E-12  0.115E-06    1.69   17390.5  T
     SCC iter.                  ...        0 min,  0.005 sec
     gradient                   ...        0 min,  0.013 sec
 * total energy  :   -42.1715127 Eh     change       -0.2557954E-12 Eh
   gradient norm :     0.0325464 Eh/α   predicted     0.0000000E+00 (-100.00%)
   displ. norm   :     0.4100111 α      lambda       -0.6712834E-02
   maximum displ.:     0.2254321 α      in ANC's #10, #4, #3, ...

........................................................................
.............................. CYCLE    2 ..............................
........................................................................

 iter      E             dE          RMSdq      gap      omega  full diag
   1    -42.6782315 -0.426782E+02  0.169E-01    1.64       0.0  T
   2    -42.6782468 -0.153754E-04  0.107E-01    1.68       1.0  T
   3    -42.6780979  0.148891E-03  0.793E-02    1.61       1.0  T
   4    -42.6782721 -0.174124E-03  0.162E-02    1.67       1.2  T
   5    -42.6782804 -0.833062E-05  0.523E-03    1.66       3.8  T
   6    -42.6782806 -0.245806E-06  0.220E-03    1.66       9.1  T
   7    -42.6782807 -0.150671E-07  0.645E-04    1.66      31.0  T
   8    -42.6782807 -0.762418E-08  0.270E-04    1.66      74.0  T
     SCC iter.                  ...        0 min,  0.011 sec
     gradient                   ...        0 min,  0.013 sec
 * total energy  :   -42.1766697 Eh     change       -0.5157017E-02 Eh
   gradient norm :     0.0156312 Eh/α   predicted    -0.3920751E-02 ( -23.97%)
   displ. norm   :     0.5283586 α      lambda       -0.4507415E-02
   maximum displ.:     0.2602629 α      in ANC's #4, #3, #10, ...

........................................................................
.............................. CYCLE    3 ..............................
........................................................................

 iter      E             dE          RMSdq      gap      omega  full diag
   1    -42.6879910 -0.426880E+02  0.181E-01    1.60       0.0  T
   2    -42.6879981 -0.706635E-05  0.110E-01    1.64       1.0  T
   3    -42.6878186  0.179551E-03  0.884E-02    1.57       1.0  T
   4    -42.6880316 -0.213035E-03  0.164E-02    1.64       1.2  T
   5    -42.6880390 -0.741663E-05  0.599E-03    1.63       3.3  T
   6    -42.6880393 -0.308485E-06  0.217E-03    1.63       9.2  T
   7    -42.6880394 -0.328317E-07  0.567E-04    1.63      35.3  T
   8    -42.6880394 -0.290953E-08  0.236E-04    1.63      84.6  T
     SCC iter.                  ...        0 min,  0.011 sec
     gradient                   ...        0 min,  0.013 sec
 * total energy  :   -42.1798447 Eh     change       -0.3174966E-02 Eh
   gradient norm :     0.0101854 Eh/α   predicted    -0.2883236E-02 (  -9.19%)
   displ. norm   :     0.4638766 α      lambda       -0.1923184E-02
   maximum displ.:     0.2630330 α      in ANC's #3, #4, #10, ...

........................................................................
.............................. CYCLE    4 ..............................
........................................................................

 iter      E             dE          RMSdq      gap      omega  full diag
   1    -42.6890740 -0.426891E+02  0.151E-01    1.60       0.0  T
   2    -42.6890900 -0.160311E-04  0.877E-02    1.62       1.0  T
   3    -42.6889980  0.920636E-04  0.629E-02    1.57       1.0  T
   4    -42.6891037 -0.105787E-03  0.158E-02    1.62       1.3  T
   5    -42.6891103 -0.652576E-05  0.547E-03    1.61       3.7  T
   6    -42.6891106 -0.324503E-06  0.187E-03    1.61      10.7  T
   7    -42.6891106 -0.257146E-07  0.645E-04    1.61      31.0  T
   8    -42.6891106 -0.554510E-08  0.252E-04    1.61      79.4  T
     SCC iter.                  ...        0 min,  0.011 sec
     gradient                   ...        0 min,  0.014 sec
 * total energy  :   -42.1812681 Eh     change       -0.1423385E-02 Eh
   gradient norm :     0.0127699 Eh/α   predicted    -0.1168511E-02 ( -17.91%)
   displ. norm   :     0.4230839 α      lambda       -0.1183338E-02
   maximum displ.:     0.2484895 α      in ANC's #3, #4, #1, ...

........................................................................
.............................. CYCLE    5 ..............................
........................................................................

 iter      E             dE          RMSdq      gap      omega  full diag
   1    -42.6889475 -0.426889E+02  0.149E-01    1.61       0.0  T
   2    -42.6889673 -0.198695E-04  0.845E-02    1.61       1.0  T
   3    -42.6889488  0.184777E-04  0.321E-02    1.60       1.0  T
   4    -42.6889730 -0.241566E-04  0.975E-03    1.61       2.1  T
   5    -42.6889744 -0.136686E-05  0.587E-03    1.61       3.4  T
   6    -42.6889750 -0.603204E-06  0.210E-03    1.61       9.5  T
   7    -42.6889751 -0.870285E-07  0.527E-04    1.61      37.9  T
   8    -42.6889751 -0.419173E-08  0.229E-04    1.61      87.5  T
     SCC iter.                  ...        0 min,  0.011 sec
     gradient                   ...        0 min,  0.013 sec
 * total energy  :   -42.1821008 Eh     change       -0.8327846E-03 Eh
   gradient norm :     0.0106002 Eh/α   predicted    -0.6975818E-03 ( -16.24%)
   displ. norm   :     0.2807391 α      lambda       -0.5500673E-03
   maximum displ.:     0.1670551 α      in ANC's #3, #4, #2, ...

........................................................................
.............................. CYCLE    6 ..............................
........................................................................

 iter      E             dE          RMSdq      gap      omega  full diag
   1    -42.6904927 -0.426905E+02  0.112E-01    1.63       0.0  T
   2    -42.6904990 -0.627317E-05  0.637E-02    1.62       1.0  T
   3    -42.6904690  0.299192E-04  0.335E-02    1.64       1.0  T
   4    -42.6905025 -0.334270E-04  0.768E-03    1.62       2.6  T
   5    -42.6905035 -0.997752E-06  0.339E-03    1.62       5.9  T
   6    -42.6905036 -0.122728E-06  0.107E-03    1.62      18.6  T
   7    -42.6905036 -0.208289E-07  0.270E-04    1.62      74.1  T
   8    -42.6905036 -0.468120E-09  0.141E-04    1.62     141.5  T
     SCC iter.                  ...        0 min,  0.011 sec
     gradient                   ...        0 min,  0.013 sec
 * total energy  :   -42.1824729 Eh     change       -0.3720913E-03 Eh
   gradient norm :     0.0064835 Eh/α   predicted    -0.2967105E-03 ( -20.26%)
   displ. norm   :     0.1681471 α      lambda       -0.2064530E-03
   maximum displ.:     0.1036744 α      in ANC's #3, #4, #2, ...

   *** GEOMETRY OPTIMIZATION CONVERGED AFTER 6 ITERATIONS ***

------------------------------------------------------------------------
 total energy gain   :        -0.0109602 Eh       -6.8777 kcal/mol
 total RMSD          :         0.4064962 a0        0.2151 Å
 total power (kW/mol):        -4.7960196 (step) -159.9165 (real)
------------------------------------------------------------------------

 ANCopt (total)                0 d,  0 h,  0 min,  0.180 sec
 optimizer setup                ...        0 min,  0.001 sec (  0.316%)
 model hessian                  ...        0 min,  0.006 sec (  3.074%)
 ANC generation                 ...        0 min,  0.001 sec (  0.434%)
 coordinate transformation      ...        0 min,  0.000 sec (  0.026%)
 single point calculation       ...        0 min,  0.170 sec ( 94.654%)
 optimization log               ...        0 min,  0.002 sec (  0.965%)
 hessian update                 ...        0 min,  0.000 sec (  0.040%)
 rational function              ...        0 min,  0.000 sec (  0.255%)

================
 final structure:
================
25
 xtb: 6.6.1 (8d0f1dd)
C            3.43054936363550        1.48174598152134        0.54273213018852
N            2.20630729699658       -0.50978757754954       -0.23931161300775
C            2.49713725289555        0.84407828195497       -0.48474309260335
N            0.49578856607012       -3.00856851161479        0.18511349666946
C            0.09412248791763       -1.81035443774783        0.08654927156473
C            0.92327954070094       -0.63084811519775       -0.12454421964774
C            0.29775484182684        0.65362781692082       -0.28945977427493
O            1.21084412781153        1.55462720534352       -0.52051987295339
N           -1.00433471547771        0.82173530883242       -0.20915078071180
C           -1.64644063135228        2.11293325295365       -0.36603359769295
C           -1.86026222535203       -0.30856090246207        0.02244069679377
O           -3.04067803962195       -0.12993472036957        0.09239792224675
N           -1.25838028941249       -1.53940887509425        0.14973715563013
C           -2.12893250153713       -2.69122428755158        0.32079486823758
H            4.35732757392872        0.91567545083707        0.56749587768527
H            3.63281724178859        2.50962800554174        0.24678938645785
H            2.97592865309562        1.46705339302806        1.53339165939478
H            2.94813670459372        0.94493956722805       -1.48638208943976
H           -0.88261695040936        2.88305009463935       -0.43514464521284
H           -2.26243528091527        2.11158045783239       -1.26632779377631
H           -2.30037149959580        2.29687395171322        0.48690921738469
H           -1.78615971380559       -3.27592197964860        1.17384051910410
H           -2.07585658964125       -3.32307063736994       -0.56680778692042
H           -3.14980780875620       -2.34953971713210        0.47352807455116
H            1.48671410873247       -3.20209046500907        0.13787660823652

 Bond Distances (Angstroems)
 ---------------------------
C1-C3=1.5276         C1-H15=1.0863        C1-H16=1.0886        C1-H17=1.0901        N2-C3=1.4063         N2-C6=1.2938         
C3-C1=1.5276         C3-N2=1.4063         C3-O8=1.4699         C3-H18=1.1031        N4-C5=1.2676         N4-H25=1.0108        
C5-N4=1.2676         C5-C6=1.4572         C5-N13=1.3808        C6-N2=1.2938         C6-C5=1.4572         C6-C7=1.4382         
C7-C6=1.4382         C7-O8=1.3034         C7-N9=1.3154         O8-C3=1.4699         O8-C7=1.3034         N9-C7=1.3154         
N9-C10=1.4506        N9-C11=1.4366        C10-N9=1.4506        C10-H19=1.0869       C10-H20=1.0909       C10-H21=1.0904       
C11-N9=1.4366        C11-O12=1.1959       C11-N13=1.3760       O12-C11=1.1959       N13-C5=1.3808        N13-C11=1.3760       
N13-C14=1.4539       C14-N13=1.4539       C14-H22=1.0895       C14-H23=1.0908       C14-H24=1.0873       H15-C1=1.0863        
H16-C1=1.0886        H17-C1=1.0901        H18-C3=1.1031        H19-C10=1.0869       H20-C10=1.0909       H21-C10=1.0904       
H22-C14=1.0895       H23-C14=1.0908       H24-C14=1.0873       H25-N4=1.0108        
 C  H  Rav=1.0904 sigma=0.0045  Rmin=1.0863  Rmax=1.1031    10
 C  C  Rav=1.4743 sigma=0.0385  Rmin=1.4382  Rmax=1.5276     3
 N  H  Rav=1.0108 sigma=0.0000  Rmin=1.0108  Rmax=1.0108     1
 N  C  Rav=1.3757 sigma=0.0653  Rmin=1.2676  Rmax=1.4539     9
 O  C  Rav=1.3231 sigma=0.1127  Rmin=1.1959  Rmax=1.4699     3

 selected bond angles (degree)
 --------------------
H15-C1-C3=108.61               H16-C1-C3=108.96               H16-C1-H15=109.86              H17-C1-C3=110.54               
H17-C1-H15=109.15              H17-C1-H16=109.71              C6-N2-C3=108.10                N2-C3-C1=114.26                
O8-C3-C1=110.44                O8-C3-N2=106.78                H18-C3-C1=108.83               H18-C3-N2=109.33               
H18-C3-O8=106.95               H25-N4-C5=119.21               C6-C5-N4=126.59                N13-C5-N4=119.49               
N13-C5-C6=113.90               C5-C6-N2=130.76                C7-C6-N2=109.73                C7-C6-C5=119.48                
O8-C7-C6=109.45                N9-C7-C6=122.53                N9-C7-O8=128.02                C7-O8-C3=105.94                
C10-N9-C7=123.05               C11-N9-C7=119.94               C11-N9-C10=117.00              H19-C10-N9=109.06              
H20-C10-N9=109.76              H20-C10-H19=110.20             H21-C10-N9=109.33              H21-C10-H19=110.59             
H21-C10-H20=107.89             

 selected dihedral angles (degree)
 ---------------------------------
N2-C3-C1-H15= 57.81           N2-C3-C1-H16=177.46           N2-C3-C1-H17=298.09           O8-C3-C1-H15=178.20           
O8-C3-C1-H16=297.84           O8-C3-C1-H17= 58.47           H18-C3-C1-H15=295.31          H18-C3-C1-H16= 54.96          
H18-C3-C1-H17=175.59          C1-C3-N2-C6=121.88            O8-C3-N2-C6=359.47            H18-C3-N2-C6=244.11           
C6-C5-N4-H25=  1.48           N13-C5-N4-H25=179.97          C5-C6-N2-C3=177.69            C7-C6-N2-C3=359.94            
N2-C6-C5-N4=358.93            N2-C6-C5-N13=180.37           C7-C6-C5-N4=176.49            C7-C6-C5-N13=357.93           
O8-C7-C6-N2=  0.71            O8-C7-C6-C5=182.67            N9-C7-C6-N2=180.59            N9-C7-C6-C5=  2.56            
C7-O8-C3-C1=236.18            C7-O8-C3-N2=  0.95            C7-O8-C3-H18=117.91           C3-O8-C7-C6=359.01            
C3-O8-C7-N9=179.13            C10-N9-C7-C6=179.64           C10-N9-C7-O8=359.50           C11-N9-C7-C6=358.60           
C11-N9-C7-O8=178.46           H19-C10-N9-C7=353.44          H19-C10-N9-C11=174.45         H20-C10-N9-C7=114.25          
H20-C10-N9-C11=295.27         H21-C10-N9-C7=232.41          H21-C10-N9-C11= 53.42         
           -------------------------------------------------
          |                Final Singlepoint                |
           -------------------------------------------------

          ...................................................
          :                      SETUP                      :
          :.................................................:
          :  # basis functions                  67          :
          :  # atomic orbitals                  67          :
          :  # shells                           39          :
          :  # electrons                        74          :
          :  max. iterations                   250          :
          :  Hamiltonian                  GFN2-xTB          :
          :  restarted?                      false          :
          :  GBSA solvation                  false          :
          :  PC potential                    false          :
          :  electronic temp.         5000.0000000     K    :
          :  accuracy                    1.0000000          :
          :  -> integral cutoff          0.2500000E+02      :
          :  -> integral neglect         0.1000000E-07      :
          :  -> SCF convergence          0.1000000E-05 Eh   :
          :  -> wf. convergence          0.1000000E-03 e    :
          :  Broyden damping             0.4000000          :
          ...................................................

 iter      E             dE          RMSdq      gap      omega  full diag
   1    -42.6905036 -0.426905E+02  0.263E-05    1.62       0.0  T
   2    -42.6905036 -0.524381E-11  0.166E-05    1.62    1207.6  T
   3    -42.6905036 -0.105160E-11  0.104E-05    1.62    1924.6  T

   *** convergence criteria satisfied after 3 iterations ***

         #    Occupation            Energy/Eh            Energy/eV
      -------------------------------------------------------------
         1        2.0000           -0.9473695             -25.7792
       ...           ...                  ...                  ...
        31        1.9949           -0.6228573             -16.9488
        32        1.9937           -0.6195364             -16.8584
        33        1.9849           -0.6055413             -16.4776
        34        1.9824           -0.6031461             -16.4124
        35        1.9698           -0.5944733             -16.1764
        36        1.9122           -0.5771125             -15.7040
        37        1.8090           -0.5639247             -15.3452 (HOMO)
        38        0.3607           -0.5043526             -13.7241 (LUMO)
        39        0.0029           -0.4250598             -11.5665
        40        0.0005           -0.3968096             -10.7977
        41        0.0000           -0.3067908              -8.3482
        42                         -0.2345696              -6.3830
       ...                                ...                  ...
        67                          0.5326454              14.4940
      -------------------------------------------------------------
                  HL-Gap            0.0595722 Eh            1.6210 eV
             Fermi-level           -0.5283272 Eh          -14.3765 eV

 SCC (total)                   0 d,  0 h,  0 min,  0.023 sec
 SCC setup                      ...        0 min,  0.000 sec (  0.851%)
 Dispersion                     ...        0 min,  0.000 sec (  0.740%)
 classical contributions        ...        0 min,  0.000 sec (  0.329%)
 integral evaluation            ...        0 min,  0.005 sec ( 19.769%)
 iterations                     ...        0 min,  0.005 sec ( 20.089%)
 molecular gradient             ...        0 min,  0.013 sec ( 57.675%)
 printout                       ...        0 min,  0.000 sec (  0.497%)

         :::::::::::::::::::::::::::::::::::::::::::::::::::::
         ::                     SUMMARY                     ::
         :::::::::::::::::::::::::::::::::::::::::::::::::::::
         :: total energy             -42.182472928349 Eh    ::
         :: gradient norm              0.006483937321 Eh/a0 ::
         :: HOMO-LUMO gap              1.621040752578 eV    ::
         ::.................................................::
         :: SCC energy               -42.690503600147 Eh    ::
         :: -> isotropic ES            0.127842799469 Eh    ::
         :: -> anisotropic ES         -0.001483072434 Eh    ::
         :: -> anisotropic XC          0.019810937781 Eh    ::
         :: -> dispersion             -0.021697724416 Eh    ::
         :: repulsion energy           0.507913497872 Eh    ::
         :: add. restraining           0.000000000000 Eh    ::
         :: total charge               1.000000000034 e     ::
         :::::::::::::::::::::::::::::::::::::::::::::::::::::

           -------------------------------------------------
          |                Property Printout                |
           -------------------------------------------------

    * Orbital Energies and Occupations

         #    Occupation            Energy/Eh            Energy/eV
      -------------------------------------------------------------
         1        2.0000           -0.9473695             -25.7792
       ...           ...                  ...                  ...
        25        1.9998           -0.6727880             -18.3075
        26        1.9997           -0.6681122             -18.1803
        27        1.9991           -0.6502835             -17.6951
        28        1.9986           -0.6431764             -17.5017
        29        1.9969           -0.6305518             -17.1582
        30        1.9954           -0.6246225             -16.9968
        31        1.9949           -0.6228573             -16.9488
        32        1.9937           -0.6195364             -16.8584
        33        1.9849           -0.6055413             -16.4776
        34        1.9824           -0.6031461             -16.4124
        35        1.9698           -0.5944733             -16.1764
        36        1.9122           -0.5771125             -15.7040
        37        1.8090           -0.5639247             -15.3452 (HOMO)
        38        0.3607           -0.5043526             -13.7241 (LUMO)
        39        0.0029           -0.4250598             -11.5665
        40        0.0005           -0.3968096             -10.7977
        41        0.0000           -0.3067908              -8.3482
        42                         -0.2345696              -6.3830
        43                         -0.1931522              -5.2559
        44                         -0.1566670              -4.2631
        45                         -0.1114944              -3.0339
        46                         -0.0993857              -2.7044
        47                         -0.0610574              -1.6615
        48                         -0.0573068              -1.5594
       ...                                ...                  ...
        67                          0.5326454              14.4940
      -------------------------------------------------------------
                  HL-Gap            0.0595722 Eh            1.6210 eV
             Fermi-level           -0.5283272 Eh          -14.3765 eV

     #   Z          covCN         q      C6AA      α(0)
     1   6 C        3.751    -0.126    22.977     6.836
     2   7 N        1.876    -0.191    25.961     7.553
     3   6 C        3.929     0.178    17.703     5.979
     4   7 N        1.787    -0.236    27.010     7.698
     5   6 C        2.827     0.162    24.494     8.110
     6   6 C        3.052     0.058    26.654     8.467
     7   6 C        2.956     0.227    23.245     7.908
     8   8 O        1.707    -0.194    17.233     5.605
     9   7 N        2.735    -0.036    21.941     6.957
    10   6 C        3.699    -0.067    21.957     6.702
    11   6 C        2.721     0.317    21.606     7.609
    12   8 O        0.859    -0.321    20.156     6.019
    13   7 N        2.752    -0.038    21.983     6.964
    14   6 C        3.711    -0.077    22.113     6.720
    15   1 H        0.925     0.111     1.691     2.034
    16   1 H        0.925     0.102     1.770     2.081
    17   1 H        0.925     0.088     1.895     2.153
    18   1 H        0.923     0.127     1.558     1.952
    19   1 H        0.925     0.106     1.733     2.059
    20   1 H        0.924     0.117     1.636     2.000
    21   1 H        0.924     0.121     1.603     1.980
    22   1 H        0.925     0.118     1.628     1.995
    23   1 H        0.924     0.114     1.665     2.018
    24   1 H        0.925     0.123     1.590     1.972
    25   1 H        0.860     0.217     1.025     1.586

 Mol. C6AA /au·bohr⁶  :       6411.111354
 Mol. C8AA /au·bohr⁸  :     146819.840642
 Mol. α(0) /au        :        120.955325


Wiberg/Mayer (AO) data.
largest (>0.10) Wiberg bond orders for each atom

 ---------------------------------------------------------------------------
     #   Z sym  total        # sym  WBO       # sym  WBO       # sym  WBO
 ---------------------------------------------------------------------------
     1   6 C    3.920 --    17 H    0.975    16 H    0.971    15 H    0.966
                             3 C    0.952
     2   7 N    2.882 --     6 C    1.592     3 C    1.090
     3   6 C    3.884 --     2 N    1.090     1 C    0.952    18 H    0.895
                             8 O    0.868
     4   7 N    2.867 --     5 C    1.709    25 H    0.919
     5   6 C    3.947 --     4 N    1.709    13 N    1.125     6 C    1.030
     6   6 C    3.885 --     2 N    1.592     7 C    1.099     5 C    1.030
     7   6 C    3.844 --     9 N    1.344     8 O    1.244     6 C    1.099
     8   8 O    2.353 --     7 C    1.244     3 C    0.868
     9   7 N    3.585 --     7 C    1.344    11 C    0.978    10 C    0.967
    10   6 C    3.905 --    19 H    0.973     9 N    0.967    21 H    0.956
                            20 H    0.954
    11   6 C    3.943 --    12 O    1.731    13 N    1.147     9 N    0.978
    12   8 O    2.057 --    11 C    1.731    13 N    0.138
    13   7 N    3.545 --    11 C    1.147     5 C    1.125    14 C    0.969
                            12 O    0.138
    14   6 C    3.883 --    13 N    0.969    24 H    0.964    22 H    0.953
                            23 H    0.949
    15   1 H    0.984 --     1 C    0.966
    16   1 H    0.985 --     1 C    0.971
    17   1 H    0.988 --     1 C    0.975
    18   1 H    0.955 --     3 C    0.895
    19   1 H    0.987 --    10 C    0.973
    20   1 H    0.979 --    10 C    0.954
    21   1 H    0.978 --    10 C    0.956
    22   1 H    0.972 --    14 C    0.953
    23   1 H    0.970 --    14 C    0.949
    24   1 H    0.980 --    14 C    0.964
    25   1 H    0.943 --     4 N    0.919
 ---------------------------------------------------------------------------

Topologies differ in total number of bonds
Writing topology from bond orders to xtbtopo.mol

molecular dipole:
                 x           y           z       tot (Debye)
 q only:        0.868       0.033      -0.133
   full:        1.045       0.502      -0.315       3.054
molecular quadrupole (traceless):
                xx          xy          yy          xz          yz          zz
 q only:        7.101       9.195       8.419       0.069      -2.575     -15.520
  q+dip:        3.371       8.053       5.642      -0.591      -2.132      -9.013
   full:        2.509       8.438       5.063      -0.164      -1.702      -7.573

           -------------------------------------------------
          |                Geometry Summary                 |
           -------------------------------------------------

      molecular mass/u    :      195.1988581
   center of mass at/Å    :       -0.0043605      -0.2035852      -0.0567590
  moments of inertia/u·Å² :        0.4426732E+03   0.8160818E+03   0.1218102E+04
rotational constants/cm⁻¹ :        0.3808144E-01   0.2065679E-01   0.1383926E-01

 * 22 selected distances

     #   Z          #   Z                                           value/Å
     1   6 C        3   6 C                                       1.5276073 (max)
     2   7 N        3   6 C                                       1.4063328
     4   7 N        5   6 C                                       1.2675835
     2   7 N        6   6 C                                       1.2938268
     6   6 C        7   6 C                                       1.4381784
     7   6 C        8   8 O                                       1.3034266
     7   6 C        9   7 N                                       1.3153506
     9   7 N       10   6 C                                       1.4505533
    11   6 C       12   8 O                                       1.1959026
     5   6 C       13   7 N                                       1.3808216
    11   6 C       13   7 N                                       1.3760281
    13   7 N       14   6 C                                       1.4538917
     1   6 C       15   1 H                                       1.0862629 (min)
     1   6 C       16   1 H                                       1.0885936
     1   6 C       17   1 H                                       1.0900928
     3   6 C       18   1 H                                       1.1031112
    10   6 C       19   1 H                                       1.0868685
    10   6 C       20   1 H                                       1.0908625
    10   6 C       21   1 H                                       1.0903997
    14   6 C       22   1 H                                       1.0895190
    14   6 C       23   1 H                                       1.0908188
    14   6 C       24   1 H                                       1.0873189

 * 4 distinct bonds (by element types)

   Z      Z             #   av. dist./Å        max./Å        min./Å
   1 H    6 C          10     1.0903848     1.1031112     1.0862629
   6 C    6 C           2     1.4828928     1.5276073     1.4381784
   6 C    7 N           8     1.3680485     1.4538917     1.2675835
   6 C    8 O           2     1.2496646     1.3034266     1.1959026


optimized geometry written to: xtbopt.xyz


           -------------------------------------------------
          | TOTAL ENERGY              -42.182472928349 Eh   |
          | GRADIENT NORM               0.006483937321 Eh/α |
          | HOMO-LUMO GAP               1.621040752578 eV   |
           -------------------------------------------------

------------------------------------------------------------------------
 * finished run on 2024/06/05 at 19:59:08.015     
------------------------------------------------------------------------
 total:
 * wall-time:     0 d,  0 h,  0 min,  0.272 sec
 *  cpu-time:     0 d,  0 h,  0 min,  0.240 sec
 * ratio c/w:     0.881 speedup
 SCF:
 * wall-time:     0 d,  0 h,  0 min,  0.025 sec
 *  cpu-time:     0 d,  0 h,  0 min,  0.025 sec
 * ratio c/w:     1.000 speedup
 ANC optimizer:
 * wall-time:     0 d,  0 h,  0 min,  0.209 sec
 *  cpu-time:     0 d,  0 h,  0 min,  0.203 sec
 * ratio c/w:     0.970 speedup

