      -----------------------------------------------------------      
     |                   =====================                   |     
     |                           x T B                           |     
     |                   =====================                   |     
     |                         S. Grimme                         |     
     |          Mulliken Center for Theoretical Chemistry        |     
     |                    University of Bonn                     |     
      -----------------------------------------------------------      

   * xtb version 6.6.1 (8d0f1dd) compiled by 'conda@1efc2f54142f' on 2023-08-01

   xtb is free software: you can redistribute it and/or modify it under
   the terms of the GNU Lesser General Public License as published by
   the Free Software Foundation, either version 3 of the License, or
   (at your option) any later version.
   
   xtb is distributed in the hope that it will be useful,
   but WITHOUT ANY WARRANTY; without even the implied warranty of
   MERCHANTABILITY or FITNESS FOR A PARTICULAR PURPOSE.  See the
   GNU Lesser General Public License for more details.
   
   Cite this work as:
   * C. Bannwarth, E. Caldeweyher, S. Ehlert, A. Hansen, P. Pracht,
     J. Seibert, S. Spicher, S. Grimme, WIREs Comput. Mol. Sci., 2020, 11,
     e01493. DOI: 10.1002/wcms.1493
   
   for GFN2-xTB:
   * C. Bannwarth, S. Ehlert and S. Grimme., J. Chem. Theory Comput., 2019,
     15, 1652-1671. DOI: 10.1021/acs.jctc.8b01176
   for GFN1-xTB:
   * S. Grimme, C. Bannwarth, P. Shushkov, J. Chem. Theory Comput., 2017,
     13, 1989-2009. DOI: 10.1021/acs.jctc.7b00118
   for GFN0-xTB:
   * P. Pracht, E. Caldeweyher, S. Ehlert, S. Grimme, ChemRxiv, 2019, preprint.
     DOI: 10.26434/chemrxiv.8326202.v1
   for GFN-FF:
   * S. Spicher and S. Grimme, Angew. Chem. Int. Ed., 2020, 59, 15665-15673.
     DOI: 10.1002/anie.202004239
   
   for ALPB and GBSA implicit solvation:
   * S. Ehlert, M. Stahn, S. Spicher, S. Grimme, J. Chem. Theory Comput.,
     2021, 17, 4250-4261. DOI: 10.1021/acs.jctc.1c00471
   
   for DFT-D4:
   * E. Caldeweyher, C. Bannwarth and S. Grimme, J. Chem. Phys., 2017,
     147, 034112. DOI: 10.1063/1.4993215
   * E. Caldeweyher, S. Ehlert, A. Hansen, H. Neugebauer, S. Spicher,
     C. Bannwarth and S. Grimme, J. Chem. Phys., 2019, 150, 154122.
     DOI: 10.1063/1.5090222
   * E. Caldeweyher, J.-M. Mewes, S. Ehlert and S. Grimme, Phys. Chem. Chem. Phys.
     2020, 22, 8499-8512. DOI: 10.1039/D0CP00502A
   
   for sTDA-xTB:
   * S. Grimme and C. Bannwarth, J. Chem. Phys., 2016, 145, 054103.
     DOI: 10.1063/1.4959605
   
   in the mass-spec context:
   * V. Asgeirsson, C. Bauer and S. Grimme, Chem. Sci., 2017, 8, 4879.
     DOI: 10.1039/c7sc00601b
   * J. Koopman and S. Grimme, ACS Omega 2019, 4, 12, 15120-15133.
     DOI: 10.1021/acsomega.9b02011
   
   for metadynamics refer to:
   * S. Grimme, J. Chem. Theory Comput., 2019, 155, 2847-2862
     DOI: 10.1021/acs.jctc.9b00143
   
   for SPH calculations refer to:
   * S. Spicher and S. Grimme, J. Chem. Theory Comput., 2021, 17, 1701-1714
     DOI: 10.1021/acs.jctc.0c01306
   
   with help from (in alphabetical order)
   P. Atkinson, C. Bannwarth, F. Bohle, G. Brandenburg, E. Caldeweyher
   M. Checinski, S. Dohm, S. Ehlert, S. Ehrlich, I. Gerasimov, C. Hölzer
   A. Katbashev, J. Koopman, C. Lavigne, S. Lehtola, F. März, M. Müller,
   F. Musil, H. Neugebauer, J. Pisarek, C. Plett, P. Pracht, F. Pultar,
   J. Seibert, P. Shushkov, S. Spicher, M. Stahn, M. Steiner, T. Strunk,
   J. Stückrath, T. Rose, and J. Unsleber
   
 * started run on 2024/06/05 at 20:00:12.556     

           -------------------------------------------------
          |                Calculation Setup                |
           -------------------------------------------------

          program call               : xtb xtbopt.xyz --opt crude --input .xc2 --gfn2
          hostname                   : n-62-12-66
          coordinate file            : xtbopt.xyz
          omp threads                :                     1

   ID    Z sym.   atoms
    1    6 C      1, 3, 5-7, 10, 11, 14
    2    7 N      2, 4, 9, 13
    3    8 O      8, 12
    4    1 H      15-25

molecular fragmentation (1/2 indicates fragments):
1111111111111111111121111
# atoms in fragment 1/2:    24     1
 fragment masses (1/2) :      194.19        1.01
CMA distance (Bohr)    :  10.178
constraining FC (au)   :  0.0500
########################################################################
[WARNING] Please study the warnings concerning your input carefully
-1- readin_getIntValue: could not parse ''
########################################################################

           -------------------------------------------------
          |                 G F N 2 - x T B                 |
           -------------------------------------------------

        Reference                      10.1021/acs.jctc.8b01176
      * Hamiltonian:
        H0-scaling (s, p, d)           1.850000    2.230000    2.230000
        zeta-weighting                 0.500000
      * Dispersion:
        s8                             2.700000
        a1                             0.520000
        a2                             5.000000
        s9                             5.000000
      * Repulsion:
        kExp                           1.500000    1.000000
        rExp                           1.000000
      * Coulomb:
        alpha                          2.000000
        third order                    shell-resolved
        anisotropic                    true
        a3                             3.000000
        a5                             4.000000
        cn-shift                       1.200000
        cn-exp                         4.000000
        max-rad                        5.000000

q/qsh data taken from xtbrestart
CAMM data taken from xtbrestart

          ...................................................
          :                      SETUP                      :
          :.................................................:
          :  # basis functions                  67          :
          :  # atomic orbitals                  67          :
          :  # shells                           39          :
          :  # electrons                        74          :
          :  max. iterations                   250          :
          :  Hamiltonian                  GFN2-xTB          :
          :  restarted?                       true          :
          :  GBSA solvation                  false          :
          :  PC potential                    false          :
          :  electronic temp.         5000.0000000     K    :
          :  accuracy                    1.0000000          :
          :  -> integral cutoff          0.2500000E+02      :
          :  -> integral neglect         0.1000000E-07      :
          :  -> SCF convergence          0.1000000E-05 Eh   :
          :  -> wf. convergence          0.1000000E-03 e    :
          :  Broyden damping             0.4000000          :
          ...................................................

 iter      E             dE          RMSdq      gap      omega  full diag
   1    -42.6241218 -0.426241E+02  0.254E-05    0.12       0.0  T
   2    -42.6241218  0.525802E-11  0.234E-05    0.12     853.7  T
   3    -42.6241218 -0.106013E-10  0.150E-05    0.12    1335.6  T

   *** convergence criteria satisfied after 3 iterations ***

         #    Occupation            Energy/Eh            Energy/eV
      -------------------------------------------------------------
         1        2.0000           -0.9108913             -24.7866
       ...           ...                  ...                  ...
        31        1.9998           -0.6188839             -16.8407
        32        1.9997           -0.6146639             -16.7259
        33        1.9997           -0.6133755             -16.6908
        34        1.9982           -0.5852591             -15.9257
        35        1.9943           -0.5668296             -15.4242
        36        1.9903           -0.5584167             -15.1953
        37        1.0100           -0.4743968             -12.9090 (HOMO)
        38        0.8678           -0.4698688             -12.7858 (LUMO)
        39        0.1195           -0.4304410             -11.7129
        40        0.0178           -0.3994828             -10.8705
        41        0.0031           -0.3717584             -10.1161
        42        0.0000           -0.2876963              -7.8286
       ...           ...                  ...                  ...
        67                          0.5479351              14.9101
      -------------------------------------------------------------
                  HL-Gap            0.0045279 Eh            0.1232 eV
             Fermi-level           -0.4740792 Eh          -12.9004 eV

 SCC (total)                   0 d,  0 h,  0 min,  0.022 sec
 SCC setup                      ...        0 min,  0.000 sec (  1.208%)
 Dispersion                     ...        0 min,  0.000 sec (  1.088%)
 classical contributions        ...        0 min,  0.000 sec (  0.342%)
 integral evaluation            ...        0 min,  0.005 sec ( 21.081%)
 iterations                     ...        0 min,  0.005 sec ( 22.356%)
 molecular gradient             ...        0 min,  0.012 sec ( 53.158%)
 printout                       ...        0 min,  0.000 sec (  0.734%)

         :::::::::::::::::::::::::::::::::::::::::::::::::::::
         ::                     SUMMARY                     ::
         :::::::::::::::::::::::::::::::::::::::::::::::::::::
         :: total energy             -42.105970047690 Eh    ::
         :: gradient norm              0.003463883858 Eh/a0 ::
         :: HOMO-LUMO gap              0.123211608565 eV    ::
         ::.................................................::
         :: SCC energy               -42.624121752087 Eh    ::
         :: -> isotropic ES            0.138337869775 Eh    ::
         :: -> anisotropic ES         -0.007269817732 Eh    ::
         :: -> anisotropic XC          0.012343943648 Eh    ::
         :: -> dispersion             -0.022875418705 Eh    ::
         :: repulsion energy           0.518070642230 Eh    ::
         :: add. restraining           0.000000000000 Eh    ::
         :: total charge               1.000000000000 e     ::
         :::::::::::::::::::::::::::::::::::::::::::::::::::::

      ----------------------------------------------------------- 
     |                   =====================                   |
     |                        A N C O P T                        |
     |                   =====================                   |
     |               Approximate Normal Coordinate               |
     |                Rational Function Optimizer                |
      ----------------------------------------------------------- 

          ...................................................
          :                      SETUP                      :
          :.................................................:
          :   optimization level             crude          :
          :   max. optcycles                   200          :
          :   ANC micro-cycles                  20          :
          :   degrees of freedom                69          :
          :.................................................:
          :   RF solver                   davidson          :
          :   write xtbopt.log                true          :
          :   linear?                        false          :
          :   energy convergence         0.5000000E-03 Eh   :
          :   grad. convergence          0.1000000E-01 Eh/α :
          :   maxmium RF displ.          1.0000000          :
          :   Hlow (freq-cutoff)         0.1000000E-01      :
          :   Hmax (freq-cutoff)         5.0000000          :
          :   S6 in model hess.         20.0000000          :
          ...................................................

generating ANC from model Hessian ...
Using Lindh-Hessian (1995)
 Shifting diagonal of input Hessian by    1.4185724037645040E-002
 Lowest  eigenvalues of input Hessian
    0.010000    0.000000    0.000000    0.000000    0.000000    0.000000
    0.000000    0.014466    0.014639    0.016916    0.018635    0.020043
    0.023694    0.024148    0.026028    0.026957    0.028415    0.032394
 Highest eigenvalues
    2.089123    2.138276    2.216461    2.266045    2.416353    2.513093


........................................................................
.............................. CYCLE    1 ..............................
........................................................................

 iter      E             dE          RMSdq      gap      omega  full diag
   1    -42.6241218 -0.426241E+02  0.133E-05    0.12       0.0  T
   2    -42.6241218  0.106937E-10  0.230E-05    0.12     870.2  T
   3    -42.6241218 -0.131806E-10  0.590E-06    0.12    3388.9  T
     SCC iter.                  ...        0 min,  0.004 sec
     gradient                   ...        0 min,  0.011 sec
 * total energy  :   -42.1059700 Eh     change       -0.4142464E-11 Eh
   gradient norm :     0.0034637 Eh/α   predicted     0.0000000E+00 (-100.00%)
   displ. norm   :     0.1720759 α      lambda       -0.3316883E-03
   maximum displ.:     0.1681048 α      in ANC's #1, #3, #5, ...

   *** GEOMETRY OPTIMIZATION CONVERGED AFTER 1 ITERATIONS ***

------------------------------------------------------------------------
 total energy gain   :        -0.0000000 Eh       -0.0000 kcal/mol
 total RMSD          :         0.0000000 a0        0.0000 Å
 total power (kW/mol):        -0.0000000 (step)   -0.0000 (real)
------------------------------------------------------------------------

 ANCopt (total)                0 d,  0 h,  0 min,  0.032 sec
 optimizer setup                ...        0 min,  0.002 sec (  5.946%)
 model hessian                  ...        0 min,  0.006 sec ( 19.696%)
 ANC generation                 ...        0 min,  0.001 sec (  2.468%)
 coordinate transformation      ...        0 min,  0.000 sec (  0.027%)
 single point calculation       ...        0 min,  0.020 sec ( 64.564%)
 optimization log               ...        0 min,  0.002 sec (  6.364%)
 hessian update                 ...        0 min,  0.000 sec (  0.002%)
 rational function              ...        0 min,  0.000 sec (  0.654%)

================
 final structure:
================
25
 xtb: 6.6.1 (8d0f1dd)
C            3.37145738171807        1.04200200549555       -0.01158383021682
N            2.37545035460850        0.00472921562612       -0.02939638502455
C            2.59684629447964       -1.30753611274862       -0.01065875696283
N            1.41800305113145       -1.97201744410371       -0.00687625298484
C            0.41443099840757       -1.04992057195505       -0.02144377224617
C            1.01059177785977        0.20488584715471       -0.03873315582227
C            0.24954174692112        1.41657902096332       -0.07001886715065
O            0.66290964115312        2.55359267488795       -0.11113340206192
N           -1.16724073819047        1.14508888633803       -0.04072087821163
C           -1.99374664199736        2.20033497865374       -0.04155355848348
C           -1.77483211666938       -0.14332996814728       -0.01926021187085
O           -2.96835271828209       -0.27129380983424       -0.00523739066731
N           -0.91973588822755       -1.24225622072254       -0.01686688545756
C           -1.48977019665953       -2.57791722331642       -0.00545653315648
H            3.87849422849825        1.06189278270276        0.95429163269661
H            4.11085395723332        0.86999705196692       -0.79303937254621
H            2.88315146967262        2.00164194481856       -0.17375086609957
H            3.56191233830429       -1.77380507673853        0.00072877811714
H           -1.55210430278972        3.17887184718220       -0.06611805311510
H           -3.06850701299327        2.04383523532599        0.04957543664238
H           -4.80934309673225        2.12675354398659        0.49372864281654
H           -1.17020419035800       -3.11859929239948        0.88544311576574
H           -1.19744567616984       -3.12223810040126       -0.90358953533807
H           -2.57376721617555       -2.47659175903258        0.01080328609287
H            1.31183806935716       -2.97646091410276        0.00203843318497

 Bond Distances (Angstroems)
 ---------------------------
C1-N2=1.4382         C1-H15=1.0911        C1-H16=1.0895        C1-H17=1.0889        N2-C1=1.4382         N2-C3=1.3309         
N2-C6=1.3795         C3-N2=1.3309         C3-N4=1.3532         C3-H18=1.0719        N4-C3=1.3532         N4-C5=1.3629         
N4-H25=1.0101        C5-N4=1.3629         C5-C6=1.3893         C5-N13=1.3480        C6-N2=1.3795         C6-C5=1.3893         
C6-C7=1.4312         C7-C6=1.4312         C7-O8=1.2105         C7-N9=1.4429         O8-C7=1.2105         N9-C7=1.4429         
N9-C10=1.3404        N9-C11=1.4247        C10-N9=1.3404        C10-H19=1.0739       C10-H20=1.0899       C11-N9=1.4247        
C11-O12=1.2004       C11-N13=1.3924       O12-C11=1.2004       N13-C5=1.3480        N13-C11=1.3924       N13-C14=1.4523       
C14-N13=1.4523       C14-H22=1.0900       C14-H23=1.0901       C14-H24=1.0888       H15-C1=1.0911        H16-C1=1.0895        
H17-C1=1.0889        H18-C3=1.0719        H19-C10=1.0739       H20-C10=1.0899       H22-C14=1.0900       H23-C14=1.0901       
H24-C14=1.0888       H25-N4=1.0101        
 C  H  Rav=1.0860 sigma=0.0071  Rmin=1.0719  Rmax=1.0911     9
 C  C  Rav=1.4103 sigma=0.0209  Rmin=1.3893  Rmax=1.4312     2
 N  H  Rav=1.0101 sigma=0.0000  Rmin=1.0101  Rmax=1.0101     1
 N  C  Rav=1.3878 sigma=0.0427  Rmin=1.3309  Rmax=1.4523    11
 O  C  Rav=1.2055 sigma=0.0050  Rmin=1.2004  Rmax=1.2105     2

 selected bond angles (degree)
 --------------------
H15-C1-N2=110.24               H16-C1-N2=110.32               H16-C1-H15=108.81              H17-C1-N2=108.86               
H17-C1-H15=108.92              H17-C1-H16=109.67              C3-N2-C1=126.57                C6-N2-C1=125.50                
C6-N2-C3=107.92                N4-C3-N2=109.83                H18-C3-N2=125.37               H18-C3-N4=124.80               
C5-N4-C3=108.01                H25-N4-C3=125.44               H25-N4-C5=126.55               C6-C5-N4=107.17                
N13-C5-N4=129.21               N13-C5-C6=123.62               C5-C6-N2=107.06                C7-C6-N2=130.47                
C7-C6-C5=122.46                O8-C7-C6=127.91                N9-C7-C6=111.25                N9-C7-O8=120.85                
C10-N9-C7=117.21               C11-N9-C7=126.10               C11-N9-C10=116.68              H19-C10-N9=117.63              
H20-C10-N9=119.67              H20-C10-H19=122.57             

 selected dihedral angles (degree)
 ---------------------------------
C3-N2-C1-H15=291.64           C3-N2-C1-H16= 51.84           C3-N2-C1-H17=172.23           C6-N2-C1-H15=110.08           
C6-N2-C1-H16=230.28           C6-N2-C1-H17=350.67           N4-C3-N2-C1=178.64            N4-C3-N2-C6=359.97            
H18-C3-N2-C1=358.69           H18-C3-N2-C6=180.03           C5-N4-C3-N2=359.90            C5-N4-C3-H18=179.84           
H25-N4-C3-N2=179.71           H25-N4-C3-H18=359.65          C6-C5-N4-C3=  0.19            C6-C5-N4-H25=180.38           
N13-C5-N4-C3=180.38           N13-C5-N4-H25=  0.58          C5-C6-N2-C1=181.46            C5-C6-N2-C3=  0.14            
C7-C6-N2-C1=  1.91            C7-C6-N2-C3=180.59            N2-C6-C5-N4=359.80            N2-C6-C5-N13=179.62           
C7-C6-C5-N4=179.39            C7-C6-C5-N13=359.21           O8-C7-C6-N2=  0.93            O8-C7-C6-C5=181.44            
N9-C7-C6-N2=181.18            N9-C7-C6-C5=  1.69            C10-N9-C7-C6=178.84           C10-N9-C7-O8=359.07           
C11-N9-C7-C6=358.42           C11-N9-C7-O8=178.65           H19-C10-N9-C7=  0.13          H19-C10-N9-C11=180.51         
H20-C10-N9-C7=184.22          H20-C10-N9-C11=  4.59         

 CMA Distance (Angstroems)
 ---------------------------
R(CMA):  5.3860
           -------------------------------------------------
          |                Final Singlepoint                |
           -------------------------------------------------

          ...................................................
          :                      SETUP                      :
          :.................................................:
          :  # basis functions                  67          :
          :  # atomic orbitals                  67          :
          :  # shells                           39          :
          :  # electrons                        74          :
          :  max. iterations                   250          :
          :  Hamiltonian                  GFN2-xTB          :
          :  restarted?                      false          :
          :  GBSA solvation                  false          :
          :  PC potential                    false          :
          :  electronic temp.         5000.0000000     K    :
          :  accuracy                    1.0000000          :
          :  -> integral cutoff          0.2500000E+02      :
          :  -> integral neglect         0.1000000E-07      :
          :  -> SCF convergence          0.1000000E-05 Eh   :
          :  -> wf. convergence          0.1000000E-03 e    :
          :  Broyden damping             0.4000000          :
          ...................................................

 iter      E             dE          RMSdq      gap      omega  full diag
   1    -42.6241218 -0.426241E+02  0.309E-06    0.12       0.0  T
   2    -42.6241218  0.234479E-12  0.282E-06    0.12    7090.9  T
   3    -42.6241218 -0.277112E-12  0.147E-06    0.12   13562.4  T

   *** convergence criteria satisfied after 3 iterations ***

         #    Occupation            Energy/Eh            Energy/eV
      -------------------------------------------------------------
         1        2.0000           -0.9108913             -24.7866
       ...           ...                  ...                  ...
        31        1.9998           -0.6188840             -16.8407
        32        1.9997           -0.6146639             -16.7259
        33        1.9997           -0.6133756             -16.6908
        34        1.9982           -0.5852591             -15.9257
        35        1.9943           -0.5668297             -15.4242
        36        1.9903           -0.5584167             -15.1953
        37        1.0100           -0.4743967             -12.9090 (HOMO)
        38        0.8678           -0.4698689             -12.7858 (LUMO)
        39        0.1195           -0.4304410             -11.7129
        40        0.0178           -0.3994829             -10.8705
        41        0.0031           -0.3717585             -10.1161
        42        0.0000           -0.2876963              -7.8286
       ...           ...                  ...                  ...
        67                          0.5479350              14.9101
      -------------------------------------------------------------
                  HL-Gap            0.0045278 Eh            0.1232 eV
             Fermi-level           -0.4740792 Eh          -12.9004 eV

 SCC (total)                   0 d,  0 h,  0 min,  0.018 sec
 SCC setup                      ...        0 min,  0.000 sec (  1.069%)
 Dispersion                     ...        0 min,  0.000 sec (  0.888%)
 classical contributions        ...        0 min,  0.000 sec (  0.373%)
 integral evaluation            ...        0 min,  0.004 sec ( 23.937%)
 iterations                     ...        0 min,  0.004 sec ( 21.912%)
 molecular gradient             ...        0 min,  0.009 sec ( 51.324%)
 printout                       ...        0 min,  0.000 sec (  0.456%)

         :::::::::::::::::::::::::::::::::::::::::::::::::::::
         ::                     SUMMARY                     ::
         :::::::::::::::::::::::::::::::::::::::::::::::::::::
         :: total energy             -42.105970047694 Eh    ::
         :: gradient norm              0.003463732364 Eh/a0 ::
         :: HOMO-LUMO gap              0.123207904682 eV    ::
         ::.................................................::
         :: SCC energy               -42.624121752091 Eh    ::
         :: -> isotropic ES            0.138337604899 Eh    ::
         :: -> anisotropic ES         -0.007269808137 Eh    ::
         :: -> anisotropic XC          0.012343929686 Eh    ::
         :: -> dispersion             -0.022875415803 Eh    ::
         :: repulsion energy           0.518070642230 Eh    ::
         :: add. restraining           0.000000000000 Eh    ::
         :: total charge               1.000000000000 e     ::
         :::::::::::::::::::::::::::::::::::::::::::::::::::::

           -------------------------------------------------
          |                Property Printout                |
           -------------------------------------------------

    * Orbital Energies and Occupations

         #    Occupation            Energy/Eh            Energy/eV
      -------------------------------------------------------------
         1        2.0000           -0.9108913             -24.7866
       ...           ...                  ...                  ...
        25        2.0000           -0.6715649             -18.2742
        26        2.0000           -0.6690183             -18.2049
        27        2.0000           -0.6628239             -18.0364
        28        1.9999           -0.6328029             -17.2194
        29        1.9999           -0.6299628             -17.1422
        30        1.9999           -0.6279387             -17.0871
        31        1.9998           -0.6188840             -16.8407
        32        1.9997           -0.6146639             -16.7259
        33        1.9997           -0.6133756             -16.6908
        34        1.9982           -0.5852591             -15.9257
        35        1.9943           -0.5668297             -15.4242
        36        1.9903           -0.5584167             -15.1953
        37        1.0100           -0.4743967             -12.9090 (HOMO)
        38        0.8678           -0.4698689             -12.7858 (LUMO)
        39        0.1195           -0.4304410             -11.7129
        40        0.0178           -0.3994829             -10.8705
        41        0.0031           -0.3717585             -10.1161
        42        0.0000           -0.2876963              -7.8286
        43        0.0000           -0.2089533              -5.6859
        44                         -0.1966502              -5.3511
        45                         -0.1517986              -4.1306
        46                         -0.1459183              -3.9706
        47                         -0.0786084              -2.1390
        48                         -0.0535150              -1.4562
       ...                                ...                  ...
        67                          0.5479350              14.9101
      -------------------------------------------------------------
                  HL-Gap            0.0045278 Eh            0.1232 eV
             Fermi-level           -0.4740792 Eh          -12.9004 eV

     #   Z          covCN         q      C6AA      α(0)
     1   6 C        3.691    -0.094    22.481     6.785
     2   7 N        2.830     0.077    19.907     6.627
     3   6 C        3.048     0.047    26.901     8.506
     4   7 N        2.790    -0.058    22.359     7.023
     5   6 C        3.042     0.106    25.628     8.303
     6   6 C        3.105    -0.023    28.438     8.738
     7   6 C        2.773     0.254    22.735     7.809
     8   8 O        0.857    -0.362    20.930     6.134
     9   7 N        2.740    -0.031    21.853     6.943
    10   6 C        2.813    -0.021    28.524     8.750
    11   6 C        2.737     0.309    21.756     7.637
    12   8 O        0.859    -0.352    20.748     6.107
    13   7 N        2.737    -0.050    22.200     6.998
    14   6 C        3.699    -0.073    22.077     6.720
    15   1 H        0.924     0.107     1.723     2.053
    16   1 H        0.925     0.105     1.743     2.065
    17   1 H        0.925     0.134     1.506     1.919
    18   1 H        0.926     0.124     1.585     1.969
    19   1 H        0.926     0.133     1.512     1.923
    20   1 H        0.925     0.134     1.504     1.918
    21   1 H        0.000     0.013     7.102     4.873
    22   1 H        0.925     0.083     1.944     2.180
    23   1 H        0.925     0.084     1.937     2.177
    24   1 H        0.925     0.127     1.556     1.951
    25   1 H        0.860     0.229     0.970     1.543

 Mol. C6AA /au·bohr⁶  :       6810.770320
 Mol. C8AA /au·bohr⁸  :     155494.458423
 Mol. α(0) /au        :        127.649004


Wiberg/Mayer (AO) data.
largest (>0.10) Wiberg bond orders for each atom

 ---------------------------------------------------------------------------
     #   Z sym  total        # sym  WBO       # sym  WBO       # sym  WBO
 ---------------------------------------------------------------------------
     1   6 C    3.917 --     2 N    0.987    16 H    0.963    17 H    0.962
                            15 H    0.957
     2   7 N    3.647 --     3 C    1.378     6 C    1.145     1 C    0.987
     3   6 C    3.819 --     2 N    1.378     4 N    1.267    18 H    0.953
     4   7 N    3.579 --     3 C    1.267     5 C    1.193    25 H    0.919
     5   6 C    3.899 --     6 C    1.327     4 N    1.193    13 N    1.191
     6   6 C    3.908 --     5 C    1.327     2 N    1.145     7 C    1.118
     7   6 C    3.865 --     8 O    1.676     6 C    1.118     9 N    0.979
     8   8 O    1.959 --     7 C    1.676     9 N    0.108
     9   7 N    3.613 --    10 C    1.347    11 C    1.016     7 C    0.979
                             8 O    0.108
    10   6 C    3.301 --     9 N    1.347    19 H    0.957    20 H    0.908
    11   6 C    3.904 --    12 O    1.706    13 N    1.087     9 N    1.016
    12   8 O    2.017 --    11 C    1.706    13 N    0.134
    13   7 N    3.565 --     5 C    1.191    11 C    1.087    14 C    0.970
                            12 O    0.134
    14   6 C    3.924 --    22 H    0.972    23 H    0.971    13 N    0.970
                            24 H    0.965
    15   1 H    0.984 --     1 C    0.957
    16   1 H    0.985 --     1 C    0.963
    17   1 H    0.982 --     1 C    0.962
    18   1 H    0.984 --     3 C    0.953
    19   1 H    0.979 --    10 C    0.957
    20   1 H    0.981 --    10 C    0.908
    21   1 H    0.060
    22   1 H    0.991 --    14 C    0.972
    23   1 H    0.991 --    14 C    0.971
    24   1 H    0.983 --    14 C    0.965
    25   1 H    0.947 --     4 N    0.919
 ---------------------------------------------------------------------------

Topologies differ in total number of bonds
Writing topology from bond orders to xtbtopo.mol

molecular dipole:
                 x           y           z       tot (Debye)
 q only:        2.362      -1.978       0.035
   full:        2.581      -2.435       0.056       9.020
molecular quadrupole (traceless):
                xx          xy          yy          xz          yz          zz
 q only:       13.574      -8.512       5.304      -0.143       0.392     -18.878
  q+dip:       11.457     -12.203       5.434      -0.236       0.560     -16.891
   full:       10.200     -11.700       4.480      -0.133       0.644     -14.680

           -------------------------------------------------
          |                Geometry Summary                 |
           -------------------------------------------------

      molecular mass/u    :      195.1988581
   center of mass at/Å    :        0.0873060       0.0144264      -0.0273548
  moments of inertia/u·Å² :        0.4758033E+03   0.7330857E+03   0.1201749E+04
rotational constants/cm⁻¹ :        0.3542983E-01   0.2299544E-01   0.1402758E-01

 * 24 selected distances

     #   Z          #   Z                                           value/Å
     1   6 C        2   7 N                                       1.4381525
     2   7 N        3   6 C                                       1.3309425
     3   6 C        4   7 N                                       1.3532263
     4   7 N        5   6 C                                       1.3629498
     2   7 N        6   6 C                                       1.3794887
     5   6 C        6   6 C                                       1.3893330
     6   6 C        7   6 C                                       1.4312151
     7   6 C        8   8 O                                       1.2105221
     9   7 N       10   6 C                                       1.3403945
     9   7 N       11   6 C                                       1.4246583
    11   6 C       12   8 O                                       1.2004429
     5   6 C       13   7 N                                       1.3479672
    11   6 C       13   7 N                                       1.3924204
    13   7 N       14   6 C                                       1.4522603 (max)
     1   6 C       15   1 H                                       1.0910535
     1   6 C       16   1 H                                       1.0894797
     1   6 C       17   1 H                                       1.0888755
     3   6 C       18   1 H                                       1.0718624
    10   6 C       19   1 H                                       1.0738650
    10   6 C       20   1 H                                       1.0899113
    14   6 C       22   1 H                                       1.0900284
    14   6 C       23   1 H                                       1.0901293
    14   6 C       24   1 H                                       1.0888439
     4   7 N       25   1 H                                       1.0100779 (min)

 * 5 distinct bonds (by element types)

   Z      Z             #   av. dist./Å        max./Å        min./Å
   1 H    6 C           9     1.0860054     1.0910535     1.0718624
   6 C    6 C           2     1.4102740     1.4312151     1.3893330
   1 H    7 N           1     1.0100779     1.0100779     1.0100779
   6 C    7 N          10     1.3822460     1.4522603     1.3309425
   6 C    8 O           2     1.2054825     1.2105221     1.2004429


optimized geometry written to: xtbopt.xyz


           -------------------------------------------------
          | TOTAL ENERGY              -42.105970047694 Eh   |
          | GRADIENT NORM               0.003463732364 Eh/α |
          | HOMO-LUMO GAP               0.123207904682 eV   |
           -------------------------------------------------

------------------------------------------------------------------------
 * finished run on 2024/06/05 at 20:00:12.709     
------------------------------------------------------------------------
 total:
 * wall-time:     0 d,  0 h,  0 min,  0.153 sec
 *  cpu-time:     0 d,  0 h,  0 min,  0.103 sec
 * ratio c/w:     0.677 speedup
 SCF:
 * wall-time:     0 d,  0 h,  0 min,  0.022 sec
 *  cpu-time:     0 d,  0 h,  0 min,  0.022 sec
 * ratio c/w:     0.999 speedup
 ANC optimizer:
 * wall-time:     0 d,  0 h,  0 min,  0.065 sec
 *  cpu-time:     0 d,  0 h,  0 min,  0.052 sec
 * ratio c/w:     0.810 speedup

