25
 energy: -42.154073381179 gnorm: 0.004651607236 xtb: 6.6.1 (8d0f1dd)
C            3.12118828952325        1.20181627390157       -0.13677876701261
N            2.14815175882276        0.14304298325253       -0.07031156664911
C            2.39790996503677       -1.13102448498344        0.20835421686430
N            1.24025977214756       -1.81713121953305        0.21545398452219
C            0.22395863276935       -0.94584427485867       -0.07414665279556
C            0.80587811338056        0.28811057111781       -0.27166515334482
C            0.08934044922072        1.55833556700668       -0.62823369743107
O            0.41412575465805        2.63849833259363       -0.15845899253276
N           -1.52869025199953        1.04062439588835        0.17147380372382
C           -2.17981648465387        2.01208996657747        0.68084371036183
C           -2.06911979196579       -0.26161562510379        0.09194181701278
O           -3.23936840123673       -0.50586593812668        0.17662073589940
N           -1.10749473916747       -1.25004660826120       -0.08239532358551
C           -1.53892998606548       -2.63578586365803       -0.13031308593172
H            3.88139648018991        1.05359847366410        0.62776657728226
H            3.60057149687607        1.21959918144443       -1.11708856113249
H            2.61534867305742        2.15433417218217        0.02492269624783
H            3.36579546168504       -1.55289234579832        0.39450085340260
H           -1.68491429547835        2.97584612543839        0.69211704839641
H           -0.37180699988176        1.48667146399982       -1.63952520740578
H           -3.17256824737002        1.89285485238022        1.09563253031711
H           -1.33012897694681       -3.14767575478292        0.81114525322151
H           -1.05125194247221       -3.15116408169091       -0.95709177012180
H           -2.61609414525302       -2.64156418202423       -0.29089238434322
H            1.14669092922412       -2.80657343902710        0.39729955293438
