      -----------------------------------------------------------      
     |                   =====================                   |     
     |                           x T B                           |     
     |                   =====================                   |     
     |                         S. Grimme                         |     
     |          Mulliken Center for Theoretical Chemistry        |     
     |                    University of Bonn                     |     
      -----------------------------------------------------------      

   * xtb version 6.6.1 (8d0f1dd) compiled by 'conda@1efc2f54142f' on 2023-08-01

   xtb is free software: you can redistribute it and/or modify it under
   the terms of the GNU Lesser General Public License as published by
   the Free Software Foundation, either version 3 of the License, or
   (at your option) any later version.
   
   xtb is distributed in the hope that it will be useful,
   but WITHOUT ANY WARRANTY; without even the implied warranty of
   MERCHANTABILITY or FITNESS FOR A PARTICULAR PURPOSE.  See the
   GNU Lesser General Public License for more details.
   
   Cite this work as:
   * C. Bannwarth, E. Caldeweyher, S. Ehlert, A. Hansen, P. Pracht,
     J. Seibert, S. Spicher, S. Grimme, WIREs Comput. Mol. Sci., 2020, 11,
     e01493. DOI: 10.1002/wcms.1493
   
   for GFN2-xTB:
   * C. Bannwarth, S. Ehlert and S. Grimme., J. Chem. Theory Comput., 2019,
     15, 1652-1671. DOI: 10.1021/acs.jctc.8b01176
   for GFN1-xTB:
   * S. Grimme, C. Bannwarth, P. Shushkov, J. Chem. Theory Comput., 2017,
     13, 1989-2009. DOI: 10.1021/acs.jctc.7b00118
   for GFN0-xTB:
   * P. Pracht, E. Caldeweyher, S. Ehlert, S. Grimme, ChemRxiv, 2019, preprint.
     DOI: 10.26434/chemrxiv.8326202.v1
   for GFN-FF:
   * S. Spicher and S. Grimme, Angew. Chem. Int. Ed., 2020, 59, 15665-15673.
     DOI: 10.1002/anie.202004239
   
   for ALPB and GBSA implicit solvation:
   * S. Ehlert, M. Stahn, S. Spicher, S. Grimme, J. Chem. Theory Comput.,
     2021, 17, 4250-4261. DOI: 10.1021/acs.jctc.1c00471
   
   for DFT-D4:
   * E. Caldeweyher, C. Bannwarth and S. Grimme, J. Chem. Phys., 2017,
     147, 034112. DOI: 10.1063/1.4993215
   * E. Caldeweyher, S. Ehlert, A. Hansen, H. Neugebauer, S. Spicher,
     C. Bannwarth and S. Grimme, J. Chem. Phys., 2019, 150, 154122.
     DOI: 10.1063/1.5090222
   * E. Caldeweyher, J.-M. Mewes, S. Ehlert and S. Grimme, Phys. Chem. Chem. Phys.
     2020, 22, 8499-8512. DOI: 10.1039/D0CP00502A
   
   for sTDA-xTB:
   * S. Grimme and C. Bannwarth, J. Chem. Phys., 2016, 145, 054103.
     DOI: 10.1063/1.4959605
   
   in the mass-spec context:
   * V. Asgeirsson, C. Bauer and S. Grimme, Chem. Sci., 2017, 8, 4879.
     DOI: 10.1039/c7sc00601b
   * J. Koopman and S. Grimme, ACS Omega 2019, 4, 12, 15120-15133.
     DOI: 10.1021/acsomega.9b02011
   
   for metadynamics refer to:
   * S. Grimme, J. Chem. Theory Comput., 2019, 155, 2847-2862
     DOI: 10.1021/acs.jctc.9b00143
   
   for SPH calculations refer to:
   * S. Spicher and S. Grimme, J. Chem. Theory Comput., 2021, 17, 1701-1714
     DOI: 10.1021/acs.jctc.0c01306
   
   with help from (in alphabetical order)
   P. Atkinson, C. Bannwarth, F. Bohle, G. Brandenburg, E. Caldeweyher
   M. Checinski, S. Dohm, S. Ehlert, S. Ehrlich, I. Gerasimov, C. Hölzer
   A. Katbashev, J. Koopman, C. Lavigne, S. Lehtola, F. März, M. Müller,
   F. Musil, H. Neugebauer, J. Pisarek, C. Plett, P. Pracht, F. Pultar,
   J. Seibert, P. Shushkov, S. Spicher, M. Stahn, M. Steiner, T. Strunk,
   J. Stückrath, T. Rose, and J. Unsleber
   
 * started run on 2024/06/05 at 20:00:15.684     

           -------------------------------------------------
          |                Calculation Setup                |
           -------------------------------------------------

          program call               : xtb xtbopt.xyz --opt crude --input .xc2 --gfn2
          hostname                   : n-62-11-66
          coordinate file            : xtbopt.xyz
          omp threads                :                     1

   ID    Z sym.   atoms
    1    6 C      1, 3, 5-7, 10, 11, 14
    2    7 N      2, 4, 9, 13
    3    8 O      8, 12
    4    1 H      15-25
########################################################################
[WARNING] Please study the warnings concerning your input carefully
-1- readin_getIntValue: could not parse ''
########################################################################

           -------------------------------------------------
          |                 G F N 2 - x T B                 |
           -------------------------------------------------

        Reference                      10.1021/acs.jctc.8b01176
      * Hamiltonian:
        H0-scaling (s, p, d)           1.850000    2.230000    2.230000
        zeta-weighting                 0.500000
      * Dispersion:
        s8                             2.700000
        a1                             0.520000
        a2                             5.000000
        s9                             5.000000
      * Repulsion:
        kExp                           1.500000    1.000000
        rExp                           1.000000
      * Coulomb:
        alpha                          2.000000
        third order                    shell-resolved
        anisotropic                    true
        a3                             3.000000
        a5                             4.000000
        cn-shift                       1.200000
        cn-exp                         4.000000
        max-rad                        5.000000

q/qsh data taken from xtbrestart
CAMM data taken from xtbrestart

          ...................................................
          :                      SETUP                      :
          :.................................................:
          :  # basis functions                  67          :
          :  # atomic orbitals                  67          :
          :  # shells                           39          :
          :  # electrons                        74          :
          :  max. iterations                   250          :
          :  Hamiltonian                  GFN2-xTB          :
          :  restarted?                       true          :
          :  GBSA solvation                  false          :
          :  PC potential                    false          :
          :  electronic temp.         5000.0000000     K    :
          :  accuracy                    1.0000000          :
          :  -> integral cutoff          0.2500000E+02      :
          :  -> integral neglect         0.1000000E-07      :
          :  -> SCF convergence          0.1000000E-05 Eh   :
          :  -> wf. convergence          0.1000000E-03 e    :
          :  Broyden damping             0.4000000          :
          ...................................................

 iter      E             dE          RMSdq      gap      omega  full diag
   1    -42.6697077 -0.426697E+02  0.143E-05    1.69       0.0  T
   2    -42.6697077  0.486722E-11  0.166E-05    1.69    1206.1  T
   3    -42.6697077 -0.959233E-11  0.414E-06    1.69    4833.9  T

   *** convergence criteria satisfied after 3 iterations ***

         #    Occupation            Energy/Eh            Energy/eV
      -------------------------------------------------------------
         1        2.0000           -0.9015535             -24.5325
       ...           ...                  ...                  ...
        31        1.9998           -0.6204478             -16.8832
        32        1.9992           -0.5975947             -16.2614
        33        1.9977           -0.5797897             -15.7769
        34        1.9976           -0.5793357             -15.7645
        35        1.9953           -0.5684847             -15.4693
        36        1.9851           -0.5502892             -14.9741
        37        1.7539           -0.5039016             -13.7119 (HOMO)
        38        0.2452           -0.4416432             -12.0177 (LUMO)
        39        0.0235           -0.4026168             -10.9558
        40        0.0031           -0.3705772             -10.0839
        41        0.0000           -0.2816106              -7.6630
        42                         -0.1943441              -5.2884
       ...                                ...                  ...
        67                          0.5398445              14.6899
      -------------------------------------------------------------
                  HL-Gap            0.0622584 Eh            1.6941 eV
             Fermi-level           -0.4728075 Eh          -12.8657 eV

 SCC (total)                   0 d,  0 h,  0 min,  0.024 sec
 SCC setup                      ...        0 min,  0.000 sec (  1.402%)
 Dispersion                     ...        0 min,  0.000 sec (  1.495%)
 classical contributions        ...        0 min,  0.000 sec (  0.440%)
 integral evaluation            ...        0 min,  0.006 sec ( 26.712%)
 iterations                     ...        0 min,  0.005 sec ( 21.365%)
 molecular gradient             ...        0 min,  0.011 sec ( 47.937%)
 printout                       ...        0 min,  0.000 sec (  0.618%)

         :::::::::::::::::::::::::::::::::::::::::::::::::::::
         ::                     SUMMARY                     ::
         :::::::::::::::::::::::::::::::::::::::::::::::::::::
         :: total energy             -42.162249970387 Eh    ::
         :: gradient norm              0.002613731891 Eh/a0 ::
         :: HOMO-LUMO gap              1.694137328263 eV    ::
         ::.................................................::
         :: SCC energy               -42.669707709802 Eh    ::
         :: -> isotropic ES            0.131326316705 Eh    ::
         :: -> anisotropic ES         -0.004364988623 Eh    ::
         :: -> anisotropic XC          0.011029191874 Eh    ::
         :: -> dispersion             -0.022220083557 Eh    ::
         :: repulsion energy           0.507362036639 Eh    ::
         :: add. restraining           0.000000000000 Eh    ::
         :: total charge               0.999999998872 e     ::
         :::::::::::::::::::::::::::::::::::::::::::::::::::::

      ----------------------------------------------------------- 
     |                   =====================                   |
     |                        A N C O P T                        |
     |                   =====================                   |
     |               Approximate Normal Coordinate               |
     |                Rational Function Optimizer                |
      ----------------------------------------------------------- 

          ...................................................
          :                      SETUP                      :
          :.................................................:
          :   optimization level             crude          :
          :   max. optcycles                   200          :
          :   ANC micro-cycles                  20          :
          :   degrees of freedom                69          :
          :.................................................:
          :   RF solver                   davidson          :
          :   write xtbopt.log                true          :
          :   linear?                        false          :
          :   energy convergence         0.5000000E-03 Eh   :
          :   grad. convergence          0.1000000E-01 Eh/α :
          :   maxmium RF displ.          1.0000000          :
          :   Hlow (freq-cutoff)         0.1000000E-01      :
          :   Hmax (freq-cutoff)         5.0000000          :
          :   S6 in model hess.         20.0000000          :
          ...................................................

generating ANC from model Hessian ...
Using Lindh-Hessian (1995)
 Shifting diagonal of input Hessian by    7.9344676452483345E-003
 Lowest  eigenvalues of input Hessian
    0.000000    0.000000    0.000000    0.000000    0.000000    0.000000
    0.010000    0.011349    0.013227    0.015291    0.017770    0.018795
    0.019642    0.022168    0.026282    0.030607    0.034233    0.044171
 Highest eigenvalues
    1.967545    2.105256    2.158101    2.223759    2.282119    2.513958


........................................................................
.............................. CYCLE    1 ..............................
........................................................................

 iter      E             dE          RMSdq      gap      omega  full diag
   1    -42.6697077 -0.426697E+02  0.232E-06    1.69       0.0  T
   2    -42.6697077 -0.405009E-12  0.197E-06    1.69   10135.7  T
   3    -42.6697077  0.184741E-12  0.879E-07    1.69   22764.0  T
     SCC iter.                  ...        0 min,  0.004 sec
     gradient                   ...        0 min,  0.011 sec
 * total energy  :   -42.1622500 Eh     change        0.6394885E-13 Eh
   gradient norm :     0.0026138 Eh/α   predicted     0.0000000E+00 (-100.00%)
   displ. norm   :     0.0398181 α      lambda       -0.5321763E-04
   maximum displ.:     0.0170616 α      in ANC's #6, #2, #13, ...

........................................................................
.............................. CYCLE    2 ..............................
........................................................................

 iter      E             dE          RMSdq      gap      omega  full diag
   1    -42.6693789 -0.426694E+02  0.194E-02    1.70       0.0  T
   2    -42.6693788  0.111720E-06  0.122E-02    1.69       1.6  T
   3    -42.6693756  0.315278E-05  0.114E-02    1.70       1.8  T
   4    -42.6693794 -0.376119E-05  0.131E-03    1.69      15.3  T
   5    -42.6693794 -0.368007E-07  0.546E-04    1.69      36.6  T
   6    -42.6693794 -0.114271E-08  0.208E-04    1.69      96.0  T
     SCC iter.                  ...        0 min,  0.008 sec
     gradient                   ...        0 min,  0.011 sec
 * total energy  :   -42.1622974 Eh     change       -0.4742415E-04 Eh
   gradient norm :     0.0016317 Eh/α   predicted    -0.2670888E-04 ( -43.68%)
   displ. norm   :     0.3127161 α      lambda       -0.2139674E-03
   maximum displ.:     0.1461359 α      in ANC's #2, #6, #13, ...

   *** GEOMETRY OPTIMIZATION CONVERGED AFTER 2 ITERATIONS ***

------------------------------------------------------------------------
 total energy gain   :        -0.0000474 Eh       -0.0298 kcal/mol
 total RMSD          :         0.0079636 a0        0.0042 Å
 total power (kW/mol):        -0.0622560 (step)   -2.3527 (real)
------------------------------------------------------------------------

 ANCopt (total)                0 d,  0 h,  0 min,  0.053 sec
 optimizer setup                ...        0 min,  0.000 sec (  0.824%)
 model hessian                  ...        0 min,  0.005 sec ( 10.290%)
 ANC generation                 ...        0 min,  0.001 sec (  1.381%)
 coordinate transformation      ...        0 min,  0.000 sec (  0.034%)
 single point calculation       ...        0 min,  0.044 sec ( 83.488%)
 optimization log               ...        0 min,  0.002 sec (  3.124%)
 hessian update                 ...        0 min,  0.000 sec (  0.027%)
 rational function              ...        0 min,  0.000 sec (  0.350%)

================
 final structure:
================
25
 xtb: 6.6.1 (8d0f1dd)
C            2.95368809940579        1.37452687675703        0.11182659442470
N            2.09496707805086        0.21360308852153        0.14175212231830
C            2.47031097734123       -1.04993868607043       -0.05803276629884
N            1.37773167744454       -1.84325189350245       -0.14863482785983
C            0.27619294017496       -1.05587735038842       -0.01849840330217
C            0.71749576585775        0.25799796230029        0.16283269589745
C           -0.17774923208758        1.32666315818777        0.33968410099739
O            3.24150450279021        1.60350978737238       -1.23464946044535
N           -1.45653501689991        0.95765376931877        0.29886826196370
C           -2.47847806164866        1.97569600026536        0.46624084790953
C           -1.97297634924621       -0.33348471558485        0.10753485941763
O           -3.15045365862700       -0.55707889422320        0.08155602557405
N           -1.02880324203295       -1.36802180684169       -0.04782199806729
C           -1.49852721814532       -2.72414736686701       -0.25462560456832
H            2.39280458985059        2.20254013903892        0.56729652588613
H            3.86285773579198        1.16053177027352        0.69444162825247
H            3.76029312116973        2.40908273580585       -1.34078934084567
H            3.48307963430761       -1.38830001241774       -0.14502722865656
H           -1.98875295293424        2.93826935701314        0.57840601830549
H           -3.13904944526860        1.98337408807414       -0.40087740564956
H           -3.08267775241404        1.75263614244587        1.34598004659341
H           -1.10097425609827       -3.38540709328238        0.51511087979986
H           -1.20835916230894       -3.08072621975515       -1.24349666686857
H           -2.58571165285064       -2.70912369574903       -0.18787397332327
H            1.39855339264647       -2.84248859921414       -0.30003131376501

 Bond Distances (Angstroems)
 ---------------------------
C1-N2=1.4443         C1-O8=1.3958         C1-H15=1.0989        C1-H16=1.1008        N2-C1=1.4443         N2-C3=1.3332         
N2-C6=1.3783         C3-N2=1.3332         C3-N4=1.3532         C3-H18=1.0713        N4-C3=1.3532         N4-C5=1.3603         
N4-H25=1.0109        C5-N4=1.3603         C5-C6=1.3978         C5-N13=1.3421        C6-N2=1.3783         C6-C5=1.3978         
C6-C7=1.4053         C7-C6=1.4053         C7-N9=1.3316         O8-C1=1.3958         O8-H17=0.9640        N9-C7=1.3316         
N9-C10=1.4522        N9-C11=1.4037        C10-N9=1.4522        C10-H19=1.0858       C10-H20=1.0901       C10-H21=1.0903       
C11-N9=1.4037        C11-O12=1.1988       C11-N13=1.4092       O12-C11=1.1988       N13-C5=1.3421        N13-C11=1.4092       
N13-C14=1.4500       C14-N13=1.4500       C14-H22=1.0899       C14-H23=1.0905       C14-H24=1.0893       H15-C1=1.0989        
H16-C1=1.1008        H17-O8=0.9640        H18-C3=1.0713        H19-C10=1.0858       H20-C10=1.0901       H21-C10=1.0903       
H22-C14=1.0899       H23-C14=1.0905       H24-C14=1.0893       H25-N4=1.0109        
 C  H  Rav=1.0897 sigma=0.0079  Rmin=1.0713  Rmax=1.1008     9
 C  C  Rav=1.4015 sigma=0.0037  Rmin=1.3978  Rmax=1.4053     2
 N  H  Rav=1.0109 sigma=0.0000  Rmin=1.0109  Rmax=1.0109     1
 N  C  Rav=1.3871 sigma=0.0449  Rmin=1.3316  Rmax=1.4522    11
 O  H  Rav=0.9640 sigma=0.0000  Rmin=0.9640  Rmax=0.9640     1
 O  C  Rav=1.2973 sigma=0.0985  Rmin=1.1988  Rmax=1.3958     2

 selected bond angles (degree)
 --------------------
O8-C1-N2=105.93                H15-C1-N2=107.07               H15-C1-O8=112.42               H16-C1-N2=108.89               
H16-C1-O8=111.85               H16-C1-H15=110.40              C3-N2-C1=126.25                C6-N2-C1=124.65                
C6-N2-C3=108.31                N4-C3-N2=109.78                H18-C3-N2=125.29               H18-C3-N4=124.94               
C5-N4-C3=107.94                H25-N4-C3=124.95               H25-N4-C5=127.10               C6-C5-N4=107.51                
N13-C5-N4=130.59               N13-C5-C6=121.90               C5-C6-N2=106.45                C7-C6-N2=131.53                
C7-C6-C5=122.01                N9-C7-C6=113.40                H17-O8-C1=110.75               C10-N9-C7=118.56               
C11-N9-C7=127.76               C11-N9-C10=113.68              H19-C10-N9=108.42              H20-C10-N9=109.86              
H20-C10-H19=110.44             H21-C10-N9=109.85              H21-C10-H19=110.36             H21-C10-H20=107.91             

 selected dihedral angles (degree)
 ---------------------------------
C3-N2-C1-O8= 74.33            C3-N2-C1-H15=194.51           C3-N2-C1-H16=313.89           C6-N2-C1-O8=265.69            
C6-N2-C1-H15= 25.86           C6-N2-C1-H16=145.24           N4-C3-N2-C1=188.88            N4-C3-N2-C6=359.06            
H18-C3-N2-C1=  8.26           H18-C3-N2-C6=178.44           C5-N4-C3-N2=  0.75            C5-N4-C3-H18=181.37           
H25-N4-C3-N2=179.96           H25-N4-C3-H18=  0.57          C6-C5-N4-C3=359.74            C6-C5-N4-H25=180.55           
N13-C5-N4-C3=179.46           N13-C5-N4-H25=  0.27          C5-C6-N2-C1=171.13            C5-C6-N2-C3=  0.75            
C7-C6-N2-C1=350.27            C7-C6-N2-C3=179.90            N2-C6-C5-N4=359.70            N2-C6-C5-N13=179.96           
C7-C6-C5-N4=180.46            C7-C6-C5-N13=  0.71           N9-C7-C6-N2=180.18            N9-C7-C6-C5=359.21            
H17-O8-C1-N2=175.68           H17-O8-C1-H15= 59.06          H17-O8-C1-H16=294.18          C10-N9-C7-C6=180.14           
C11-N9-C7-C6=  0.10           H19-C10-N9-C7=  1.57          H19-C10-N9-C11=181.61         H20-C10-N9-C7=122.35          
H20-C10-N9-C11=302.38         H21-C10-N9-C7=240.90          H21-C10-N9-C11= 60.94         
           -------------------------------------------------
          |                Final Singlepoint                |
           -------------------------------------------------

          ...................................................
          :                      SETUP                      :
          :.................................................:
          :  # basis functions                  67          :
          :  # atomic orbitals                  67          :
          :  # shells                           39          :
          :  # electrons                        74          :
          :  max. iterations                   250          :
          :  Hamiltonian                  GFN2-xTB          :
          :  restarted?                      false          :
          :  GBSA solvation                  false          :
          :  PC potential                    false          :
          :  electronic temp.         5000.0000000     K    :
          :  accuracy                    1.0000000          :
          :  -> integral cutoff          0.2500000E+02      :
          :  -> integral neglect         0.1000000E-07      :
          :  -> SCF convergence          0.1000000E-05 Eh   :
          :  -> wf. convergence          0.1000000E-03 e    :
          :  Broyden damping             0.4000000          :
          ...................................................

 iter      E             dE          RMSdq      gap      omega  full diag
   1    -42.6693794 -0.426694E+02  0.599E-05    1.69       0.0  T
   2    -42.6693794 -0.129674E-10  0.344E-05    1.69     581.2  T
   3    -42.6693794  0.116174E-10  0.279E-05    1.69     715.9  T

   *** convergence criteria satisfied after 3 iterations ***

         #    Occupation            Energy/Eh            Energy/eV
      -------------------------------------------------------------
         1        2.0000           -0.9015568             -24.5326
       ...           ...                  ...                  ...
        31        1.9998           -0.6204737             -16.8839
        32        1.9992           -0.5976784             -16.2637
        33        1.9977           -0.5798269             -15.7779
        34        1.9976           -0.5793798             -15.7657
        35        1.9952           -0.5684851             -15.4693
        36        1.9851           -0.5503331             -14.9753
        37        1.7539           -0.5039416             -13.7129 (HOMO)
        38        0.2452           -0.4416813             -12.0188 (LUMO)
        39        0.0235           -0.4026453             -10.9565
        40        0.0031           -0.3706574             -10.0861
        41        0.0000           -0.2817381              -7.6665
        42                         -0.1945671              -5.2944
       ...                                ...                  ...
        67                          0.5396098              14.6835
      -------------------------------------------------------------
                  HL-Gap            0.0622603 Eh            1.6942 eV
             Fermi-level           -0.4728460 Eh          -12.8668 eV

 SCC (total)                   0 d,  0 h,  0 min,  0.020 sec
 SCC setup                      ...        0 min,  0.000 sec (  0.889%)
 Dispersion                     ...        0 min,  0.000 sec (  0.812%)
 classical contributions        ...        0 min,  0.000 sec (  0.317%)
 integral evaluation            ...        0 min,  0.004 sec ( 20.351%)
 iterations                     ...        0 min,  0.004 sec ( 21.442%)
 molecular gradient             ...        0 min,  0.011 sec ( 55.568%)
 printout                       ...        0 min,  0.000 sec (  0.586%)

         :::::::::::::::::::::::::::::::::::::::::::::::::::::
         ::                     SUMMARY                     ::
         :::::::::::::::::::::::::::::::::::::::::::::::::::::
         :: total energy             -42.162297394784 Eh    ::
         :: gradient norm              0.001633037366 Eh/a0 ::
         :: HOMO-LUMO gap              1.694188956730 eV    ::
         ::.................................................::
         :: SCC energy               -42.669379411851 Eh    ::
         :: -> isotropic ES            0.131347581600 Eh    ::
         :: -> anisotropic ES         -0.004394367223 Eh    ::
         :: -> anisotropic XC          0.011044387869 Eh    ::
         :: -> dispersion             -0.022211749979 Eh    ::
         :: repulsion energy           0.506986759215 Eh    ::
         :: add. restraining           0.000000000000 Eh    ::
         :: total charge               0.999999998919 e     ::
         :::::::::::::::::::::::::::::::::::::::::::::::::::::

           -------------------------------------------------
          |                Property Printout                |
           -------------------------------------------------

    * Orbital Energies and Occupations

         #    Occupation            Energy/Eh            Energy/eV
      -------------------------------------------------------------
         1        2.0000           -0.9015568             -24.5326
       ...           ...                  ...                  ...
        25        2.0000           -0.6669926             -18.1498
        26        2.0000           -0.6494355             -17.6720
        27        2.0000           -0.6451784             -17.5562
        28        1.9999           -0.6397400             -17.4082
        29        1.9999           -0.6309042             -17.1678
        30        1.9998           -0.6216572             -16.9162
        31        1.9998           -0.6204737             -16.8839
        32        1.9992           -0.5976784             -16.2637
        33        1.9977           -0.5798269             -15.7779
        34        1.9976           -0.5793798             -15.7657
        35        1.9952           -0.5684851             -15.4693
        36        1.9851           -0.5503331             -14.9753
        37        1.7539           -0.5039416             -13.7129 (HOMO)
        38        0.2452           -0.4416813             -12.0188 (LUMO)
        39        0.0235           -0.4026453             -10.9565
        40        0.0031           -0.3706574             -10.0861
        41        0.0000           -0.2817381              -7.6665
        42                         -0.1945671              -5.2944
        43                         -0.1909321              -5.1955
        44                         -0.1360445              -3.7020
        45                         -0.1114923              -3.0339
        46                         -0.0758054              -2.0628
        47                         -0.0675150              -1.8372
        48                         -0.0431153              -1.1732
       ...                                ...                  ...
        67                          0.5396098              14.6835
      -------------------------------------------------------------
                  HL-Gap            0.0622603 Eh            1.6942 eV
             Fermi-level           -0.4728460 Eh          -12.8668 eV

     #   Z          covCN         q      C6AA      α(0)
     1   6 C        3.615     0.122    19.046     6.298
     2   7 N        2.833     0.048    20.409     6.710
     3   6 C        3.044     0.062    26.560     8.453
     4   7 N        2.783    -0.057    22.335     7.019
     5   6 C        3.051     0.114    25.449     8.273
     6   6 C        3.112     0.028    27.214     8.546
     7   6 C        1.925    -0.115    34.312     9.460
     8   8 O        1.658    -0.415    21.150     6.208
     9   7 N        2.759     0.014    21.015     6.809
    10   6 C        3.718    -0.071    21.980     6.697
    11   6 C        2.732     0.309    21.758     7.637
    12   8 O        0.859    -0.361    20.908     6.131
    13   7 N        2.738    -0.047    22.142     6.989
    14   6 C        3.697    -0.070    22.019     6.712
    15   1 H        0.923     0.093     1.852     2.128
    16   1 H        0.923     0.072     2.069     2.249
    17   1 H        0.805     0.331     0.633     1.250
    18   1 H        0.926     0.124     1.581     1.966
    19   1 H        0.925     0.105     1.743     2.065
    20   1 H        0.925     0.101     1.772     2.082
    21   1 H        0.924     0.100     1.788     2.091
    22   1 H        0.925     0.080     1.978     2.200
    23   1 H        0.924     0.083     1.950     2.184
    24   1 H        0.925     0.124     1.578     1.964
    25   1 H        0.860     0.227     0.980     1.551

 Mol. C6AA /au·bohr⁶  :       6577.247989
 Mol. C8AA /au·bohr⁸  :     151432.610766
 Mol. α(0) /au        :        123.671064


Wiberg/Mayer (AO) data.
largest (>0.10) Wiberg bond orders for each atom

 ---------------------------------------------------------------------------
     #   Z sym  total        # sym  WBO       # sym  WBO       # sym  WBO
 ---------------------------------------------------------------------------
     1   6 C    3.925 --     8 O    1.015     2 N    0.967    16 H    0.955
                            15 H    0.955
     2   7 N    3.622 --     3 C    1.366     6 C    1.128     1 C    0.967
     3   6 C    3.787 --     2 N    1.366     4 N    1.273    18 H    0.953
     4   7 N    3.586 --     3 C    1.273     5 C    1.196    25 H    0.918
     5   6 C    3.908 --     6 C    1.290    13 N    1.228     4 N    1.196
     6   6 C    3.893 --     5 C    1.290     7 C    1.234     2 N    1.128
     7   6 C    2.801 --     9 N    1.375     6 C    1.234
     8   8 O    1.961 --     1 C    1.015    17 H    0.872
     9   7 N    3.627 --     7 C    1.375    11 C    1.068    10 C    0.978
                            12 O    0.115
    10   6 C    3.923 --     9 N    0.978    19 H    0.975    20 H    0.961
                            21 H    0.961
    11   6 C    3.936 --    12 O    1.714     9 N    1.068    13 N    1.052
    12   8 O    2.050 --    11 C    1.714    13 N    0.133     9 N    0.115
    13   7 N    3.562 --     5 C    1.228    11 C    1.052    14 C    0.974
                            12 O    0.133
    14   6 C    3.926 --    13 N    0.974    22 H    0.971    23 H    0.970
                            24 H    0.965
    15   1 H    0.990 --     1 C    0.955
    16   1 H    0.992 --     1 C    0.955
    17   1 H    0.889 --     8 O    0.872
    18   1 H    0.984 --     3 C    0.953
    19   1 H    0.988 --    10 C    0.975
    20   1 H    0.985 --    10 C    0.961
    21   1 H    0.985 --    10 C    0.961
    22   1 H    0.992 --    14 C    0.971
    23   1 H    0.991 --    14 C    0.970
    24   1 H    0.984 --    14 C    0.965
    25   1 H    0.947 --     4 N    0.918
 ---------------------------------------------------------------------------

Topologies differ in total number of bonds
Writing topology from bond orders to xtbtopo.mol

molecular dipole:
                 x           y           z       tot (Debye)
 q only:        2.357      -0.756       0.259
   full:        2.739      -1.338       0.264       7.777
molecular quadrupole (traceless):
                xx          xy          yy          xz          yz          zz
 q only:        8.064      -0.573      13.043       0.136       3.047     -21.107
  q+dip:        8.026      -1.289      13.453       1.235       2.784     -21.479
   full:        6.740      -0.887      12.615       1.062       2.200     -19.355

           -------------------------------------------------
          |                Geometry Summary                 |
           -------------------------------------------------

      molecular mass/u    :      195.1988581
   center of mass at/Å    :        0.1054069      -0.0796321      -0.0238338
  moments of inertia/u·Å² :        0.4165917E+03   0.9306970E+03   0.1289577E+04
rotational constants/cm⁻¹ :        0.4046560E-01   0.1811291E-01   0.1307222E-01

 * 25 selected distances

     #   Z          #   Z                                           value/Å
     1   6 C        2   7 N                                       1.4443136
     2   7 N        3   6 C                                       1.3331674
     3   6 C        4   7 N                                       1.3532496
     4   7 N        5   6 C                                       1.3602507
     2   7 N        6   6 C                                       1.3783479
     5   6 C        6   6 C                                       1.3978190
     1   6 C        8   8 O                                       1.3958043
     7   6 C        9   7 N                                       1.3315883
     9   7 N       10   6 C                                       1.4521679 (max)
     9   7 N       11   6 C                                       1.4036948
    11   6 C       12   8 O                                       1.1988004
     5   6 C       13   7 N                                       1.3421287
    11   6 C       13   7 N                                       1.4092076
    13   7 N       14   6 C                                       1.4499949
     1   6 C       15   1 H                                       1.0989310
     1   6 C       16   1 H                                       1.1008287
     8   8 O       17   1 H                                       0.9640307 (min)
     3   6 C       18   1 H                                       1.0713342
    10   6 C       19   1 H                                       1.0857990
    10   6 C       20   1 H                                       1.0900953
    10   6 C       21   1 H                                       1.0903001
    14   6 C       22   1 H                                       1.0898657
    14   6 C       23   1 H                                       1.0905101
    14   6 C       24   1 H                                       1.0893354
     4   7 N       25   1 H                                       1.0108554

 * 6 distinct bonds (by element types)

   Z      Z             #   av. dist./Å        max./Å        min./Å
   1 H    6 C           9     1.0896666     1.1008287     1.0713342
   6 C    6 C           1     1.3978190     1.3978190     1.3978190
   1 H    7 N           1     1.0108554     1.0108554     1.0108554
   6 C    7 N          11     1.3871010     1.4521679     1.3315883
   1 H    8 O           1     0.9640307     0.9640307     0.9640307
   6 C    8 O           2     1.2973023     1.3958043     1.1988004


optimized geometry written to: xtbopt.xyz


           -------------------------------------------------
          | TOTAL ENERGY              -42.162297394784 Eh   |
          | GRADIENT NORM               0.001633037366 Eh/α |
          | HOMO-LUMO GAP               1.694188956730 eV   |
           -------------------------------------------------

------------------------------------------------------------------------
 * finished run on 2024/06/05 at 20:00:15.820     
------------------------------------------------------------------------
 total:
 * wall-time:     0 d,  0 h,  0 min,  0.137 sec
 *  cpu-time:     0 d,  0 h,  0 min,  0.109 sec
 * ratio c/w:     0.800 speedup
 SCF:
 * wall-time:     0 d,  0 h,  0 min,  0.024 sec
 *  cpu-time:     0 d,  0 h,  0 min,  0.024 sec
 * ratio c/w:     0.997 speedup
 ANC optimizer:
 * wall-time:     0 d,  0 h,  0 min,  0.079 sec
 *  cpu-time:     0 d,  0 h,  0 min,  0.073 sec
 * ratio c/w:     0.922 speedup

