25
 energy: -42.456615164370 xtb: 6.6.1 (8d0f1dd)
C            3.24833724265403        1.21393284700371        0.12481762328872
N            2.30297322144645        0.13693120884574        0.00346526571171
C            2.57055739332353       -1.15801465526594       -0.06465971058965
N            1.43921433339968       -1.86655966044426       -0.16770324620413
C            0.37175189741407       -0.98706869737706       -0.15717111277602
C            0.92869212981862        0.30890312303532       -0.05866145069798
C            0.13739413593940        1.47507118609370       -0.02229730921482
O            0.53230721577168        2.63986161987311        0.05326472663377
N           -1.23572053771462        1.14753716544982       -0.09783486475597
C           -2.17882800965549        2.25778881715438       -0.05098465229859
C           -1.81087218458888       -0.09011747068216       -0.17549800814722
O           -3.00889605777957       -0.24567165971388       -0.21809993518397
N           -0.94451182552562       -1.24338739878929       -0.21346141579181
C           -1.50939396064883       -2.46791867540182       -0.28992269566671
H            3.71618673125842        1.19883927273313        1.11085362410990
H            4.02220083890394        1.12728172332744       -0.63814710179575
H            2.70461319613732        2.15181132177510        0.00342819595813
H            3.55699774781551       -1.57836797681053       -0.05317458245507
H           -1.60189076354759        3.17928654796163       -0.00655526763755
H           -2.80778087191871        2.24582581428198       -0.93941622135141
H           -2.81946568147085        2.17110724055573        0.82638713320493
H           -1.61832523056569       -4.94999653010018        1.62536825461341
H           -0.91342892667660       -3.35362323099305       -0.26336474232523
H           -2.57821083897609       -2.49526879051955       -0.31658647107643
H            1.36983318188487       -2.87172113001863       -0.21395338914096
