      -----------------------------------------------------------      
     |                   =====================                   |     
     |                           x T B                           |     
     |                   =====================                   |     
     |                         S. Grimme                         |     
     |          Mulliken Center for Theoretical Chemistry        |     
     |                    University of Bonn                     |     
      -----------------------------------------------------------      

   * xtb version 6.6.1 (8d0f1dd) compiled by 'conda@1efc2f54142f' on 2023-08-01

   xtb is free software: you can redistribute it and/or modify it under
   the terms of the GNU Lesser General Public License as published by
   the Free Software Foundation, either version 3 of the License, or
   (at your option) any later version.
   
   xtb is distributed in the hope that it will be useful,
   but WITHOUT ANY WARRANTY; without even the implied warranty of
   MERCHANTABILITY or FITNESS FOR A PARTICULAR PURPOSE.  See the
   GNU Lesser General Public License for more details.
   
   Cite this work as:
   * C. Bannwarth, E. Caldeweyher, S. Ehlert, A. Hansen, P. Pracht,
     J. Seibert, S. Spicher, S. Grimme, WIREs Comput. Mol. Sci., 2020, 11,
     e01493. DOI: 10.1002/wcms.1493
   
   for GFN2-xTB:
   * C. Bannwarth, S. Ehlert and S. Grimme., J. Chem. Theory Comput., 2019,
     15, 1652-1671. DOI: 10.1021/acs.jctc.8b01176
   for GFN1-xTB:
   * S. Grimme, C. Bannwarth, P. Shushkov, J. Chem. Theory Comput., 2017,
     13, 1989-2009. DOI: 10.1021/acs.jctc.7b00118
   for GFN0-xTB:
   * P. Pracht, E. Caldeweyher, S. Ehlert, S. Grimme, ChemRxiv, 2019, preprint.
     DOI: 10.26434/chemrxiv.8326202.v1
   for GFN-FF:
   * S. Spicher and S. Grimme, Angew. Chem. Int. Ed., 2020, 59, 15665-15673.
     DOI: 10.1002/anie.202004239
   
   for ALPB and GBSA implicit solvation:
   * S. Ehlert, M. Stahn, S. Spicher, S. Grimme, J. Chem. Theory Comput.,
     2021, 17, 4250-4261. DOI: 10.1021/acs.jctc.1c00471
   
   for DFT-D4:
   * E. Caldeweyher, C. Bannwarth and S. Grimme, J. Chem. Phys., 2017,
     147, 034112. DOI: 10.1063/1.4993215
   * E. Caldeweyher, S. Ehlert, A. Hansen, H. Neugebauer, S. Spicher,
     C. Bannwarth and S. Grimme, J. Chem. Phys., 2019, 150, 154122.
     DOI: 10.1063/1.5090222
   * E. Caldeweyher, J.-M. Mewes, S. Ehlert and S. Grimme, Phys. Chem. Chem. Phys.
     2020, 22, 8499-8512. DOI: 10.1039/D0CP00502A
   
   for sTDA-xTB:
   * S. Grimme and C. Bannwarth, J. Chem. Phys., 2016, 145, 054103.
     DOI: 10.1063/1.4959605
   
   in the mass-spec context:
   * V. Asgeirsson, C. Bauer and S. Grimme, Chem. Sci., 2017, 8, 4879.
     DOI: 10.1039/c7sc00601b
   * J. Koopman and S. Grimme, ACS Omega 2019, 4, 12, 15120-15133.
     DOI: 10.1021/acsomega.9b02011
   
   for metadynamics refer to:
   * S. Grimme, J. Chem. Theory Comput., 2019, 155, 2847-2862
     DOI: 10.1021/acs.jctc.9b00143
   
   for SPH calculations refer to:
   * S. Spicher and S. Grimme, J. Chem. Theory Comput., 2021, 17, 1701-1714
     DOI: 10.1021/acs.jctc.0c01306
   
   with help from (in alphabetical order)
   P. Atkinson, C. Bannwarth, F. Bohle, G. Brandenburg, E. Caldeweyher
   M. Checinski, S. Dohm, S. Ehlert, S. Ehrlich, I. Gerasimov, C. Hölzer
   A. Katbashev, J. Koopman, C. Lavigne, S. Lehtola, F. März, M. Müller,
   F. Musil, H. Neugebauer, J. Pisarek, C. Plett, P. Pracht, F. Pultar,
   J. Seibert, P. Shushkov, S. Spicher, M. Stahn, M. Steiner, T. Strunk,
   J. Stückrath, T. Rose, and J. Unsleber
   
 * started run on 2024/06/05 at 20:00:14.045     

           -------------------------------------------------
          |                Calculation Setup                |
           -------------------------------------------------

          program call               : xtb struc.xyz --opt loose --input .xc1 --gfn2
          hostname                   : n-62-11-66
          coordinate file            : struc.xyz
          omp threads                :                     1

   ID    Z sym.   atoms
    1    6 C      1, 3, 5-7, 10, 11, 14
    2    7 N      2, 4, 9, 13
    3    8 O      8, 12
    4    1 H      15-25
constraining bond 8 11 to    5.7600000 Å, actual value:    3.5880572 Å

           -------------------------------------------------
          |                 G F N 2 - x T B                 |
           -------------------------------------------------

        Reference                      10.1021/acs.jctc.8b01176
      * Hamiltonian:
        H0-scaling (s, p, d)           1.850000    2.230000    2.230000
        zeta-weighting                 0.500000
      * Dispersion:
        s8                             2.700000
        a1                             0.520000
        a2                             5.000000
        s9                             5.000000
      * Repulsion:
        kExp                           1.500000    1.000000
        rExp                           1.000000
      * Coulomb:
        alpha                          2.000000
        third order                    shell-resolved
        anisotropic                    true
        a3                             3.000000
        a5                             4.000000
        cn-shift                       1.200000
        cn-exp                         4.000000
        max-rad                        5.000000


          ...................................................
          :                      SETUP                      :
          :.................................................:
          :  # basis functions                  67          :
          :  # atomic orbitals                  67          :
          :  # shells                           39          :
          :  # electrons                        74          :
          :  max. iterations                   250          :
          :  Hamiltonian                  GFN2-xTB          :
          :  restarted?                      false          :
          :  GBSA solvation                  false          :
          :  PC potential                    false          :
          :  electronic temp.         5000.0000000     K    :
          :  accuracy                    1.0000000          :
          :  -> integral cutoff          0.2500000E+02      :
          :  -> integral neglect         0.1000000E-07      :
          :  -> SCF convergence          0.1000000E-05 Eh   :
          :  -> wf. convergence          0.1000000E-03 e    :
          :  Broyden damping             0.4000000          :
          ...................................................

 iter      E             dE          RMSdq      gap      omega  full diag
   1    -42.5894031 -0.425894E+02  0.445E+00    3.52       0.0  T
   2    -42.7683054 -0.178902E+00  0.251E+00    3.36       1.0  T
   3    -42.7759211 -0.761567E-02  0.147E+00    3.35       1.0  T
   4    -42.7728404  0.308066E-02  0.553E-01    3.33       1.0  T
   5    -42.7789548 -0.611444E-02  0.112E-01    3.35       1.0  T
   6    -42.7790473 -0.924914E-04  0.614E-02    3.33       1.0  T
   7    -42.7790721 -0.247928E-04  0.258E-02    3.34       1.0  T
   8    -42.7790772 -0.508996E-05  0.938E-03    3.34       2.1  T
   9    -42.7790779 -0.669422E-06  0.448E-03    3.34       4.5  T
  10    -42.7790780 -0.821510E-07  0.115E-03    3.34      17.4  T
  11    -42.7790780 -0.322663E-08  0.553E-04    3.34      36.2  T
  12    -42.7790780 -0.287051E-08  0.180E-04    3.34     111.1  T

   *** convergence criteria satisfied after 12 iterations ***

         #    Occupation            Energy/Eh            Energy/eV
      -------------------------------------------------------------
         1        2.0000           -0.9185990             -24.9964
       ...           ...                  ...                  ...
        31        1.9996           -0.6230278             -16.9534
        32        1.9995           -0.6194601             -16.8564
        33        1.9979           -0.5974976             -16.2587
        34        1.9932           -0.5789629             -15.7544
        35        1.9817           -0.5631863             -15.3251
        36        1.9779           -0.5602245             -15.2445
        37        1.9748           -0.5581234             -15.1873 (HOMO)
        38        0.0652           -0.4353579             -11.8467 (LUMO)
        39        0.0099           -0.4050467             -11.0219
        40        0.0013           -0.3732218             -10.1559
        41        0.0000           -0.2886859              -7.8555
        42                         -0.2065804              -5.6213
       ...                                ...                  ...
        67                          0.5625656              15.3082
      -------------------------------------------------------------
                  HL-Gap            0.1227656 Eh            3.3406 eV
             Fermi-level           -0.4890455 Eh          -13.3076 eV

 SCC (total)                   0 d,  0 h,  0 min,  0.034 sec
 SCC setup                      ...        0 min,  0.000 sec (  0.890%)
 Dispersion                     ...        0 min,  0.000 sec (  1.020%)
 classical contributions        ...        0 min,  0.000 sec (  0.283%)
 integral evaluation            ...        0 min,  0.006 sec ( 18.081%)
 iterations                     ...        0 min,  0.016 sec ( 45.749%)
 molecular gradient             ...        0 min,  0.012 sec ( 33.527%)
 printout                       ...        0 min,  0.000 sec (  0.425%)

         :::::::::::::::::::::::::::::::::::::::::::::::::::::
         ::                     SUMMARY                     ::
         :::::::::::::::::::::::::::::::::::::::::::::::::::::
         :: total energy              -8.556043439344 Eh    ::
         :: gradient norm             23.218565160835 Eh/a0 ::
         :: HOMO-LUMO gap              3.340621582928 eV    ::
         ::.................................................::
         :: SCC energy               -42.779077977399 Eh    ::
         :: -> isotropic ES            0.141123876439 Eh    ::
         :: -> anisotropic ES         -0.005230418907 Eh    ::
         :: -> anisotropic XC          0.011966818540 Eh    ::
         :: -> dispersion             -0.022657731803 Eh    ::
         :: repulsion energy           0.531105277918 Eh    ::
         :: add. restraining          33.691815101128 Eh    ::
         :: total charge               1.000000000002 e     ::
         :::::::::::::::::::::::::::::::::::::::::::::::::::::

      ----------------------------------------------------------- 
     |                   =====================                   |
     |                        A N C O P T                        |
     |                   =====================                   |
     |               Approximate Normal Coordinate               |
     |                Rational Function Optimizer                |
      ----------------------------------------------------------- 

          ...................................................
          :                      SETUP                      :
          :.................................................:
          :   optimization level             loose          :
          :   max. optcycles                   200          :
          :   ANC micro-cycles                  20          :
          :   degrees of freedom                69          :
          :.................................................:
          :   RF solver                   davidson          :
          :   write xtbopt.log                true          :
          :   linear?                        false          :
          :   energy convergence         0.5000000E-04 Eh   :
          :   grad. convergence          0.4000000E-02 Eh/α :
          :   maxmium RF displ.          1.0000000          :
          :   Hlow (freq-cutoff)         0.1000000E-01      :
          :   Hmax (freq-cutoff)         5.0000000          :
          :   S6 in model hess.         20.0000000          :
          ...................................................

generating ANC from model Hessian ...
Using Lindh-Hessian (1995)
 Shifting diagonal of input Hessian by    4.4787946226699606     
 Lowest  eigenvalues of input Hessian
    0.010000    0.475003    0.000000    0.000000    0.000000    0.000000
    0.000000    0.000000    4.481555    4.483165    4.487677    4.487881
    4.489035    4.490403    4.490662    4.497133    4.502036    4.505278
 Highest eigenvalues
    6.584379    6.631617    6.694121    6.745453    6.828268   13.779192


........................................................................
.............................. CYCLE    1 ..............................
........................................................................

 iter      E             dE          RMSdq      gap      omega  full diag
   1    -42.7790780 -0.427791E+02  0.626E-05    3.34       0.0  T
   2    -42.7790780 -0.124416E-10  0.329E-05    3.34     607.4  T
   3    -42.7790780  0.127898E-12  0.193E-05    3.34    1034.2  T
     SCC iter.                  ...        0 min,  0.004 sec
     gradient                   ...        0 min,  0.012 sec
 * total energy  :    -8.5560434 Eh     change       -0.6650680E-10 Eh
   gradient norm :    23.2185650 Eh/α   predicted     0.0000000E+00 (-100.00%)
   displ. norm   :     0.8981130 α      lambda       -0.2085288E+02
   maximum displ.:     0.8908023 α      in ANC's #45, #63, #61, ...

........................................................................
.............................. CYCLE    2 ..............................
........................................................................

 iter      E             dE          RMSdq      gap      omega  full diag
   1    -42.5826739 -0.425827E+02  0.194E+00    2.58       0.0  T
   2    -42.6572237 -0.745498E-01  0.125E+00    1.85       1.0  T
   3    -42.6753556 -0.181319E-01  0.694E-01    2.57       1.0  T
   4    -42.6777419 -0.238629E-02  0.524E-01    2.09       1.0  T
   5    -42.6796486 -0.190666E-02  0.274E-01    2.33       1.0  T
   6    -42.6808990 -0.125043E-02  0.721E-02    2.25       1.0  T
   7    -42.6810111 -0.112092E-03  0.253E-02    2.28       1.0  T
   8    -42.6810148 -0.367453E-05  0.120E-02    2.28       1.7  T
   9    -42.6810162 -0.148081E-05  0.503E-03    2.28       4.0  T
  10    -42.6810164 -0.114595E-06  0.256E-03    2.28       7.8  T
  11    -42.6810164 -0.318630E-07  0.117E-03    2.28      17.1  T
  12    -42.6810164 -0.107505E-07  0.408E-04    2.28      49.0  T
  13    -42.6810164 -0.595740E-09  0.182E-04    2.28     110.1  T
     SCC iter.                  ...        0 min,  0.016 sec
     gradient                   ...        0 min,  0.011 sec
 * total energy  :   -25.9458908 Eh     change       -0.1738985E+02 Eh
   gradient norm :    15.5669782 Eh/α   predicted    -0.1883648E+02 (   8.32%)
   displ. norm   :     0.7712867 α      lambda       -0.1193584E+02
   maximum displ.:     0.7487483 α      in ANC's #45, #63, #61, ...

........................................................................
.............................. CYCLE    3 ..............................
........................................................................

 iter      E             dE          RMSdq      gap      omega  full diag
   1    -42.5088114 -0.425088E+02  0.139E+00    1.72       0.0  T
   2    -42.5240781 -0.152667E-01  0.101E+00    1.85       1.0  T
   3    -42.5329549 -0.887677E-02  0.678E-01    1.49       1.0  T
   4    -42.5333518 -0.396922E-03  0.574E-01    2.01       1.0  T
   5    -42.5415219 -0.817003E-02  0.248E-01    1.62       1.0  T
   6    -42.5427827 -0.126083E-02  0.595E-02    1.71       1.0  T
   7    -42.5428216 -0.389057E-04  0.321E-02    1.70       1.0  T
   8    -42.5428385 -0.169463E-04  0.135E-02    1.70       1.5  T
   9    -42.5428389 -0.378394E-06  0.595E-03    1.70       3.4  T
  10    -42.5428394 -0.499264E-06  0.292E-03    1.70       6.8  T
  11    -42.5428395 -0.536266E-07  0.127E-03    1.70      15.8  T
  12    -42.5428395 -0.132399E-07  0.559E-04    1.70      35.8  T
  13    -42.5428395 -0.174617E-08  0.224E-04    1.70      89.5  T
     SCC iter.                  ...        0 min,  0.016 sec
     gradient                   ...        0 min,  0.011 sec
 * total energy  :   -35.6119014 Eh     change       -0.9666011E+01 Eh
   gradient norm :     9.6012454 Eh/α   predicted    -0.9542429E+01 (  -1.28%)
   displ. norm   :     0.7068690 α      lambda       -0.6663815E+01
   maximum displ.:     0.6453927 α      in ANC's #45, #63, #2, ...

........................................................................
.............................. CYCLE    4 ..............................
........................................................................

 iter      E             dE          RMSdq      gap      omega  full diag
   1    -42.2045147 -0.422045E+02  0.227E+00    0.76       0.0  T
   2    -41.9627136  0.241801E+00  0.339E+00    2.78       1.0  T
   3    -42.3644658 -0.401752E+00  0.102E+00    1.61       1.0  T
   4    -42.3761270 -0.116612E-01  0.721E-01    1.77       1.0  T
   5    -42.3924040 -0.162770E-01  0.270E-01    1.39       1.0  T
   6    -42.3930454 -0.641407E-03  0.182E-01    1.46       1.0  T
   7    -42.3936705 -0.625095E-03  0.957E-02    1.50       1.0  T
   8    -42.3938849 -0.214351E-03  0.514E-02    1.44       1.0  T
   9    -42.3939925 -0.107601E-03  0.172E-02    1.46       1.2  T
  10    -42.3939976 -0.511882E-05  0.907E-03    1.46       2.2  T
  11    -42.3939995 -0.186654E-05  0.391E-03    1.46       5.1  T
  12    -42.3939997 -0.201697E-06  0.192E-03    1.46      10.4  T
  13    -42.3939996  0.695081E-07  0.179E-03    1.46      11.2  T
  14    -42.3939997 -0.113064E-06  0.433E-04    1.46      46.2  T
  15    -42.3939997 -0.242142E-08  0.233E-04    1.46      86.0  T
     SCC iter.                  ...        0 min,  0.018 sec
     gradient                   ...        0 min,  0.011 sec
 * total energy  :   -40.4955687 Eh     change       -0.4883667E+01 Eh
   gradient norm :     4.4620411 Eh/α   predicted    -0.4996745E+01 (   2.32%)
   displ. norm   :     0.4685017 α      lambda       -0.2082232E+01
   maximum displ.:     0.4518331 α      in ANC's #45, #63, #2, ...

........................................................................
.............................. CYCLE    5 ..............................
........................................................................

 iter      E             dE          RMSdq      gap      omega  full diag
   1    -42.1564598 -0.421565E+02  0.197E+00    0.65       0.0  T
   2    -41.7375784  0.418881E+00  0.362E+00    2.23       1.0  T
   3    -42.2628135 -0.525235E+00  0.116E+00    1.53       1.0  T
   4    -42.2863586 -0.235451E-01  0.761E-01    1.61       1.0  T
   5    -42.3055351 -0.191765E-01  0.348E-01    1.22       1.0  T
   6    -42.3056685 -0.133388E-03  0.284E-01    1.20       1.0  T
   7    -42.3084463 -0.277779E-02  0.146E-01    1.37       1.0  T
   8    -42.3093299 -0.883554E-03  0.479E-02    1.28       1.0  T
   9    -42.3094355 -0.105644E-03  0.113E-02    1.30       1.8  T
  10    -42.3094373 -0.175145E-05  0.421E-03    1.30       4.7  T
  11    -42.3094375 -0.195621E-06  0.195E-03    1.30      10.2  T
  12    -42.3094375 -0.484944E-07  0.862E-04    1.30      23.2  T
  13    -42.3094375  0.306670E-09  0.609E-04    1.30      32.8  T
     SCC iter.                  ...        0 min,  0.016 sec
     gradient                   ...        0 min,  0.011 sec
 * total energy  :   -41.7369587 Eh     change       -0.1241390E+01 Eh
   gradient norm :     0.8547208 Eh/α   predicted    -0.1269644E+01 (   2.28%)
   displ. norm   :     0.1464741 α      lambda       -0.1051190E+00
   maximum displ.:     0.0995070 α      in ANC's #45, #2, #62, ...

........................................................................
.............................. CYCLE    6 ..............................
........................................................................

 iter      E             dE          RMSdq      gap      omega  full diag
   1    -42.2525338 -0.422525E+02  0.988E-01    0.82       0.0  T
   2    -42.0445384  0.207995E+00  0.226E+00    2.14       1.0  T
   3    -42.2590780 -0.214540E+00  0.888E-01    1.01       1.0  T
   4    -42.2832777 -0.241997E-01  0.374E-01    1.27       1.0  T
   5    -42.2877526 -0.447495E-02  0.137E-01    1.20       1.0  T
   6    -42.2880197 -0.267056E-03  0.915E-02    1.12       1.0  T
   7    -42.2883181 -0.298445E-03  0.252E-02    1.16       1.0  T
   8    -42.2883351 -0.169852E-04  0.134E-02    1.15       1.5  T
   9    -42.2883399 -0.483502E-05  0.459E-03    1.16       4.4  T
  10    -42.2883400 -0.225082E-07  0.270E-03    1.16       7.4  T
  11    -42.2883401 -0.193740E-06  0.157E-03    1.16      12.8  T
  12    -42.2883402 -0.973802E-07  0.358E-04    1.16      55.9  T
  13    -42.2883402 -0.229786E-08  0.144E-04    1.16     138.7  T
     SCC iter.                  ...        0 min,  0.016 sec
     gradient                   ...        0 min,  0.011 sec
 * total energy  :   -41.7930436 Eh     change       -0.5608490E-01 Eh
   gradient norm :     0.1760819 Eh/α   predicted    -0.5369208E-01 (  -4.27%)
   displ. norm   :     0.2295427 α      lambda       -0.8118363E-02
   maximum displ.:     0.2254054 α      in ANC's #1, #61, #62, ...

........................................................................
.............................. CYCLE    7 ..............................
........................................................................

 iter      E             dE          RMSdq      gap      omega  full diag
   1    -42.2887105 -0.422887E+02  0.484E-01    0.89       0.0  T
   2    -42.2356111  0.530995E-01  0.109E+00    1.61       1.0  T
   3    -42.2779965 -0.423855E-01  0.641E-01    0.86       1.0  T
   4    -42.2944356 -0.164391E-01  0.183E-01    1.06       1.0  T
   5    -42.2950782 -0.642506E-03  0.992E-02    1.03       1.0  T
   6    -42.2950900 -0.118236E-04  0.596E-02    1.02       1.0  T
   7    -42.2952464 -0.156385E-03  0.116E-02    1.04       1.7  T
   8    -42.2952508 -0.445745E-05  0.413E-03    1.04       4.8  T
   9    -42.2952512 -0.420061E-06  0.246E-03    1.04       8.1  T
  10    -42.2952515 -0.240422E-06  0.518E-04    1.04      38.6  T
  11    -42.2952515  0.177181E-09  0.343E-04    1.04      58.3  T
     SCC iter.                  ...        0 min,  0.014 sec
     gradient                   ...        0 min,  0.011 sec
 * total energy  :   -41.8019049 Eh     change       -0.8861325E-02 Eh
   gradient norm :     0.1851217 Eh/α   predicted    -0.4273764E-02 ( -51.77%)
   displ. norm   :     0.5837896 α      lambda       -0.1398946E-01
   maximum displ.:     0.5822669 α      in ANC's #1, #2, #61, ...

........................................................................
.............................. CYCLE    8 ..............................
........................................................................

 iter      E             dE          RMSdq      gap      omega  full diag
   1    -42.0865953 -0.420866E+02  0.216E+00    0.02       0.0  T
   2    -41.4130649  0.673530E+00  0.422E+00    1.76       1.0  T
   3    -42.2150358 -0.801971E+00  0.138E+00    1.43       1.0  T
   4    -42.2838040 -0.687682E-01  0.439E-01    0.94       1.0  T
   5    -42.2827436  0.106045E-02  0.450E-01    0.58       1.0  T
   6    -42.2906781 -0.793453E-02  0.166E-01    0.79       1.0  T
   7    -42.2912304 -0.552265E-03  0.107E-01    0.73       1.0  T
   8    -42.2916609 -0.430501E-03  0.396E-02    0.78       1.0  T
   9    -42.2917244 -0.635105E-04  0.106E-02    0.77       1.9  T
  10    -42.2917281 -0.372195E-05  0.303E-03    0.77       6.6  T
  11    -42.2917266  0.145227E-05  0.585E-03    0.77       3.4  T
  12    -42.2917282 -0.156762E-05  0.628E-04    0.77      31.9  T
  13    -42.2917282  0.295769E-07  0.934E-04    0.77      21.4  T
  14    -42.2917282 -0.396518E-07  0.103E-04    0.77     194.9  T
     SCC iter.                  ...        0 min,  0.017 sec
     gradient                   ...        0 min,  0.011 sec
 * total energy  :   -41.8094992 Eh     change       -0.7594291E-02 Eh
   gradient norm :     0.4025245 Eh/α   predicted    -0.9378909E-02 (  23.50%)
   displ. norm   :     0.1332664 α      lambda       -0.2763776E-01
   maximum displ.:     0.1002765 α      in ANC's #2, #61, #68, ...

........................................................................
.............................. CYCLE    9 ..............................
........................................................................

 iter      E             dE          RMSdq      gap      omega  full diag
   1    -42.3139682 -0.423140E+02  0.481E-01    0.86       0.0  T
   2    -42.0687212  0.245247E+00  0.234E+00    0.03       1.0  T
   3    -42.3168920 -0.248171E+00  0.366E-01    0.90       1.0  T
   4    -42.3223303 -0.543828E-02  0.122E-01    0.75       1.0  T
   5    -42.3221347  0.195570E-03  0.110E-01    0.78       1.0  T
   6    -42.3225483 -0.413532E-03  0.353E-02    0.74       1.0  T
   7    -42.3225789 -0.306817E-04  0.109E-02    0.74       1.8  T
   8    -42.3225809 -0.196128E-05  0.407E-03    0.75       4.9  T
   9    -42.3225809  0.196864E-07  0.282E-03    0.75       7.1  T
  10    -42.3225812 -0.300374E-06  0.825E-04    0.75      24.3  T
  11    -42.3225812 -0.117194E-07  0.420E-04    0.75      47.6  T
     SCC iter.                  ...        0 min,  0.014 sec
     gradient                   ...        0 min,  0.011 sec
 * total energy  :   -41.8305744 Eh     change       -0.2107524E-01 Eh
   gradient norm :     0.1624325 Eh/α   predicted    -0.1406464E-01 ( -33.26%)
   displ. norm   :     0.4791598 α      lambda       -0.3074134E-01
   maximum displ.:     0.3887155 α      in ANC's #1, #2, #61, ...

........................................................................
.............................. CYCLE   10 ..............................
........................................................................

 iter      E             dE          RMSdq      gap      omega  full diag
   1    -42.2879956 -0.422880E+02  0.136E+00    0.04       0.0  T
   2    -41.8175129  0.470483E+00  0.317E+00    2.28       1.0  T
   3    -42.3092050 -0.491692E+00  0.115E+00    0.31       1.0  T
   4    -42.3429257 -0.337208E-01  0.640E-01    0.70       1.0  T
   5    -42.3565970 -0.136712E-01  0.214E-01    0.52       1.0  T
   6    -42.3532293  0.336761E-02  0.277E-01    0.41       1.0  T
   7    -42.3569014 -0.367209E-02  0.675E-02    0.50       1.0  T
   8    -42.3570814 -0.179974E-03  0.251E-02    0.53       1.0  T
   9    -42.3571083 -0.268980E-04  0.673E-03    0.52       3.0  T
  10    -42.3571097 -0.139878E-05  0.192E-03    0.52      10.4  T
  11    -42.3571098 -0.808689E-07  0.785E-04    0.52      25.5  T
  12    -42.3571098 -0.404034E-08  0.354E-04    0.52      56.5  T
     SCC iter.                  ...        0 min,  0.015 sec
     gradient                   ...        0 min,  0.012 sec
 * total energy  :   -41.8478004 Eh     change       -0.1722597E-01 Eh
   gradient norm :     0.1495934 Eh/α   predicted    -0.1889975E-01 (   9.72%)
   displ. norm   :     0.1107040 α      lambda       -0.6788258E-02
   maximum displ.:     0.0761129 α      in ANC's #2, #1, #61, ...

........................................................................
.............................. CYCLE   11 ..............................
........................................................................

 iter      E             dE          RMSdq      gap      omega  full diag
   1    -42.3647639 -0.423648E+02  0.468E-01    0.71       0.0  T
   2    -42.0515117  0.313252E+00  0.255E+00    0.01       1.0  T
   3    -42.3745847 -0.323073E+00  0.164E-01    0.53       1.0  T
   4    -42.3751600 -0.575286E-03  0.741E-02    0.54       1.0  T
   5    -42.3751796 -0.196234E-04  0.583E-02    0.50       1.0  T
   6    -42.3752701 -0.905150E-04  0.184E-02    0.52       1.1  T
   7    -42.3752770 -0.681098E-05  0.674E-03    0.52       3.0  T
   8    -42.3752783 -0.137166E-05  0.216E-03    0.52       9.3  T
   9    -42.3752784 -0.730712E-07  0.110E-03    0.52      18.2  T
  10    -42.3752784 -0.197124E-07  0.300E-04    0.52      66.6  T
  11    -42.3752784 -0.531934E-09  0.155E-04    0.52     129.4  T
     SCC iter.                  ...        0 min,  0.014 sec
     gradient                   ...        0 min,  0.011 sec
 * total energy  :   -41.8513816 Eh     change       -0.3581219E-02 Eh
   gradient norm :     0.1415975 Eh/α   predicted    -0.3435911E-02 (  -4.06%)
   displ. norm   :     0.2141871 α      lambda       -0.7601781E-02
   maximum displ.:     0.1607154 α      in ANC's #1, #2, #61, ...

........................................................................
.............................. CYCLE   12 ..............................
........................................................................

 iter      E             dE          RMSdq      gap      omega  full diag
   1    -42.3651371 -0.423651E+02  0.561E-01    0.22       0.0  T
   2    -42.1446699  0.220467E+00  0.208E+00    1.46       1.0  T
   3    -42.3755128 -0.230843E+00  0.256E-01    0.40       1.0  T
   4    -42.3764452 -0.932395E-03  0.162E-01    0.42       1.0  T
   5    -42.3766761 -0.230872E-03  0.890E-02    0.42       1.0  T
   6    -42.3768772 -0.201110E-03  0.314E-02    0.42       1.0  T
   7    -42.3769223 -0.451114E-04  0.611E-03    0.43       3.3  T
   8    -42.3769218  0.482844E-06  0.483E-03    0.43       4.1  T
   9    -42.3769226 -0.731789E-06  0.197E-03    0.43      10.1  T
  10    -42.3769227 -0.144625E-06  0.507E-04    0.43      39.5  T
  11    -42.3769227 -0.244950E-08  0.290E-04    0.43      68.9  T
     SCC iter.                  ...        0 min,  0.014 sec
     gradient                   ...        0 min,  0.011 sec
 * total energy  :   -41.8576428 Eh     change       -0.6261164E-02 Eh
   gradient norm :     0.1014442 Eh/α   predicted    -0.3975369E-02 ( -36.51%)
   displ. norm   :     0.3031465 α      lambda       -0.9611486E-02
   maximum displ.:     0.2044529 α      in ANC's #1, #2, #16, ...

........................................................................
.............................. CYCLE   13 ..............................
........................................................................

 iter      E             dE          RMSdq      gap      omega  full diag
   1    -42.3545694 -0.423546E+02  0.721E-01    0.06       0.0  T
   2    -42.0259522  0.328617E+00  0.251E+00    1.58       1.0  T
   3    -42.3716529 -0.345701E+00  0.297E-01    0.26       1.0  T
   4    -42.3722023 -0.549377E-03  0.196E-01    0.28       1.0  T
   5    -42.3725534 -0.351082E-03  0.974E-02    0.29       1.0  T
   6    -42.3728298 -0.276428E-03  0.360E-02    0.29       1.0  T
   7    -42.3728894 -0.596446E-04  0.894E-03    0.30       2.2  T
   8    -42.3728892  0.252387E-06  0.600E-03    0.30       3.3  T
   9    -42.3728904 -0.121740E-05  0.165E-03    0.30      12.1  T
  10    -42.3728905 -0.519260E-07  0.712E-04    0.30      28.1  T
  11    -42.3728905  0.714277E-08  0.585E-04    0.30      34.2  T
     SCC iter.                  ...        0 min,  0.014 sec
     gradient                   ...        0 min,  0.011 sec
 * total energy  :   -41.8630137 Eh     change       -0.5370955E-02 Eh
   gradient norm :     0.0830236 Eh/α   predicted    -0.5247400E-02 (  -2.30%)
   displ. norm   :     0.0618173 α      lambda       -0.2506654E-02
   maximum displ.:     0.0306474 α      in ANC's #2, #1, #16, ...

........................................................................
.............................. CYCLE   14 ..............................
........................................................................

 iter      E             dE          RMSdq      gap      omega  full diag
   1    -42.3769478 -0.423769E+02  0.147E-01    0.36       0.0  T
   2    -42.3542314  0.227164E-01  0.665E-01    0.05       1.0  T
   3    -42.3777822 -0.235508E-01  0.672E-02    0.30       1.0  T
   4    -42.3778729 -0.907938E-04  0.337E-02    0.30       1.0  T
   5    -42.3778766 -0.362305E-05  0.235E-02    0.29       1.0  T
   6    -42.3778925 -0.159059E-04  0.476E-03    0.30       4.2  T
   7    -42.3778930 -0.549475E-06  0.209E-03    0.30       9.6  T
   8    -42.3778931 -0.771826E-07  0.860E-04    0.30      23.2  T
   9    -42.3778931 -0.104561E-07  0.290E-04    0.30      68.9  T
     SCC iter.                  ...        0 min,  0.012 sec
     gradient                   ...        0 min,  0.011 sec
 * total energy  :   -41.8649110 Eh     change       -0.1897312E-02 Eh
   gradient norm :     0.0897633 Eh/α   predicted    -0.1258951E-02 ( -33.65%)
   displ. norm   :     0.1502046 α      lambda       -0.5113968E-02
   maximum displ.:     0.0818884 α      in ANC's #2, #16, #50, ...

........................................................................
.............................. CYCLE   15 ..............................
........................................................................

 iter      E             dE          RMSdq      gap      omega  full diag
   1    -42.3869427 -0.423869E+02  0.181E-01    0.26       0.0  T
   2    -42.3855017  0.144099E-02  0.209E-01    0.19       1.0  T
   3    -42.3829557  0.254594E-02  0.288E-01    0.37       1.0  T
   4    -42.3866062 -0.365045E-02  0.109E-01    0.21       1.0  T
   5    -42.3871033 -0.497161E-03  0.238E-02    0.26       1.0  T
   6    -42.3871238 -0.204580E-04  0.945E-03    0.25       2.1  T
   7    -42.3871267 -0.288291E-05  0.316E-03    0.25       6.3  T
   8    -42.3871267 -0.597066E-07  0.122E-03    0.25      16.4  T
   9    -42.3871268 -0.213237E-07  0.417E-04    0.25      48.0  T
  10    -42.3871268 -0.405734E-09  0.269E-04    0.25      74.3  T
     SCC iter.                  ...        0 min,  0.013 sec
     gradient                   ...        0 min,  0.011 sec
 * total energy  :   -41.8689302 Eh     change       -0.4019122E-02 Eh
   gradient norm :     0.1064336 Eh/α   predicted    -0.2614765E-02 ( -34.94%)
   displ. norm   :     0.2068381 α      lambda       -0.7353991E-02
   maximum displ.:     0.0928679 α      in ANC's #16, #2, #50, ...

........................................................................
.............................. CYCLE   16 ..............................
........................................................................

 iter      E             dE          RMSdq      gap      omega  full diag
   1    -42.4010391 -0.424010E+02  0.246E-01    0.21       0.0  T
   2    -42.3958179  0.522119E-02  0.367E-01    0.08       1.0  T
   3    -42.3956642  0.153728E-03  0.342E-01    0.33       1.0  T
   4    -42.4007446 -0.508043E-02  0.141E-01    0.15       1.0  T
   5    -42.4015493 -0.804672E-03  0.333E-02    0.20       1.0  T
   6    -42.4015856 -0.363332E-04  0.974E-03    0.19       2.1  T
   7    -42.4015881 -0.245510E-05  0.402E-03    0.19       5.0  T
   8    -42.4015883 -0.193171E-06  0.158E-03    0.19      12.7  T
   9    -42.4015883 -0.310073E-07  0.498E-04    0.19      40.2  T
  10    -42.4015883 -0.118547E-09  0.340E-04    0.19      58.8  T
     SCC iter.                  ...        0 min,  0.013 sec
     gradient                   ...        0 min,  0.011 sec
 * total energy  :   -41.8739079 Eh     change       -0.4977748E-02 Eh
   gradient norm :     0.1031834 Eh/α   predicted    -0.3834351E-02 ( -22.97%)
   displ. norm   :     0.1196555 α      lambda       -0.3277629E-02
   maximum displ.:     0.0582581 α      in ANC's #16, #2, #50, ...

........................................................................
.............................. CYCLE   17 ..............................
........................................................................

 iter      E             dE          RMSdq      gap      omega  full diag
   1    -42.4084599 -0.424085E+02  0.135E-01    0.15       0.0  T
   2    -42.4084124  0.475102E-04  0.975E-02    0.18       1.0  T
   3    -42.4082823  0.130124E-03  0.925E-02    0.13       1.0  T
   4    -42.4073842  0.898077E-03  0.160E-01    0.22       1.0  T
   5    -42.4086438 -0.125959E-02  0.219E-02    0.16       1.0  T
   6    -42.4086563 -0.124513E-04  0.471E-03    0.16       4.2  T
   7    -42.4086568 -0.505819E-06  0.206E-03    0.16       9.7  T
   8    -42.4086568 -0.416783E-07  0.695E-04    0.16      28.8  T
   9    -42.4086568 -0.973213E-08  0.268E-04    0.16      74.7  T
     SCC iter.                  ...        0 min,  0.012 sec
     gradient                   ...        0 min,  0.011 sec
 * total energy  :   -41.8762841 Eh     change       -0.2376243E-02 Eh
   gradient norm :     0.0872654 Eh/α   predicted    -0.1662318E-02 ( -30.04%)
   displ. norm   :     0.1073773 α      lambda       -0.3314182E-02
   maximum displ.:     0.0567190 α      in ANC's #16, #50, #58, ...

........................................................................
.............................. CYCLE   18 ..............................
........................................................................

 iter      E             dE          RMSdq      gap      omega  full diag
   1    -42.4140221 -0.424140E+02  0.127E-01    0.18       0.0  T
   2    -42.4092186  0.480344E-02  0.318E-01    0.06       1.0  T
   3    -42.4137516 -0.453298E-02  0.114E-01    0.20       1.0  T
   4    -42.4142044 -0.452836E-03  0.487E-02    0.15       1.0  T
   5    -42.4142657 -0.612790E-04  0.156E-02    0.17       1.3  T
   6    -42.4142752 -0.947032E-05  0.472E-03    0.16       4.2  T
   7    -42.4142760 -0.771274E-06  0.185E-03    0.16      10.8  T
   8    -42.4142760 -0.344984E-07  0.746E-04    0.16      26.8  T
   9    -42.4142760 -0.924565E-08  0.206E-04    0.16      97.2  T
     SCC iter.                  ...        0 min,  0.011 sec
     gradient                   ...        0 min,  0.012 sec
 * total energy  :   -41.8789148 Eh     change       -0.2630668E-02 Eh
   gradient norm :     0.0917528 Eh/α   predicted    -0.1676351E-02 ( -36.28%)
   displ. norm   :     0.1978703 α      lambda       -0.6419420E-02
   maximum displ.:     0.1044601 α      in ANC's #16, #1, #58, ...

........................................................................
.............................. CYCLE   19 ..............................
........................................................................

 iter      E             dE          RMSdq      gap      omega  full diag
   1    -42.4172512 -0.424173E+02  0.262E-01    0.24       0.0  T
   2    -42.3964310  0.208202E-01  0.652E-01    0.11       1.0  T
   3    -42.4164561 -0.200251E-01  0.229E-01    0.26       1.0  T
   4    -42.4182219 -0.176577E-02  0.828E-02    0.20       1.0  T
   5    -42.4183106 -0.887312E-04  0.153E-02    0.19       1.3  T
   6    -42.4183151 -0.447983E-05  0.682E-03    0.19       2.9  T
   7    -42.4183161 -0.955825E-06  0.363E-03    0.19       5.5  T
   8    -42.4183163 -0.219259E-06  0.138E-03    0.19      14.5  T
   9    -42.4183163 -0.619154E-07  0.529E-04    0.19      37.8  T
  10    -42.4183163 -0.761428E-08  0.240E-04    0.19      83.3  T
     SCC iter.                  ...        0 min,  0.012 sec
     gradient                   ...        0 min,  0.011 sec
 * total energy  :   -41.8838104 Eh     change       -0.4895606E-02 Eh
   gradient norm :     0.1127564 Eh/α   predicted    -0.3335891E-02 ( -31.86%)
   displ. norm   :     0.2558409 α      lambda       -0.7870534E-02
   maximum displ.:     0.1309848 α      in ANC's #16, #1, #68, ...

........................................................................
.............................. CYCLE   20 ..............................
........................................................................

 iter      E             dE          RMSdq      gap      omega  full diag
   1    -42.4143377 -0.424143E+02  0.408E-01    0.35       0.0  T
   2    -42.3540491  0.602886E-01  0.110E+00    0.24       1.0  T
   3    -42.4132508 -0.592017E-01  0.356E-01    0.36       1.0  T
   4    -42.4173507 -0.409991E-02  0.142E-01    0.28       1.0  T
   5    -42.4176600 -0.309315E-03  0.478E-02    0.24       1.0  T
   6    -42.4177444 -0.843437E-04  0.141E-02    0.24       1.4  T
   7    -42.4177460 -0.162710E-05  0.909E-03    0.24       2.2  T
   8    -42.4177490 -0.296986E-05  0.248E-03    0.24       8.1  T
   9    -42.4177490 -0.862483E-07  0.668E-04    0.24      29.9  T
  10    -42.4177490 -0.557324E-08  0.331E-04    0.24      60.4  T
     SCC iter.                  ...        0 min,  0.013 sec
     gradient                   ...        0 min,  0.011 sec
 * total energy  :   -41.8895787 Eh     change       -0.5768265E-02 Eh
   gradient norm :     0.1275352 Eh/α   predicted    -0.4193464E-02 ( -27.30%)
   displ. norm   :     0.2356077 α      lambda       -0.7244356E-02
   maximum displ.:     0.1228656 α      in ANC's #16, #1, #8, ...
 * RMSD in coord.:     0.7195039 α      energy gain  -0.3333354E+02 Eh

generating ANC from model Hessian ...
Using Lindh-Hessian (1995)
 Shifting diagonal of input Hessian by    1.0091542426153783E-002
 Lowest  eigenvalues of input Hessian
    0.010000    0.000000    0.000000    0.000000    0.000000    0.000000
    0.000000    0.010863    0.011877    0.012683    0.013249    0.014608
    0.018707    0.020594    0.022460    0.027261    0.028835    0.030120
 Highest eigenvalues
    2.111184    2.165691    2.260658    2.327959    2.408991    8.144309


........................................................................
.............................. CYCLE   21 ..............................
........................................................................

 iter      E             dE          RMSdq      gap      omega  full diag
   1    -42.4113213 -0.424113E+02  0.379E-01    0.40       0.0  T
   2    -42.3585406  0.527807E-01  0.103E+00    0.17       1.0  T
   3    -42.4094487 -0.509081E-01  0.365E-01    0.41       1.0  T
   4    -42.4141996 -0.475092E-02  0.133E-01    0.33       1.0  T
   5    -42.4145276 -0.327999E-03  0.476E-02    0.29       1.0  T
   6    -42.4145958 -0.681773E-04  0.148E-02    0.29       1.3  T
   7    -42.4145978 -0.197853E-05  0.937E-03    0.29       2.1  T
   8    -42.4146012 -0.339322E-05  0.237E-03    0.29       8.4  T
   9    -42.4146012 -0.728758E-07  0.738E-04    0.29      27.1  T
  10    -42.4146012 -0.827168E-08  0.388E-04    0.29      51.6  T
     SCC iter.                  ...        0 min,  0.012 sec
     gradient                   ...        0 min,  0.011 sec
 * total energy  :   -41.8949934 Eh     change       -0.5414714E-02 Eh
   gradient norm :     0.1231667 Eh/α   predicted     0.0000000E+00 (-100.00%)
   displ. norm   :     0.5155934 α      lambda       -0.2998320E-01
   maximum displ.:     0.2402995 α      in ANC's #15, #6, #8, ...

........................................................................
.............................. CYCLE   22 ..............................
........................................................................

 iter      E             dE          RMSdq      gap      omega  full diag
   1    -42.4326358 -0.424326E+02  0.433E-01    0.38       0.0  T
   2    -42.4284140  0.422184E-02  0.407E-01    0.19       1.0  T
   3    -42.4171613  0.112527E-01  0.592E-01    0.60       1.0  T
   4    -42.4325189 -0.153577E-01  0.216E-01    0.27       1.0  T
   5    -42.4339775 -0.145855E-02  0.310E-02    0.33       1.0  T
   6    -42.4339942 -0.166760E-04  0.142E-02    0.34       1.4  T
   7    -42.4339984 -0.424221E-05  0.807E-03    0.33       2.5  T
   8    -42.4339999 -0.151150E-05  0.268E-03    0.33       7.5  T
   9    -42.4340001 -0.201100E-06  0.851E-04    0.33      23.5  T
  10    -42.4340001 -0.767066E-08  0.502E-04    0.33      39.9  T
     SCC iter.                  ...        0 min,  0.013 sec
     gradient                   ...        0 min,  0.011 sec
 * total energy  :   -41.9206869 Eh     change       -0.2569352E-01 Eh
   gradient norm :     0.0690291 Eh/α   predicted    -0.1897694E-01 ( -26.14%)
   displ. norm   :     0.8149830 α      lambda       -0.3804492E-01
   maximum displ.:     0.4132680 α      in ANC's #15, #8, #6, ...

........................................................................
.............................. CYCLE   23 ..............................
........................................................................

 iter      E             dE          RMSdq      gap      omega  full diag
   1    -42.4409631 -0.424410E+02  0.807E-01    0.33       0.0  T
   2    -42.3995265  0.414366E-01  0.111E+00    1.00       1.0  T
   3    -42.4342676 -0.347410E-01  0.624E-01    0.18       1.0  T
   4    -42.4432838 -0.901621E-02  0.465E-01    0.66       1.0  T
   5    -42.4502089 -0.692510E-02  0.993E-02    0.46       1.0  T
   6    -42.4505408 -0.331920E-03  0.333E-02    0.47       1.0  T
   7    -42.4505626 -0.217521E-04  0.169E-02    0.46       1.2  T
   8    -42.4505656 -0.308043E-05  0.592E-03    0.47       3.4  T
   9    -42.4505661 -0.448814E-06  0.253E-03    0.47       7.9  T
  10    -42.4505662 -0.102667E-06  0.124E-03    0.47      16.1  T
  11    -42.4505662 -0.110247E-07  0.541E-04    0.47      37.0  T
  12    -42.4505662 -0.927729E-08  0.134E-04    0.47     148.8  T
     SCC iter.                  ...        0 min,  0.015 sec
     gradient                   ...        0 min,  0.011 sec
 * total energy  :   -41.9574124 Eh     change       -0.3672545E-01 Eh
   gradient norm :     0.1013681 Eh/α   predicted    -0.3165715E-01 ( -13.80%)
   displ. norm   :     0.9443049 α      lambda       -0.4816468E-01
   maximum displ.:     0.4690174 α      in ANC's #15, #27, #8, ...

........................................................................
.............................. CYCLE   24 ..............................
........................................................................

 iter      E             dE          RMSdq      gap      omega  full diag
   1    -42.4023100 -0.424023E+02  0.130E+00    0.10       0.0  T
   2    -42.2728256  0.129484E+00  0.199E+00    1.52       1.0  T
   3    -42.4508669 -0.178041E+00  0.736E-01    0.38       1.0  T
   4    -42.4495797  0.128725E-02  0.608E-01    0.72       1.0  T
   5    -42.4558297 -0.624999E-02  0.265E-01    0.38       1.0  T
   6    -42.4579824 -0.215275E-02  0.632E-02    0.49       1.0  T
   7    -42.4581050 -0.122553E-03  0.332E-02    0.51       1.0  T
   8    -42.4581176 -0.126025E-04  0.165E-02    0.51       1.2  T
   9    -42.4581196 -0.207801E-05  0.615E-03    0.50       3.2  T
  10    -42.4581202 -0.575134E-06  0.311E-03    0.51       6.4  T
  11    -42.4581203 -0.577927E-07  0.127E-03    0.51      15.8  T
  12    -42.4581203 -0.311391E-07  0.456E-04    0.51      43.9  T
  13    -42.4581203 -0.301785E-08  0.200E-04    0.51     100.2  T
     SCC iter.                  ...        0 min,  0.016 sec
     gradient                   ...        0 min,  0.011 sec
 * total energy  :   -41.9919867 Eh     change       -0.3457436E-01 Eh
   gradient norm :     0.1581272 Eh/α   predicted    -0.4555695E-01 (  31.77%)
   displ. norm   :     0.4137075 α      lambda       -0.1864659E-01
   maximum displ.:     0.1947096 α      in ANC's #6, #5, #8, ...

........................................................................
.............................. CYCLE   25 ..............................
........................................................................

 iter      E             dE          RMSdq      gap      omega  full diag
   1    -42.4621578 -0.424622E+02  0.641E-01    0.85       0.0  T
   2    -42.3544526  0.107705E+00  0.154E+00    0.21       1.0  T
   3    -42.4785796 -0.124127E+00  0.209E-01    0.60       1.0  T
   4    -42.4789119 -0.332274E-03  0.115E-01    0.53       1.0  T
   5    -42.4786988  0.213003E-03  0.964E-02    0.56       1.0  T
   6    -42.4790290 -0.330143E-03  0.201E-02    0.54       1.0  T
   7    -42.4790453 -0.163037E-04  0.596E-03    0.55       3.4  T
   8    -42.4790459 -0.623918E-06  0.304E-03    0.55       6.6  T
   9    -42.4790460 -0.110171E-06  0.144E-03    0.55      13.9  T
  10    -42.4790460 -0.200030E-07  0.686E-04    0.55      29.1  T
  11    -42.4790461 -0.574543E-08  0.345E-04    0.55      58.0  T
     SCC iter.                  ...        0 min,  0.014 sec
     gradient                   ...        0 min,  0.011 sec
 * total energy  :   -42.0048177 Eh     change       -0.1283101E-01 Eh
   gradient norm :     0.1525136 Eh/α   predicted    -0.1091902E-01 ( -14.90%)
   displ. norm   :     0.5011341 α      lambda       -0.2637599E-01
   maximum displ.:     0.2157687 α      in ANC's #8, #6, #37, ...

........................................................................
.............................. CYCLE   26 ..............................
........................................................................

 iter      E             dE          RMSdq      gap      omega  full diag
   1    -42.4838355 -0.424838E+02  0.669E-01    0.78       0.0  T
   2    -42.4294837  0.543518E-01  0.125E+00    0.04       1.0  T
   3    -42.4885826 -0.590989E-01  0.356E-01    0.72       1.0  T
   4    -42.4900499 -0.146734E-02  0.222E-01    0.51       1.0  T
   5    -42.4918004 -0.175046E-02  0.761E-02    0.57       1.0  T
   6    -42.4919817 -0.181366E-03  0.202E-02    0.57       1.0  T
   7    -42.4919856 -0.385734E-05  0.839E-03    0.57       2.4  T
   8    -42.4919865 -0.883543E-06  0.397E-03    0.57       5.0  T
   9    -42.4919868 -0.338479E-06  0.161E-03    0.57      12.4  T
  10    -42.4919868 -0.194712E-07  0.851E-04    0.57      23.5  T
  11    -42.4919868 -0.754298E-08  0.407E-04    0.57      49.1  T
     SCC iter.                  ...        0 min,  0.014 sec
     gradient                   ...        0 min,  0.011 sec
 * total energy  :   -42.0211450 Eh     change       -0.1632729E-01 Eh
   gradient norm :     0.1413806 Eh/α   predicted    -0.1649997E-01 (   1.06%)
   displ. norm   :     0.6155518 α      lambda       -0.2474688E-01
   maximum displ.:     0.3692693 α      in ANC's #8, #5, #9, ...

........................................................................
.............................. CYCLE   27 ..............................
........................................................................

 iter      E             dE          RMSdq      gap      omega  full diag
   1    -42.5071508 -0.425072E+02  0.462E-01    0.76       0.0  T
   2    -42.4960981  0.110527E-01  0.574E-01    0.37       1.0  T
   3    -42.5036842 -0.758616E-02  0.423E-01    0.85       1.0  T
   4    -42.5088153 -0.513106E-02  0.117E-01    0.67       1.0  T
   5    -42.5089837 -0.168448E-03  0.598E-02    0.67       1.0  T
   6    -42.5091220 -0.138222E-03  0.125E-02    0.66       1.6  T
   7    -42.5091238 -0.185601E-05  0.634E-03    0.66       3.2  T
   8    -42.5091240 -0.183133E-06  0.311E-03    0.66       6.4  T
   9    -42.5091243 -0.263476E-06  0.105E-03    0.66      19.0  T
  10    -42.5091243 -0.916589E-08  0.540E-04    0.66      37.0  T
  11    -42.5091243 -0.345023E-08  0.212E-04    0.66      94.3  T
     SCC iter.                  ...        0 min,  0.014 sec
     gradient                   ...        0 min,  0.011 sec
 * total energy  :   -42.0344380 Eh     change       -0.1329293E-01 Eh
   gradient norm :     0.1024685 Eh/α   predicted    -0.1706179E-01 (  28.35%)
   displ. norm   :     0.5603264 α      lambda       -0.1411131E-01
   maximum displ.:     0.3422492 α      in ANC's #8, #6, #1, ...

........................................................................
.............................. CYCLE   28 ..............................
........................................................................

 iter      E             dE          RMSdq      gap      omega  full diag
   1    -42.5278311 -0.425278E+02  0.469E-01    0.90       0.0  T
   2    -42.4802399  0.475912E-01  0.108E+00    0.16       1.0  T
   3    -42.5320155 -0.517756E-01  0.233E-01    0.80       1.0  T
   4    -42.5331172 -0.110170E-02  0.850E-02    0.70       1.0  T
   5    -42.5331584 -0.412681E-04  0.384E-02    0.70       1.0  T
   6    -42.5332208 -0.623687E-04  0.102E-02    0.70       2.0  T
   7    -42.5332221 -0.127779E-05  0.414E-03    0.71       4.8  T
   8    -42.5332220  0.346653E-07  0.245E-03    0.71       8.2  T
   9    -42.5332222 -0.129386E-06  0.116E-03    0.71      17.3  T
  10    -42.5332222 -0.208860E-07  0.352E-04    0.71      56.9  T
  11    -42.5332222 -0.420371E-09  0.204E-04    0.71      98.2  T
     SCC iter.                  ...        0 min,  0.014 sec
     gradient                   ...        0 min,  0.011 sec
 * total energy  :   -42.0424945 Eh     change       -0.8056535E-02 Eh
   gradient norm :     0.0561206 Eh/α   predicted    -0.9270898E-02 (  15.07%)
   displ. norm   :     0.3973576 α      lambda       -0.7814495E-02
   maximum displ.:     0.1783169 α      in ANC's #5, #8, #12, ...

........................................................................
.............................. CYCLE   29 ..............................
........................................................................

 iter      E             dE          RMSdq      gap      omega  full diag
   1    -42.5478172 -0.425478E+02  0.317E-01    0.84       0.0  T
   2    -42.5387698  0.904736E-02  0.542E-01    0.47       1.0  T
   3    -42.5485611 -0.979125E-02  0.176E-01    0.81       1.0  T
   4    -42.5484214  0.139628E-03  0.146E-01    0.69       1.0  T
   5    -42.5492858 -0.864361E-03  0.204E-02    0.74       1.0  T
   6    -42.5492934 -0.754232E-05  0.613E-03    0.74       3.3  T
   7    -42.5492936 -0.249394E-06  0.345E-03    0.74       5.8  T
   8    -42.5492937 -0.106297E-06  0.127E-03    0.74      15.7  T
   9    -42.5492937 -0.253657E-07  0.439E-04    0.74      45.5  T
  10    -42.5492937 -0.145061E-08  0.221E-04    0.74      90.4  T
     SCC iter.                  ...        0 min,  0.012 sec
     gradient                   ...        0 min,  0.011 sec
 * total energy  :   -42.0466544 Eh     change       -0.4159883E-02 Eh
   gradient norm :     0.0656056 Eh/α   predicted    -0.4524178E-02 (   8.76%)
   displ. norm   :     0.4629588 α      lambda       -0.6004498E-02
   maximum displ.:     0.2229206 α      in ANC's #15, #8, #1, ...

........................................................................
.............................. CYCLE   30 ..............................
........................................................................

 iter      E             dE          RMSdq      gap      omega  full diag
   1    -42.5374649 -0.425375E+02  0.409E-01    0.98       0.0  T
   2    -42.5176561  0.198088E-01  0.709E-01    0.51       1.0  T
   3    -42.5393703 -0.217142E-01  0.283E-01    0.97       1.0  T
   4    -42.5413366 -0.196631E-02  0.127E-01    0.83       1.0  T
   5    -42.5414690 -0.132457E-03  0.737E-02    0.86       1.0  T
   6    -42.5416118 -0.142739E-03  0.196E-02    0.83       1.0  T
   7    -42.5416192 -0.742277E-05  0.913E-03    0.83       2.2  T
   8    -42.5416216 -0.236253E-05  0.235E-03    0.84       8.5  T
   9    -42.5416216 -0.807138E-07  0.110E-03    0.84      18.2  T
  10    -42.5416216 -0.180680E-08  0.673E-04    0.84      29.7  T
  11    -42.5416216 -0.441351E-08  0.245E-04    0.84      81.5  T
     SCC iter.                  ...        0 min,  0.014 sec
     gradient                   ...        0 min,  0.011 sec
 * total energy  :   -42.0464846 Eh     change        0.1697759E-03 Eh
   gradient norm :     0.1128708 Eh/α   predicted    -0.3645730E-02 (*******%)
   displ. norm   :     0.3605681 α      lambda       -0.1027727E-01
   maximum displ.:     0.1862898 α      in ANC's #6, #5, #8, ...

........................................................................
.............................. CYCLE   31 ..............................
........................................................................

 iter      E             dE          RMSdq      gap      omega  full diag
   1    -42.5457806 -0.425458E+02  0.312E-01    0.92       0.0  T
   2    -42.5434378  0.234275E-02  0.381E-01    0.69       1.0  T
   3    -42.5461715 -0.273366E-02  0.224E-01    0.97       1.0  T
   4    -42.5476584 -0.148689E-02  0.891E-02    0.83       1.0  T
   5    -42.5477588 -0.100375E-03  0.391E-02    0.85       1.0  T
   6    -42.5477968 -0.380481E-04  0.874E-03    0.85       2.3  T
   7    -42.5477976 -0.789340E-06  0.399E-03    0.85       5.0  T
   8    -42.5477977 -0.689982E-07  0.143E-03    0.86      14.0  T
   9    -42.5477977 -0.131702E-07  0.712E-04    0.86      28.1  T
  10    -42.5477977 -0.345232E-08  0.304E-04    0.85      65.8  T
     SCC iter.                  ...        0 min,  0.013 sec
     gradient                   ...        0 min,  0.011 sec
 * total energy  :   -42.0519631 Eh     change       -0.5478512E-02 Eh
   gradient norm :     0.0671877 Eh/α   predicted    -0.5806713E-02 (   5.99%)
   displ. norm   :     0.4287621 α      lambda       -0.4635125E-02
   maximum displ.:     0.2901449 α      in ANC's #6, #5, #4, ...

........................................................................
.............................. CYCLE   32 ..............................
........................................................................

 iter      E             dE          RMSdq      gap      omega  full diag
   1    -42.5491940 -0.425492E+02  0.216E-01    0.81       0.0  T
   2    -42.5472173  0.197679E-02  0.245E-01    0.98       1.0  T
   3    -42.5483716 -0.115433E-02  0.190E-01    0.76       1.0  T
   4    -42.5494435 -0.107193E-02  0.719E-02    0.86       1.0  T
   5    -42.5495724 -0.128844E-03  0.113E-02    0.85       1.8  T
   6    -42.5495752 -0.279498E-05  0.372E-03    0.85       5.4  T
   7    -42.5495752 -0.237605E-08  0.165E-03    0.85      12.2  T
   8    -42.5495752 -0.616723E-07  0.500E-04    0.85      40.0  T
   9    -42.5495752 -0.252166E-08  0.226E-04    0.85      88.6  T
     SCC iter.                  ...        0 min,  0.011 sec
     gradient                   ...        0 min,  0.011 sec
 * total energy  :   -42.0552145 Eh     change       -0.3251338E-02 Eh
   gradient norm :     0.0515826 Eh/α   predicted    -0.2743619E-02 ( -15.62%)
   displ. norm   :     0.5669796 α      lambda       -0.5887446E-02
   maximum displ.:     0.3721025 α      in ANC's #6, #4, #5, ...

........................................................................
.............................. CYCLE   33 ..............................
........................................................................

 iter      E             dE          RMSdq      gap      omega  full diag
   1    -42.5507869 -0.425508E+02  0.449E-01    1.24       0.0  T
   2    -42.4736739  0.771130E-01  0.140E+00    0.23       1.0  T
   3    -42.5591942 -0.855203E-01  0.157E-01    0.92       1.0  T
   4    -42.5586439  0.550313E-03  0.151E-01    0.87       1.0  T
   5    -42.5591669 -0.522965E-03  0.682E-02    0.90       1.0  T
   6    -42.5593108 -0.143961E-03  0.263E-02    0.92       1.0  T
   7    -42.5593386 -0.277882E-04  0.409E-03    0.94       4.9  T
   8    -42.5593387 -0.956845E-07  0.265E-03    0.94       7.5  T
   9    -42.5593389 -0.133375E-06  0.933E-04    0.94      21.4  T
  10    -42.5593389 -0.162547E-07  0.341E-04    0.94      58.6  T
     SCC iter.                  ...        0 min,  0.012 sec
     gradient                   ...        0 min,  0.011 sec
 * total energy  :   -42.0583943 Eh     change       -0.3179798E-02 Eh
   gradient norm :     0.0563295 Eh/α   predicted    -0.3890031E-02 (  22.34%)
   displ. norm   :     0.6078788 α      lambda       -0.6211917E-02
   maximum displ.:     0.3710281 α      in ANC's #6, #5, #4, ...

........................................................................
.............................. CYCLE   34 ..............................
........................................................................

 iter      E             dE          RMSdq      gap      omega  full diag
   1    -42.5419336 -0.425419E+02  0.353E-01    0.91       0.0  T
   2    -42.5335870  0.834658E-02  0.522E-01    1.29       1.0  T
   3    -42.5432556 -0.966863E-02  0.197E-01    0.92       1.0  T
   4    -42.5436643 -0.408672E-03  0.129E-01    1.04       1.0  T
   5    -42.5440480 -0.383744E-03  0.375E-02    0.99       1.0  T
   6    -42.5440909 -0.429027E-04  0.850E-03    0.99       2.4  T
   7    -42.5440922 -0.126213E-05  0.374E-03    0.99       5.4  T
   8    -42.5440923 -0.134861E-06  0.166E-03    0.99      12.1  T
   9    -42.5440924 -0.476823E-07  0.653E-04    0.99      30.6  T
  10    -42.5440924  0.361405E-08  0.434E-04    0.99      46.0  T
     SCC iter.                  ...        0 min,  0.013 sec
     gradient                   ...        0 min,  0.011 sec
 * total energy  :   -42.0617941 Eh     change       -0.3399819E-02 Eh
   gradient norm :     0.0751914 Eh/α   predicted    -0.4253664E-02 (  25.11%)
   displ. norm   :     0.3415087 α      lambda       -0.3927721E-02
   maximum displ.:     0.2282358 α      in ANC's #6, #4, #5, ...

........................................................................
.............................. CYCLE   35 ..............................
........................................................................

 iter      E             dE          RMSdq      gap      omega  full diag
   1    -42.5507778 -0.425508E+02  0.240E-01    1.12       0.0  T
   2    -42.5399633  0.108145E-01  0.509E-01    0.73       1.0  T
   3    -42.5517696 -0.118063E-01  0.135E-01    1.08       1.0  T
   4    -42.5521870 -0.417431E-03  0.595E-02    1.03       1.0  T
   5    -42.5522525 -0.654191E-04  0.166E-02    1.02       1.2  T
   6    -42.5522594 -0.695422E-05  0.392E-03    1.02       5.1  T
   7    -42.5522595 -0.129239E-06  0.226E-03    1.02       8.9  T
   8    -42.5522596 -0.389603E-07  0.905E-04    1.02      22.1  T
   9    -42.5522596 -0.143991E-07  0.261E-04    1.02      76.5  T
     SCC iter.                  ...        0 min,  0.011 sec
     gradient                   ...        0 min,  0.011 sec
 * total energy  :   -42.0645925 Eh     change       -0.2798460E-02 Eh
   gradient norm :     0.0424581 Eh/α   predicted    -0.2192912E-02 ( -21.64%)
   displ. norm   :     0.5722434 α      lambda       -0.4138835E-02
   maximum displ.:     0.3969868 α      in ANC's #6, #5, #4, ...

........................................................................
.............................. CYCLE   36 ..............................
........................................................................

 iter      E             dE          RMSdq      gap      omega  full diag
   1    -42.5638133 -0.425638E+02  0.293E-01    1.21       0.0  T
   2    -42.5455316  0.182817E-01  0.676E-01    0.69       1.0  T
   3    -42.5658229 -0.202913E-01  0.121E-01    1.11       1.0  T
   4    -42.5660012 -0.178317E-03  0.473E-02    1.06       1.0  T
   5    -42.5660376 -0.364762E-04  0.135E-02    1.06       1.5  T
   6    -42.5660433 -0.566960E-05  0.461E-03    1.06       4.3  T
   7    -42.5660436 -0.328530E-06  0.180E-03    1.06      11.1  T
   8    -42.5660437 -0.166609E-07  0.105E-03    1.06      19.1  T
   9    -42.5660437 -0.329024E-07  0.319E-04    1.06      62.7  T
  10    -42.5660437 -0.127145E-08  0.134E-04    1.06     148.9  T
     SCC iter.                  ...        0 min,  0.012 sec
     gradient                   ...        0 min,  0.011 sec
 * total energy  :   -42.0678812 Eh     change       -0.3288654E-02 Eh
   gradient norm :     0.0281939 Eh/α   predicted    -0.2747087E-02 ( -16.47%)
   displ. norm   :     0.6748472 α      lambda       -0.3868056E-02
   maximum displ.:     0.3877364 α      in ANC's #6, #5, #4, ...

........................................................................
.............................. CYCLE   37 ..............................
........................................................................

 iter      E             dE          RMSdq      gap      omega  full diag
   1    -42.5692404 -0.425692E+02  0.254E-01    1.14       0.0  T
   2    -42.5678538  0.138660E-02  0.233E-01    0.99       1.0  T
   3    -42.5672250  0.628805E-03  0.248E-01    1.24       1.0  T
   4    -42.5694026 -0.217761E-02  0.397E-02    1.11       1.0  T
   5    -42.5694634 -0.608689E-04  0.116E-02    1.10       1.7  T
   6    -42.5694673 -0.381379E-05  0.349E-03    1.09       5.7  T
   7    -42.5694673 -0.209805E-07  0.175E-03    1.09      11.4  T
   8    -42.5694673 -0.572985E-07  0.596E-04    1.09      33.6  T
   9    -42.5694673 -0.735324E-08  0.280E-04    1.09      71.5  T
     SCC iter.                  ...        0 min,  0.011 sec
     gradient                   ...        0 min,  0.011 sec
 * total energy  :   -42.0710242 Eh     change       -0.3143020E-02 Eh
   gradient norm :     0.0288287 Eh/α   predicted    -0.2814832E-02 ( -10.44%)
   displ. norm   :     0.6386301 α      lambda       -0.3367147E-02
   maximum displ.:     0.3027207 α      in ANC's #6, #4, #5, ...

........................................................................
.............................. CYCLE   38 ..............................
........................................................................

 iter      E             dE          RMSdq      gap      omega  full diag
   1    -42.5770012 -0.425770E+02  0.240E-01    1.14       0.0  T
   2    -42.5761353  0.865850E-03  0.199E-01    1.02       1.0  T
   3    -42.5747854  0.134988E-02  0.251E-01    1.25       1.0  T
   4    -42.5770579 -0.227249E-02  0.635E-02    1.10       1.0  T
   5    -42.5771775 -0.119572E-03  0.112E-02    1.11       1.8  T
   6    -42.5771813 -0.378860E-05  0.365E-03    1.10       5.5  T
   7    -42.5771813 -0.583861E-07  0.190E-03    1.10      10.5  T
   8    -42.5771814 -0.717216E-07  0.760E-04    1.10      26.3  T
   9    -42.5771814 -0.167193E-07  0.226E-04    1.10      88.7  T
     SCC iter.                  ...        0 min,  0.011 sec
     gradient                   ...        0 min,  0.011 sec
 * total energy  :   -42.0736250 Eh     change       -0.2600792E-02 Eh
   gradient norm :     0.0284441 Eh/α   predicted    -0.2370218E-02 (  -8.87%)
   displ. norm   :     0.7791072 α      lambda       -0.3368281E-02
   maximum displ.:     0.3992749 α      in ANC's #4, #6, #5, ...

........................................................................
.............................. CYCLE   39 ..............................
........................................................................

 iter      E             dE          RMSdq      gap      omega  full diag
   1    -42.5664292 -0.425664E+02  0.289E-01    1.15       0.0  T
   2    -42.5650377  0.139152E-02  0.265E-01    0.99       1.0  T
   3    -42.5642411  0.796642E-03  0.256E-01    1.26       1.0  T
   4    -42.5665770 -0.233595E-02  0.551E-02    1.10       1.0  T
   5    -42.5666756 -0.985831E-04  0.128E-02    1.11       1.6  T
   6    -42.5666805 -0.485564E-05  0.487E-03    1.11       4.1  T
   7    -42.5666807 -0.210995E-06  0.220E-03    1.11       9.1  T
   8    -42.5666807 -0.433679E-07  0.680E-04    1.11      29.4  T
   9    -42.5666807 -0.399515E-08  0.299E-04    1.11      67.0  T
     SCC iter.                  ...        0 min,  0.011 sec
     gradient                   ...        0 min,  0.011 sec
 * total energy  :   -42.0749350 Eh     change       -0.1310007E-02 Eh
   gradient norm :     0.0602409 Eh/α   predicted    -0.2706427E-02 ( 106.60%)
   displ. norm   :     0.3477125 α      lambda       -0.3694482E-02
   maximum displ.:     0.2165903 α      in ANC's #4, #1, #13, ...

........................................................................
.............................. CYCLE   40 ..............................
........................................................................

 iter      E             dE          RMSdq      gap      omega  full diag
   1    -42.5833094 -0.425833E+02  0.175E-01    1.08       0.0  T
   2    -42.5832741  0.352765E-04  0.117E-01    1.12       1.0  T
   3    -42.5822030  0.107111E-02  0.167E-01    1.00       1.0  T
   4    -42.5831450 -0.941980E-03  0.697E-02    1.13       1.0  T
   5    -42.5833586 -0.213572E-03  0.819E-03    1.09       2.4  T
   6    -42.5833596 -0.107882E-05  0.382E-03    1.09       5.2  T
   7    -42.5833598 -0.197500E-06  0.183E-03    1.09      10.9  T
   8    -42.5833599 -0.379836E-07  0.544E-04    1.09      36.8  T
   9    -42.5833599 -0.507886E-08  0.248E-04    1.09      80.7  T
     SCC iter.                  ...        0 min,  0.011 sec
     gradient                   ...        0 min,  0.011 sec
 * total energy  :   -42.0771006 Eh     change       -0.2165586E-02 Eh
   gradient norm :     0.0275922 Eh/α   predicted    -0.2070583E-02 (  -4.39%)
   displ. norm   :     0.4876044 α      lambda       -0.2576403E-02
   maximum displ.:     0.2685513 α      in ANC's #4, #5, #1, ...

........................................................................
.............................. CYCLE   41 ..............................
........................................................................

 iter      E             dE          RMSdq      gap      omega  full diag
   1    -42.5811574 -0.425812E+02  0.264E-01    0.98       0.0  T
   2    -42.5754828  0.567458E-02  0.419E-01    1.32       1.0  T
   3    -42.5819455 -0.646273E-02  0.128E-01    1.04       1.0  T
   4    -42.5820130 -0.674710E-04  0.512E-02    1.08       1.0  T
   5    -42.5820868 -0.738222E-04  0.110E-02    1.07       1.8  T
   6    -42.5820899 -0.313722E-05  0.392E-03    1.07       5.1  T
   7    -42.5820901 -0.106783E-06  0.187E-03    1.07      10.7  T
   8    -42.5820901 -0.357010E-07  0.783E-04    1.07      25.5  T
   9    -42.5820901 -0.116425E-07  0.284E-04    1.07      70.4  T
     SCC iter.                  ...        0 min,  0.011 sec
     gradient                   ...        0 min,  0.011 sec
 * total energy  :   -42.0782248 Eh     change       -0.1124197E-02 Eh
   gradient norm :     0.0548779 Eh/α   predicted    -0.1594487E-02 (  41.83%)
   displ. norm   :     0.3522409 α      lambda       -0.2890873E-02
   maximum displ.:     0.2335405 α      in ANC's #4, #1, #3, ...

........................................................................
.............................. CYCLE   42 ..............................
........................................................................

 iter      E             dE          RMSdq      gap      omega  full diag
   1    -42.5886150 -0.425886E+02  0.317E-01    1.29       0.0  T
   2    -42.5513452  0.372697E-01  0.985E-01    0.55       1.0  T
   3    -42.5931139 -0.417686E-01  0.108E-01    1.07       1.0  T
   4    -42.5928786  0.235242E-03  0.110E-01    1.04       1.0  T
   5    -42.5930756 -0.196964E-03  0.564E-02    1.06       1.0  T
   6    -42.5931881 -0.112533E-03  0.159E-02    1.08       1.3  T
   7    -42.5931972 -0.907211E-05  0.467E-03    1.08       4.3  T
   8    -42.5931977 -0.542145E-06  0.277E-03    1.09       7.2  T
   9    -42.5931980 -0.231108E-06  0.112E-03    1.09      17.8  T
  10    -42.5931980 -0.364281E-07  0.297E-04    1.08      67.4  T
  11    -42.5931980 -0.243699E-08  0.106E-04    1.08     187.9  T
     SCC iter.                  ...        0 min,  0.014 sec
     gradient                   ...        0 min,  0.011 sec
 * total energy  :   -42.0793283 Eh     change       -0.1103518E-02 Eh
   gradient norm :     0.0817210 Eh/α   predicted    -0.1624781E-02 (  47.24%)
   displ. norm   :     0.4674849 α      lambda       -0.4077744E-02
   maximum displ.:     0.3192708 α      in ANC's #4, #3, #9, ...
 * RMSD in coord.:     1.6968397 α      energy gain  -0.1897496E+00 Eh

generating ANC from model Hessian ...
Using Lindh-Hessian (1995)
 Shifting diagonal of input Hessian by    9.1873785516842551E-003
 Lowest  eigenvalues of input Hessian
    0.000000    0.000000    0.000000    0.000000    0.000000    0.000000
    0.010000    0.011199    0.011773    0.012729    0.012837    0.014906
    0.017872    0.018356    0.021718    0.027988    0.029257    0.030862
 Highest eigenvalues
    1.951438    2.060063    2.153289    2.226821    2.599693    8.942819


........................................................................
.............................. CYCLE   43 ..............................
........................................................................

 iter      E             dE          RMSdq      gap      omega  full diag
   1    -42.5856481 -0.425856E+02  0.313E-01    0.98       0.0  T
   2    -42.5775953  0.805280E-02  0.496E-01    1.41       1.0  T
   3    -42.5871016 -0.950629E-02  0.164E-01    1.03       1.0  T
   4    -42.5874141 -0.312426E-03  0.945E-02    1.12       1.0  T
   5    -42.5875792 -0.165163E-03  0.277E-02    1.09       1.0  T
   6    -42.5875991 -0.198835E-04  0.619E-03    1.09       3.2  T
   7    -42.5876000 -0.923979E-06  0.282E-03    1.09       7.1  T
   8    -42.5876001 -0.960144E-07  0.111E-03    1.09      18.1  T
   9    -42.5876001 -0.241260E-07  0.300E-04    1.09      66.6  T
  10    -42.5876001  0.390628E-09  0.187E-04    1.09     107.1  T
     SCC iter.                  ...        0 min,  0.013 sec
     gradient                   ...        0 min,  0.011 sec
 * total energy  :   -42.0815061 Eh     change       -0.2177781E-02 Eh
   gradient norm :     0.0290162 Eh/α   predicted     0.0000000E+00 (-100.00%)
   displ. norm   :     0.3856307 α      lambda       -0.3109468E-02
   maximum displ.:     0.2321312 α      in ANC's #1, #6, #4, ...

........................................................................
.............................. CYCLE   44 ..............................
........................................................................

 iter      E             dE          RMSdq      gap      omega  full diag
   1    -42.5857738 -0.425858E+02  0.409E-01    0.90       0.0  T
   2    -42.5710684  0.147054E-01  0.663E-01    1.48       1.0  T
   3    -42.5882209 -0.171525E-01  0.191E-01    1.02       1.0  T
   4    -42.5882997 -0.788764E-04  0.694E-02    1.05       1.0  T
   5    -42.5884105 -0.110758E-03  0.164E-02    1.05       1.2  T
   6    -42.5884175 -0.702708E-05  0.463E-03    1.05       4.3  T
   7    -42.5884178 -0.238899E-06  0.262E-03    1.05       7.6  T
   8    -42.5884179 -0.141702E-06  0.126E-03    1.05      15.9  T
   9    -42.5884179 -0.352149E-07  0.281E-04    1.05      71.2  T
  10    -42.5884179 -0.358760E-09  0.955E-05    1.05     209.4  T
     SCC iter.                  ...        0 min,  0.013 sec
     gradient                   ...        0 min,  0.011 sec
 * total energy  :   -42.0833028 Eh     change       -0.1796735E-02 Eh
   gradient norm :     0.0341069 Eh/α   predicted    -0.1802282E-02 (   0.31%)
   displ. norm   :     0.4468602 α      lambda       -0.3308961E-02
   maximum displ.:     0.2777295 α      in ANC's #1, #2, #3, ...

........................................................................
.............................. CYCLE   45 ..............................
........................................................................

 iter      E             dE          RMSdq      gap      omega  full diag
   1    -42.5961708 -0.425962E+02  0.335E-01    1.28       0.0  T
   2    -42.5668667  0.293042E-01  0.865E-01    0.61       1.0  T
   3    -42.5995897 -0.327230E-01  0.117E-01    1.11       1.0  T
   4    -42.5995154  0.742272E-04  0.874E-02    1.05       1.0  T
   5    -42.5996636 -0.148141E-03  0.302E-02    1.07       1.0  T
   6    -42.5996955 -0.319837E-04  0.970E-03    1.08       2.1  T
   7    -42.5996986 -0.307907E-05  0.266E-03    1.08       7.5  T
   8    -42.5996985  0.118499E-06  0.237E-03    1.09       8.4  T
   9    -42.5996987 -0.226435E-06  0.575E-04    1.08      34.8  T
  10    -42.5996987 -0.765563E-08  0.224E-04    1.08      89.1  T
     SCC iter.                  ...        0 min,  0.013 sec
     gradient                   ...        0 min,  0.011 sec
 * total energy  :   -42.0850517 Eh     change       -0.1748905E-02 Eh
   gradient norm :     0.0737573 Eh/α   predicted    -0.1984856E-02 (  13.49%)
   displ. norm   :     0.4287309 α      lambda       -0.2434434E-02
   maximum displ.:     0.3174174 α      in ANC's #1, #2, #3, ...

........................................................................
.............................. CYCLE   46 ..............................
........................................................................

 iter      E             dE          RMSdq      gap      omega  full diag
   1    -42.6003384 -0.426003E+02  0.233E-01    1.04       0.0  T
   2    -42.5987877  0.155064E-02  0.249E-01    1.22       1.0  T
   3    -42.5996352 -0.847418E-03  0.175E-01    1.00       1.0  T
   4    -42.6005165 -0.881378E-03  0.605E-02    1.10       1.0  T
   5    -42.6006266 -0.110078E-03  0.974E-03    1.09       2.1  T
   6    -42.6006291 -0.243675E-05  0.327E-03    1.09       6.1  T
   7    -42.6006291 -0.461160E-07  0.170E-03    1.09      11.8  T
   8    -42.6006292 -0.516793E-07  0.595E-04    1.09      33.6  T
   9    -42.6006292 -0.849177E-08  0.226E-04    1.09      88.6  T
     SCC iter.                  ...        0 min,  0.011 sec
     gradient                   ...        0 min,  0.011 sec
 * total energy  :   -42.0869357 Eh     change       -0.1883980E-02 Eh
   gradient norm :     0.0189633 Eh/α   predicted    -0.1440958E-02 ( -23.52%)
   displ. norm   :     0.5838238 α      lambda       -0.2479438E-02
   maximum displ.:     0.4170845 α      in ANC's #1, #2, #3, ...

........................................................................
.............................. CYCLE   47 ..............................
........................................................................

 iter      E             dE          RMSdq      gap      omega  full diag
   1    -42.5965815 -0.425966E+02  0.283E-01    1.03       0.0  T
   2    -42.5944876  0.209388E-02  0.297E-01    1.24       1.0  T
   3    -42.5954256 -0.937955E-03  0.215E-01    0.97       1.0  T
   4    -42.5968173 -0.139170E-02  0.703E-02    1.11       1.0  T
   5    -42.5969824 -0.165159E-03  0.137E-02    1.09       1.5  T
   6    -42.5969880 -0.560365E-05  0.376E-03    1.08       5.3  T
   7    -42.5969880 -0.262969E-07  0.206E-03    1.08       9.7  T
   8    -42.5969881 -0.693431E-07  0.836E-04    1.08      23.9  T
   9    -42.5969881 -0.179065E-07  0.296E-04    1.08      67.6  T
     SCC iter.                  ...        0 min,  0.011 sec
     gradient                   ...        0 min,  0.011 sec
 * total energy  :   -42.0889398 Eh     change       -0.2004060E-02 Eh
   gradient norm :     0.0290732 Eh/α   predicted    -0.1662279E-02 ( -17.05%)
   displ. norm   :     0.6404066 α      lambda       -0.2992785E-02
   maximum displ.:     0.4465333 α      in ANC's #1, #3, #2, ...

........................................................................
.............................. CYCLE   48 ..............................
........................................................................

 iter      E             dE          RMSdq      gap      omega  full diag
   1    -42.5998392 -0.425998E+02  0.307E-01    1.27       0.0  T
   2    -42.5813591  0.184801E-01  0.686E-01    0.73       1.0  T
   3    -42.6018498 -0.204907E-01  0.131E-01    1.16       1.0  T
   4    -42.6019875 -0.137723E-03  0.455E-02    1.10       1.0  T
   5    -42.6020544 -0.669329E-04  0.129E-02    1.11       1.6  T
   6    -42.6020596 -0.511615E-05  0.431E-03    1.12       4.6  T
   7    -42.6020599 -0.293381E-06  0.178E-03    1.12      11.2  T
   8    -42.6020599 -0.130934E-07  0.103E-03    1.12      19.4  T
   9    -42.6020599 -0.276132E-07  0.381E-04    1.12      52.4  T
[...]
O           -1.26948412323170       -3.31583990123949        2.17768244363134
N           -1.07729560274364       -1.79083336786970        0.33963924167181
C           -1.97149402708098       -1.44835220396750       -0.76391749447298
H            3.56524806777064        1.22166008529357        1.04108875032940
H            3.84124540531965        0.60292196224381       -0.59983266279467
H            2.60653391469498        1.84917413076026       -0.32938839319394
H            3.33725811264484       -1.55518226370517        1.17493385213609
H           -1.35294642725266        3.23685490416588       -1.13807424680438
H           -2.73157988893661        2.14297180836753       -1.44956190226800
H           -2.48035844399475        2.79428783236720        0.17155843867619
H           -1.58745636784940       -1.86946262827966       -1.69226050843478
H           -2.00576065611582       -0.35442894085791       -0.83689348394474
H           -2.96297214606759       -1.84549546600522       -0.56284714925159
H            1.18088584325833       -2.90356451700451        1.27102421153687

 Bond Distances (Angstroems)
 ---------------------------
C1-N2=1.4429         C1-H15=1.0892        C1-H16=1.0898        C1-H17=1.0915        N2-C1=1.4429         N2-C3=1.3263         
N2-C6=1.3784         C3-N2=1.3263         C3-N4=1.3362         C3-H18=1.0728        N4-C3=1.3362         N4-C5=1.3758         
N4-H25=1.0112        C5-N4=1.3758         C5-C6=1.3898         C5-N13=1.4120        C6-N2=1.3784         C6-C5=1.3898         
C6-C7=1.5142         C7-C6=1.5142         C7-O8=1.2337         C7-N9=1.3140         O8-C7=1.2337         N9-C7=1.3140         
N9-C10=1.4173        C10-N9=1.4173        C10-H19=1.0947       C10-H20=1.0932       C10-H21=1.0937       C11-O12=1.1698       
C11-N13=1.2889       O12-C11=1.1698       N13-C5=1.4120        N13-C11=1.2889       N13-C14=1.4611       C14-N13=1.4611       
C14-H22=1.0893       C14-H23=1.0969       C14-H24=1.0868       H15-C1=1.0892        H16-C1=1.0898        H17-C1=1.0915        
H18-C3=1.0728        H19-C10=1.0947       H20-C10=1.0932       H21-C10=1.0937       H22-C14=1.0893       H23-C14=1.0969       
H24-C14=1.0868       H25-N4=1.0112        
 C  H  Rav=1.0898 sigma=0.0063  Rmin=1.0728  Rmax=1.0969    10
 C  C  Rav=1.4520 sigma=0.0622  Rmin=1.3898  Rmax=1.5142     2
 N  H  Rav=1.0112 sigma=0.0000  Rmin=1.0112  Rmax=1.0112     1
 N  C  Rav=1.3753 sigma=0.0550  Rmin=1.2889  Rmax=1.4611    10
 O  C  Rav=1.2017 sigma=0.0320  Rmin=1.1698  Rmax=1.2337     2

 selected bond angles (degree)
 --------------------
H15-C1-N2=109.96               H16-C1-N2=109.78               H16-C1-H15=109.12              H17-C1-N2=109.02               
H17-C1-H15=110.01              H17-C1-H16=108.93              C3-N2-C1=122.93                C6-N2-C1=127.64                
C6-N2-C3=109.43                N4-C3-N2=109.09                H18-C3-N2=125.45               H18-C3-N4=125.45               
C5-N4-C3=108.61                H25-N4-C3=125.43               H25-N4-C5=125.96               C6-C5-N4=106.94                
N13-C5-N4=118.88               N13-C5-C6=134.18               C5-C6-N2=105.92                C7-C6-N2=121.40                
C7-C6-C5=132.57                O8-C7-C6=120.06                N9-C7-C6=112.82                N9-C7-O8=127.10                
C10-N9-C7=121.50               H19-C10-N9=112.30              H20-C10-N9=109.32              H20-C10-H19=109.55             
H21-C10-N9=108.72              H21-C10-H19=109.20             H21-C10-H20=107.63             

 selected dihedral angles (degree)
 ---------------------------------
C3-N2-C1-H15=301.92           C3-N2-C1-H16= 61.99           C3-N2-C1-H17=181.24           C6-N2-C1-H15=121.79           
C6-N2-C1-H16=241.86           C6-N2-C1-H17=  1.11           N4-C3-N2-C1=180.70            N4-C3-N2-C6=  0.81            
H18-C3-N2-C1=  0.71           H18-C3-N2-C6=180.83           C5-N4-C3-N2=359.68            C5-N4-C3-H18=179.67           
H25-N4-C3-N2=180.72           H25-N4-C3-H18=  0.71          C6-C5-N4-C3=359.71            C6-C5-N4-H25=178.66           
N13-C5-N4-C3=179.65           N13-C5-N4-H25=358.61          C5-C6-N2-C1=179.15            C5-C6-N2-C3=359.03            
C7-C6-N2-C1=355.75            C7-C6-N2-C3=175.64            N2-C6-C5-N4=  0.76            N2-C6-C5-N13=180.83           
C7-C6-C5-N4=184.69            C7-C6-C5-N13=  4.76           O8-C7-C6-N2= 16.34            O8-C7-C6-C5=191.91            
N9-C7-C6-N2=197.84            N9-C7-C6-C5= 13.41            C10-N9-C7-C6=175.50           C10-N9-C7-O8=357.13           
H19-C10-N9-C7=  2.56          H20-C10-N9-C7=124.37          H21-C10-N9-C7=241.61          
           -------------------------------------------------
          |                Final Singlepoint                |
           -------------------------------------------------

          ...................................................
          :                      SETUP                      :
          :.................................................:
          :  # basis functions                  67          :
          :  # atomic orbitals                  67          :
          :  # shells                           39          :
          :  # electrons                        74          :
          :  max. iterations                   250          :
          :  Hamiltonian                  GFN2-xTB          :
          :  restarted?                      false          :
          :  GBSA solvation                  false          :
          :  PC potential                    false          :
          :  electronic temp.         5000.0000000     K    :
          :  accuracy                    1.0000000          :
          :  -> integral cutoff          0.2500000E+02      :
          :  -> integral neglect         0.1000000E-07      :
          :  -> SCF convergence          0.1000000E-05 Eh   :
          :  -> wf. convergence          0.1000000E-03 e    :
          :  Broyden damping             0.4000000          :
          ...................................................

 iter      E             dE          RMSdq      gap      omega  full diag
   1    -42.6483713 -0.426484E+02  0.152E-04    1.16       0.0  T
   2    -42.6483713  0.378670E-09  0.148E-04    1.16     135.3  T
   3    -42.6483713 -0.150735E-09  0.122E-04    1.16     164.2  T

   *** convergence criteria satisfied after 3 iterations ***

         #    Occupation            Energy/Eh            Energy/eV
      -------------------------------------------------------------
         1        2.0000           -0.9272262             -25.2311
       ...           ...                  ...                  ...
        31        1.9995           -0.6147886             -16.7292
        32        1.9991           -0.6052172             -16.4688
        33        1.9984           -0.5952481             -16.1975
        34        1.9951           -0.5773442             -15.7103
        35        1.9365           -0.5364187             -14.5967
        36        1.7288           -0.5116362             -13.9223
        37        1.6991           -0.5097183             -13.8701 (HOMO)
        38        0.5501           -0.4669629             -12.7067 (LUMO)
        39        0.0587           -0.4269100             -11.6168
        40        0.0337           -0.4179259             -11.3723
        41        0.0018           -0.3716121             -10.1121
        42        0.0000           -0.2949013              -8.0247
       ...           ...                  ...                  ...
        67                          0.7623810              20.7454
      -------------------------------------------------------------
                  HL-Gap            0.0427554 Eh            1.1634 eV
             Fermi-level           -0.4823075 Eh          -13.1243 eV

 SCC (total)                   0 d,  0 h,  0 min,  0.021 sec
 SCC setup                      ...        0 min,  0.000 sec (  0.938%)
 Dispersion                     ...        0 min,  0.000 sec (  0.828%)
 classical contributions        ...        0 min,  0.000 sec (  0.320%)
 integral evaluation            ...        0 min,  0.004 sec ( 20.142%)
 iterations                     ...        0 min,  0.004 sec ( 21.584%)
 molecular gradient             ...        0 min,  0.011 sec ( 55.555%)
 printout                       ...        0 min,  0.000 sec (  0.599%)

         :::::::::::::::::::::::::::::::::::::::::::::::::::::
         ::                     SUMMARY                     ::
         :::::::::::::::::::::::::::::::::::::::::::::::::::::
         :: total energy             -42.118356254232 Eh    ::
         :: gradient norm              0.003203642507 Eh/a0 ::
         :: HOMO-LUMO gap              1.163433540070 eV    ::
         ::.................................................::
         :: SCC energy               -42.648371323791 Eh    ::
         :: -> isotropic ES            0.139267810752 Eh    ::
         :: -> anisotropic ES         -0.010058784279 Eh    ::
         :: -> anisotropic XC          0.017543487173 Eh    ::
         :: -> dispersion             -0.021716968589 Eh    ::
         :: repulsion energy           0.529841870676 Eh    ::
         :: add. restraining           0.000000929957 Eh    ::
         :: total charge               1.000000000010 e     ::
         :::::::::::::::::::::::::::::::::::::::::::::::::::::

           -------------------------------------------------
          |                Property Printout                |
           -------------------------------------------------

    * Orbital Energies and Occupations

         #    Occupation            Energy/Eh            Energy/eV
      -------------------------------------------------------------
         1        2.0000           -0.9272262             -25.2311
       ...           ...                  ...                  ...
        25        2.0000           -0.6673292             -18.1590
        26        2.0000           -0.6658509             -18.1187
        27        1.9999           -0.6388535             -17.3841
        28        1.9999           -0.6369899             -17.3334
        29        1.9997           -0.6242266             -16.9861
        30        1.9996           -0.6173743             -16.7996
        31        1.9995           -0.6147886             -16.7292
        32        1.9991           -0.6052172             -16.4688
        33        1.9984           -0.5952481             -16.1975
        34        1.9951           -0.5773442             -15.7103
        35        1.9365           -0.5364187             -14.5967
        36        1.7288           -0.5116362             -13.9223
        37        1.6991           -0.5097183             -13.8701 (HOMO)
        38        0.5501           -0.4669629             -12.7067 (LUMO)
        39        0.0587           -0.4269100             -11.6168
        40        0.0337           -0.4179259             -11.3723
        41        0.0018           -0.3716121             -10.1121
        42        0.0000           -0.2949013              -8.0247
        43        0.0000           -0.2169831              -5.9044
        44                         -0.1916870              -5.2161
        45                         -0.1388640              -3.7787
        46                         -0.0771675              -2.0998
        47                         -0.0575119              -1.5650
        48                         -0.0459722              -1.2510
       ...                                ...                  ...
        67                          0.7623810              20.7454
      -------------------------------------------------------------
                  HL-Gap            0.0427554 Eh            1.1634 eV
             Fermi-level           -0.4823075 Eh          -13.1243 eV

     #   Z          covCN         q      C6AA      α(0)
     1   6 C        3.694    -0.101    22.615     6.804
     2   7 N        2.858     0.086    19.752     6.601
     3   6 C        3.028     0.056    26.714     8.478
     4   7 N        2.803    -0.057    22.342     7.020
     5   6 C        3.048     0.089    25.971     8.358
     6   6 C        3.073     0.011    27.699     8.629
     7   6 C        2.763     0.281    22.252     7.725
     8   8 O        0.858    -0.415    21.979     6.286
     9   7 N        1.832    -0.265    27.739     7.805
    10   6 C        3.701    -0.027    21.214     6.586
    11   6 C        1.820     0.259    25.206     8.112
    12   8 O        0.856    -0.168    17.561     5.618
    13   7 N        2.729     0.025    20.811     6.775
    14   6 C        3.704    -0.098    22.535     6.787
    15   1 H        0.925     0.102     1.765     2.077
    16   1 H        0.925     0.106     1.735     2.060
    17   1 H        0.924     0.157     1.346     1.814
    18   1 H        0.926     0.128     1.548     1.946
    19   1 H        0.924     0.089     1.888     2.149
    20   1 H        0.924     0.082     1.962     2.191
    21   1 H        0.924     0.089     1.892     2.151
    22   1 H        0.925     0.099     1.795     2.095
    23   1 H        0.924     0.138     1.474     1.899
    24   1 H        0.925     0.107     1.725     2.054
    25   1 H        0.860     0.229     0.970     1.543

 Mol. C6AA /au·bohr⁶  :       6581.716149
 Mol. C8AA /au·bohr⁸  :     151262.846093
 Mol. α(0) /au        :        123.562042


Wiberg/Mayer (AO) data.
largest (>0.10) Wiberg bond orders for each atom

 ---------------------------------------------------------------------------
     #   Z sym  total        # sym  WBO       # sym  WBO       # sym  WBO
 ---------------------------------------------------------------------------
     1   6 C    3.892 --     2 N    0.978    15 H    0.961    16 H    0.958
                            17 H    0.936
     2   7 N    3.701 --     3 C    1.385     6 C    1.192     1 C    0.978
     3   6 C    3.885 --     2 N    1.385     4 N    1.317    18 H    0.951
     4   7 N    3.595 --     3 C    1.317     5 C    1.178    25 H    0.918
     5   6 C    3.854 --     6 C    1.444     4 N    1.178    13 N    1.011
     6   6 C    3.881 --     5 C    1.444     2 N    1.192     7 C    0.957
     7   6 C    3.928 --     8 O    1.529     9 N    1.377     6 C    0.957
     8   8 O    1.805 --     7 C    1.529     9 N    0.151
     9   7 N    2.722 --     7 C    1.377    10 C    1.064     8 O    0.151
    10   6 C    3.901 --     9 N    1.064    20 H    0.937    19 H    0.936
                            21 H    0.930
    11   6 C    3.449 --    12 O    1.963    13 N    1.398
    12   8 O    2.199 --    11 C    1.963    13 N    0.170
    13   7 N    3.585 --    11 C    1.398     5 C    1.011    14 C    0.937
                            12 O    0.170
    14   6 C    3.863 --    24 H    0.974    22 H    0.968    13 N    0.937
                            23 H    0.917
    15   1 H    0.987 --     1 C    0.961
    16   1 H    0.986 --     1 C    0.958
    17   1 H    0.974 --     1 C    0.936
    18   1 H    0.983 --     3 C    0.951
    19   1 H    0.942 --    10 C    0.936
    20   1 H    0.957 --    10 C    0.937
    21   1 H    0.950 --    10 C    0.930
    22   1 H    0.989 --    14 C    0.968
    23   1 H    0.979 --    14 C    0.917
    24   1 H    0.987 --    14 C    0.974
    25   1 H    0.947 --     4 N    0.918
 ---------------------------------------------------------------------------

Topologies differ in total number of bonds
Writing topology from bond orders to xtbtopo.mol

molecular dipole:
                 x           y           z       tot (Debye)
 q only:        1.111      -2.365       0.664
   full:        1.232      -2.647       0.801       7.694
molecular quadrupole (traceless):
                xx          xy          yy          xz          yz          zz
 q only:       19.929      -5.286      -2.743      10.857      -0.281     -17.186
  q+dip:       18.653      -8.087      -1.127      11.518       0.019     -17.526
   full:       18.679      -8.278      -1.935      11.747       1.453     -16.744

           -------------------------------------------------
          |                Geometry Summary                 |
           -------------------------------------------------

      molecular mass/u    :      195.1988581
   center of mass at/Å    :        0.1166481      -0.3703517       0.2048849
  moments of inertia/u·Å² :        0.5625258E+03   0.8140537E+03   0.1294642E+04
rotational constants/cm⁻¹ :        0.2996775E-01   0.2070826E-01   0.1302107E-01

 * 24 selected distances

     #   Z          #   Z                                           value/Å
     1   6 C        2   7 N                                       1.4429178
     2   7 N        3   6 C                                       1.3262717
     3   6 C        4   7 N                                       1.3361529
     4   7 N        5   6 C                                       1.3757897
     2   7 N        6   6 C                                       1.3783941
     5   6 C        6   6 C                                       1.3897761
     7   6 C        8   8 O                                       1.2337252
     7   6 C        9   7 N                                       1.3139845
     9   7 N       10   6 C                                       1.4172650
    11   6 C       12   8 O                                       1.1697548
     5   6 C       13   7 N                                       1.4119602
    11   6 C       13   7 N                                       1.2889232
    13   7 N       14   6 C                                       1.4610688 (max)
     1   6 C       15   1 H                                       1.0891882
     1   6 C       16   1 H                                       1.0897578
     1   6 C       17   1 H                                       1.0914923
     3   6 C       18   1 H                                       1.0727879
    10   6 C       19   1 H                                       1.0946903
    10   6 C       20   1 H                                       1.0931732
    10   6 C       21   1 H                                       1.0936533
    14   6 C       22   1 H                                       1.0893300
    14   6 C       23   1 H                                       1.0968902
    14   6 C       24   1 H                                       1.0868216
     4   7 N       25   1 H                                       1.0111621 (min)

 * 5 distinct bonds (by element types)

   Z      Z             #   av. dist./Å        max./Å        min./Å
   1 H    6 C          10     1.0897785     1.0968902     1.0727879
   6 C    6 C           1     1.3897761     1.3897761     1.3897761
   1 H    7 N           1     1.0111621     1.0111621     1.0111621
   6 C    7 N          10     1.3752728     1.4610688     1.2889232
   6 C    8 O           2     1.2017400     1.2337252     1.1697548


optimized geometry written to: xtbopt.xyz


           -------------------------------------------------
          | TOTAL ENERGY              -42.118356254232 Eh   |
          | GRADIENT NORM               0.003203642507 Eh/α |
          | HOMO-LUMO GAP               1.163433540070 eV   |
           -------------------------------------------------

------------------------------------------------------------------------
 * finished run on 2024/06/05 at 20:00:16.412     
------------------------------------------------------------------------
 total:
 * wall-time:     0 d,  0 h,  0 min,  2.367 sec
 *  cpu-time:     0 d,  0 h,  0 min,  2.341 sec
 * ratio c/w:     0.989 speedup
 SCF:
 * wall-time:     0 d,  0 h,  0 min,  0.035 sec
 *  cpu-time:     0 d,  0 h,  0 min,  0.034 sec
 * ratio c/w:     0.998 speedup
 ANC optimizer:
 * wall-time:     0 d,  0 h,  0 min,  2.304 sec
 *  cpu-time:     0 d,  0 h,  0 min,  2.296 sec
 * ratio c/w:     0.997 speedup

