      -----------------------------------------------------------      
     |                   =====================                   |     
     |                           x T B                           |     
     |                   =====================                   |     
     |                         S. Grimme                         |     
     |          Mulliken Center for Theoretical Chemistry        |     
     |                    University of Bonn                     |     
      -----------------------------------------------------------      

   * xtb version 6.6.1 (8d0f1dd) compiled by 'conda@1efc2f54142f' on 2023-08-01

   xtb is free software: you can redistribute it and/or modify it under
   the terms of the GNU Lesser General Public License as published by
   the Free Software Foundation, either version 3 of the License, or
   (at your option) any later version.
   
   xtb is distributed in the hope that it will be useful,
   but WITHOUT ANY WARRANTY; without even the implied warranty of
   MERCHANTABILITY or FITNESS FOR A PARTICULAR PURPOSE.  See the
   GNU Lesser General Public License for more details.
   
   Cite this work as:
   * C. Bannwarth, E. Caldeweyher, S. Ehlert, A. Hansen, P. Pracht,
     J. Seibert, S. Spicher, S. Grimme, WIREs Comput. Mol. Sci., 2020, 11,
     e01493. DOI: 10.1002/wcms.1493
   
   for GFN2-xTB:
   * C. Bannwarth, S. Ehlert and S. Grimme., J. Chem. Theory Comput., 2019,
     15, 1652-1671. DOI: 10.1021/acs.jctc.8b01176
   for GFN1-xTB:
   * S. Grimme, C. Bannwarth, P. Shushkov, J. Chem. Theory Comput., 2017,
     13, 1989-2009. DOI: 10.1021/acs.jctc.7b00118
   for GFN0-xTB:
   * P. Pracht, E. Caldeweyher, S. Ehlert, S. Grimme, ChemRxiv, 2019, preprint.
     DOI: 10.26434/chemrxiv.8326202.v1
   for GFN-FF:
   * S. Spicher and S. Grimme, Angew. Chem. Int. Ed., 2020, 59, 15665-15673.
     DOI: 10.1002/anie.202004239
   
   for ALPB and GBSA implicit solvation:
   * S. Ehlert, M. Stahn, S. Spicher, S. Grimme, J. Chem. Theory Comput.,
     2021, 17, 4250-4261. DOI: 10.1021/acs.jctc.1c00471
   
   for DFT-D4:
   * E. Caldeweyher, C. Bannwarth and S. Grimme, J. Chem. Phys., 2017,
     147, 034112. DOI: 10.1063/1.4993215
   * E. Caldeweyher, S. Ehlert, A. Hansen, H. Neugebauer, S. Spicher,
     C. Bannwarth and S. Grimme, J. Chem. Phys., 2019, 150, 154122.
     DOI: 10.1063/1.5090222
   * E. Caldeweyher, J.-M. Mewes, S. Ehlert and S. Grimme, Phys. Chem. Chem. Phys.
     2020, 22, 8499-8512. DOI: 10.1039/D0CP00502A
   
   for sTDA-xTB:
   * S. Grimme and C. Bannwarth, J. Chem. Phys., 2016, 145, 054103.
     DOI: 10.1063/1.4959605
   
   in the mass-spec context:
   * V. Asgeirsson, C. Bauer and S. Grimme, Chem. Sci., 2017, 8, 4879.
     DOI: 10.1039/c7sc00601b
   * J. Koopman and S. Grimme, ACS Omega 2019, 4, 12, 15120-15133.
     DOI: 10.1021/acsomega.9b02011
   
   for metadynamics refer to:
   * S. Grimme, J. Chem. Theory Comput., 2019, 155, 2847-2862
     DOI: 10.1021/acs.jctc.9b00143
   
   for SPH calculations refer to:
   * S. Spicher and S. Grimme, J. Chem. Theory Comput., 2021, 17, 1701-1714
     DOI: 10.1021/acs.jctc.0c01306
   
   with help from (in alphabetical order)
   P. Atkinson, C. Bannwarth, F. Bohle, G. Brandenburg, E. Caldeweyher
   M. Checinski, S. Dohm, S. Ehlert, S. Ehrlich, I. Gerasimov, C. Hölzer
   A. Katbashev, J. Koopman, C. Lavigne, S. Lehtola, F. März, M. Müller,
   F. Musil, H. Neugebauer, J. Pisarek, C. Plett, P. Pracht, F. Pultar,
   J. Seibert, P. Shushkov, S. Spicher, M. Stahn, M. Steiner, T. Strunk,
   J. Stückrath, T. Rose, and J. Unsleber
   
 * started run on 2024/06/05 at 19:58:07.397     

           -------------------------------------------------
          |                Calculation Setup                |
           -------------------------------------------------

          program call               : xtb struc.xyz --opt loose --input .xc1 --gfn2
          hostname                   : n-62-21-71
          coordinate file            : struc.xyz
          omp threads                :                     1

   ID    Z sym.   atoms
    1    6 C      1, 3, 5-7, 10, 11, 14
    2    7 N      2, 4, 9, 13
    3    8 O      8, 12
    4    1 H      15-25
constraining bond 20 21 to    3.2800000 Å, actual value:    1.7685310 Å

           -------------------------------------------------
          |                 G F N 2 - x T B                 |
           -------------------------------------------------

        Reference                      10.1021/acs.jctc.8b01176
      * Hamiltonian:
        H0-scaling (s, p, d)           1.850000    2.230000    2.230000
        zeta-weighting                 0.500000
      * Dispersion:
        s8                             2.700000
        a1                             0.520000
        a2                             5.000000
        s9                             5.000000
      * Repulsion:
        kExp                           1.500000    1.000000
        rExp                           1.000000
      * Coulomb:
        alpha                          2.000000
        third order                    shell-resolved
        anisotropic                    true
        a3                             3.000000
        a5                             4.000000
        cn-shift                       1.200000
        cn-exp                         4.000000
        max-rad                        5.000000


          ...................................................
          :                      SETUP                      :
          :.................................................:
          :  # basis functions                  67          :
          :  # atomic orbitals                  67          :
          :  # shells                           39          :
          :  # electrons                        74          :
          :  max. iterations                   250          :
          :  Hamiltonian                  GFN2-xTB          :
          :  restarted?                      false          :
          :  GBSA solvation                  false          :
          :  PC potential                    false          :
          :  electronic temp.         2500.0000000     K    :
          :  accuracy                    1.0000000          :
          :  -> integral cutoff          0.2500000E+02      :
          :  -> integral neglect         0.1000000E-07      :
          :  -> SCF convergence          0.1000000E-05 Eh   :
          :  -> wf. convergence          0.1000000E-03 e    :
          :  Broyden damping             0.4000000          :
          ...................................................

 iter      E             dE          RMSdq      gap      omega  full diag
   1    -42.5894761 -0.425895E+02  0.446E+00    3.52       0.0  T
   2    -42.7660496 -0.176573E+00  0.253E+00    3.37       1.0  T
   3    -42.7736311 -0.758158E-02  0.147E+00    3.27       1.0  T
   4    -42.7712089  0.242228E-02  0.522E-01    3.20       1.0  T
   5    -42.7763755 -0.516665E-02  0.115E-01    3.24       1.0  T
   6    -42.7764786 -0.103096E-03  0.599E-02    3.22       1.0  T
   7    -42.7764977 -0.190557E-04  0.265E-02    3.24       1.0  T
   8    -42.7765022 -0.458752E-05  0.826E-03    3.24       2.4  T
   9    -42.7765028 -0.511866E-06  0.435E-03    3.24       4.6  T
  10    -42.7765028 -0.741126E-07  0.110E-03    3.24      18.2  T
  11    -42.7765028 -0.615289E-08  0.514E-04    3.24      38.9  T
  12    -42.7765028 -0.131732E-08  0.162E-04    3.24     123.6  T

   *** convergence criteria satisfied after 12 iterations ***

         #    Occupation            Energy/Eh            Energy/eV
      -------------------------------------------------------------
         1        2.0000           -0.9218663             -25.0853
       ...           ...                  ...                  ...
        31        2.0000           -0.6245728             -16.9955
        32        2.0000           -0.6188521             -16.8398
        33        2.0000           -0.5946289             -16.1807
        34        1.9999           -0.5766508             -15.6915
        35        1.9996           -0.5616187             -15.2824
        36        1.9994           -0.5584494             -15.1962
        37        1.9993           -0.5575820             -15.1726 (HOMO)
        38        0.0017           -0.4385664             -11.9340 (LUMO)
        39        0.0000           -0.4059970             -11.0477
        40        0.0000           -0.3720875             -10.1250
        41                         -0.2883077              -7.8453
        42                         -0.2064013              -5.6165
       ...                                ...                  ...
        67                          0.5638960              15.3444
      -------------------------------------------------------------
                  HL-Gap            0.1190156 Eh            3.2386 eV
             Fermi-level           -0.4943591 Eh          -13.4522 eV

 SCC (total)                   0 d,  0 h,  0 min,  0.062 sec
 SCC setup                      ...        0 min,  0.000 sec (  0.377%)
 Dispersion                     ...        0 min,  0.000 sec (  0.505%)
 classical contributions        ...        0 min,  0.000 sec (  0.125%)
 integral evaluation            ...        0 min,  0.005 sec (  8.456%)
 iterations                     ...        0 min,  0.030 sec ( 48.525%)
 molecular gradient             ...        0 min,  0.026 sec ( 41.713%)
 printout                       ...        0 min,  0.000 sec (  0.277%)

         :::::::::::::::::::::::::::::::::::::::::::::::::::::
         ::                     SUMMARY                     ::
         :::::::::::::::::::::::::::::::::::::::::::::::::::::
         :: total energy             -38.166166674600 Eh    ::
         :: gradient norm              4.039363688842 Eh/a0 ::
         :: HOMO-LUMO gap              3.238579380711 eV    ::
         ::.................................................::
         :: SCC energy               -42.776502838750 Eh    ::
         :: -> isotropic ES            0.143394945287 Eh    ::
         :: -> anisotropic ES         -0.005231236584 Eh    ::
         :: -> anisotropic XC          0.012162721064 Eh    ::
         :: -> dispersion             -0.022660936007 Eh    ::
         :: repulsion energy           0.531105277918 Eh    ::
         :: add. restraining           4.079116727223 Eh    ::
         :: total charge               1.000000000000 e     ::
         :::::::::::::::::::::::::::::::::::::::::::::::::::::

      ----------------------------------------------------------- 
     |                   =====================                   |
     |                        A N C O P T                        |
     |                   =====================                   |
     |               Approximate Normal Coordinate               |
     |                Rational Function Optimizer                |
      ----------------------------------------------------------- 

          ...................................................
          :                      SETUP                      :
          :.................................................:
          :   optimization level             loose          :
          :   max. optcycles                   200          :
          :   ANC micro-cycles                  20          :
          :   degrees of freedom                69          :
          :.................................................:
          :   RF solver                   davidson          :
          :   write xtbopt.log                true          :
          :   linear?                        false          :
          :   energy convergence         0.5000000E-04 Eh   :
          :   grad. convergence          0.4000000E-02 Eh/α :
          :   maxmium RF displ.          1.0000000          :
          :   Hlow (freq-cutoff)         0.1000000E-01      :
          :   Hmax (freq-cutoff)         5.0000000          :
          :   S6 in model hess.         20.0000000          :
          ...................................................

generating ANC from model Hessian ...
Using Lindh-Hessian (1995)
 Shifting diagonal of input Hessian by    1.6301800278552683     
 Lowest  eigenvalues of input Hessian
    0.010000    0.071050    0.000000    0.000000    0.000000    0.000000
    0.000000    0.000000    1.633072    1.637226    1.638755    1.639476
    1.641505    1.641757    1.644232    1.648907    1.652652    1.656805
 Highest eigenvalues
    3.778879    3.856175    3.915000    3.999266    4.046870    4.172889


........................................................................
.............................. CYCLE    1 ..............................
........................................................................

 iter      E             dE          RMSdq      gap      omega  full diag
   1    -42.7765028 -0.427765E+02  0.540E-05    3.24       0.0  T
   2    -42.7765028 -0.643041E-11  0.289E-05    3.24     692.1  T
   3    -42.7765028  0.881073E-12  0.138E-05    3.24    1448.6  T
     SCC iter.                  ...        0 min,  0.005 sec
     gradient                   ...        0 min,  0.013 sec
 * total energy  :   -38.1661667 Eh     change       -0.6633627E-10 Eh
   gradient norm :     4.0393635 Eh/α   predicted     0.0000000E+00 (-100.00%)
   displ. norm   :     0.6268674 α      lambda       -0.2527855E+01
   maximum displ.:     0.6018423 α      in ANC's #67, #50, #52, ...

........................................................................
.............................. CYCLE    2 ..............................
........................................................................

 iter      E             dE          RMSdq      gap      omega  full diag
   1    -42.7132121 -0.427132E+02  0.734E-01    3.20       0.0  T
   2    -42.7137728 -0.560763E-03  0.415E-01    3.21       1.0  T
   3    -42.7137414  0.314673E-04  0.120E-01    3.14       1.0  T
   4    -42.7138228 -0.814576E-04  0.164E-02    3.15       1.2  T
   5    -42.7138245 -0.163199E-05  0.945E-03    3.15       2.1  T
   6    -42.7138246 -0.104976E-06  0.405E-03    3.15       4.9  T
   7    -42.7138248 -0.236716E-06  0.102E-03    3.15      19.6  T
   8    -42.7138248 -0.814136E-08  0.410E-04    3.15      48.7  T
   9    -42.7138248 -0.892420E-09  0.904E-05    3.15     221.2  T
     SCC iter.                  ...        0 min,  0.026 sec
     gradient                   ...        0 min,  0.026 sec
 * total energy  :   -40.2680149 Eh     change       -0.2101848E+01 Eh
   gradient norm :     2.6921042 Eh/α   predicted    -0.1760852E+01 ( -16.22%)
   displ. norm   :     0.6783191 α      lambda       -0.1824060E+01
   maximum displ.:     0.6505643 α      in ANC's #67, #50, #52, ...

........................................................................
.............................. CYCLE    3 ..............................
........................................................................

 iter      E             dE          RMSdq      gap      omega  full diag
   1    -42.6306667 -0.426307E+02  0.651E-01    2.94       0.0  T
   2    -42.6313198 -0.653096E-03  0.352E-01    3.00       1.0  T
   3    -42.6311868  0.133001E-03  0.226E-01    2.89       1.0  T
   4    -42.6316527 -0.465947E-03  0.125E-02    2.92       1.6  T
   5    -42.6316539 -0.115829E-05  0.685E-03    2.92       2.9  T
   6    -42.6316538  0.691672E-07  0.276E-03    2.93       7.2  T
   7    -42.6316539 -0.113750E-06  0.111E-03    2.92      18.0  T
   8    -42.6316539 -0.128103E-07  0.198E-04    2.92     100.8  T
   9    -42.6316539 -0.333088E-09  0.526E-05    2.92     380.2  T
     SCC iter.                  ...        0 min,  0.025 sec
     gradient                   ...        0 min,  0.026 sec
 * total energy  :   -41.6230117 Eh     change       -0.1354997E+01 Eh
   gradient norm :     1.3147249 Eh/α   predicted    -0.1331701E+01 (  -1.72%)
   displ. norm   :     0.4913400 α      lambda       -0.6454220E+00
   maximum displ.:     0.4723826 α      in ANC's #67, #50, #52, ...

........................................................................
.............................. CYCLE    4 ..............................
........................................................................

 iter      E             dE          RMSdq      gap      omega  full diag
   1    -42.5723804 -0.425724E+02  0.337E-01    2.68       0.0  T
   2    -42.5724000 -0.195298E-04  0.175E-01    2.74       1.0  T
   3    -42.5723364  0.635933E-04  0.175E-01    2.67       1.0  T
   4    -42.5727254 -0.389003E-03  0.910E-03    2.69       2.2  T
   5    -42.5727259 -0.474079E-06  0.366E-03    2.69       5.5  T
   6    -42.5727259 -0.363379E-07  0.175E-03    2.69      11.4  T
   7    -42.5727259 -0.241389E-07  0.659E-04    2.69      30.3  T
   8    -42.5727259 -0.381183E-08  0.267E-04    2.69      75.0  T
     SCC iter.                  ...        0 min,  0.011 sec
     gradient                   ...        0 min,  0.026 sec
 * total energy  :   -42.0282744 Eh     change       -0.4052628E+00 Eh
   gradient norm :     0.3393014 Eh/α   predicted    -0.4006183E+00 (  -1.15%)
   displ. norm   :     0.1668867 α      lambda       -0.5652671E-01
   maximum displ.:     0.1599925 α      in ANC's #67, #41, #50, ...

........................................................................
.............................. CYCLE    5 ..............................
........................................................................

 iter      E             dE          RMSdq      gap      omega  full diag
   1    -42.5546877 -0.425547E+02  0.112E-01    2.59       0.0  T
   2    -42.5546780  0.974553E-05  0.578E-02    2.61       1.0  T
   3    -42.5546703  0.765741E-05  0.640E-02    2.59       1.0  T
   4    -42.5547302 -0.599341E-04  0.422E-03    2.60       4.7  T
   5    -42.5547303 -0.461376E-07  0.168E-03    2.60      11.9  T
   6    -42.5547303 -0.143249E-07  0.603E-04    2.60      33.2  T
   7    -42.5547303 -0.206288E-08  0.290E-04    2.60      69.0  T
     SCC iter.                  ...        0 min,  0.023 sec
     gradient                   ...        0 min,  0.026 sec
 * total energy  :   -42.0577251 Eh     change       -0.2945063E-01 Eh
   gradient norm :     0.0318738 Eh/α   predicted    -0.2905094E-01 (  -1.36%)
   displ. norm   :     0.0163552 α      lambda       -0.5015764E-03
   maximum displ.:     0.0073859 α      in ANC's #67, #41, #33, ...

........................................................................
.............................. CYCLE    6 ..............................
........................................................................

 iter      E             dE          RMSdq      gap      omega  full diag
   1    -42.5547116 -0.425547E+02  0.205E-02    2.58       0.0  T
   2    -42.5547124 -0.788236E-06  0.116E-02    2.59       1.7  T
   3    -42.5547121  0.289428E-06  0.919E-03    2.58       2.2  T
   4    -42.5547135 -0.142973E-05  0.276E-03    2.58       7.3  T
   5    -42.5547136 -0.735580E-07  0.106E-03    2.58      18.9  T
   6    -42.5547136 -0.821609E-08  0.405E-04    2.58      49.4  T
   7    -42.5547136 -0.207950E-08  0.149E-04    2.58     134.2  T
     SCC iter.                  ...        0 min,  0.023 sec
     gradient                   ...        0 min,  0.026 sec
 * total energy  :   -42.0581533 Eh     change       -0.4282700E-03 Eh
   gradient norm :     0.0263698 Eh/α   predicted    -0.2514338E-03 ( -41.29%)
   displ. norm   :     0.0652770 α      lambda       -0.1608475E-02
   maximum displ.:     0.0267693 α      in ANC's #33, #41, #36, ...

........................................................................
.............................. CYCLE    7 ..............................
........................................................................

 iter      E             dE          RMSdq      gap      omega  full diag
   1    -42.5565768 -0.425566E+02  0.857E-02    2.52       0.0  T
   2    -42.5565916 -0.148078E-04  0.502E-02    2.54       1.0  T
   3    -42.5565862  0.535707E-05  0.378E-02    2.52       1.0  T
   4    -42.5566094 -0.231337E-04  0.130E-02    2.53       1.5  T
   5    -42.5566112 -0.180093E-05  0.474E-03    2.53       4.2  T
   6    -42.5566113 -0.166967E-06  0.185E-03    2.53      10.8  T
   7    -42.5566114 -0.464115E-07  0.619E-04    2.53      32.3  T
   8    -42.5566114 -0.177619E-08  0.222E-04    2.53      90.1  T
     SCC iter.                  ...        0 min,  0.024 sec
     gradient                   ...        0 min,  0.026 sec
 * total energy  :   -42.0592110 Eh     change       -0.1057631E-02 Eh
   gradient norm :     0.0283197 Eh/α   predicted    -0.8089499E-03 ( -23.51%)
   displ. norm   :     0.0457254 α      lambda       -0.6497257E-03
   maximum displ.:     0.0201401 α      in ANC's #33, #22, #41, ...

........................................................................
.............................. CYCLE    8 ..............................
........................................................................

 iter      E             dE          RMSdq      gap      omega  full diag
   1    -42.5586222 -0.425586E+02  0.559E-02    2.50       0.0  T
   2    -42.5586284 -0.622214E-05  0.332E-02    2.51       1.0  T
   3    -42.5586243  0.407704E-05  0.243E-02    2.50       1.0  T
   4    -42.5586336 -0.931246E-05  0.878E-03    2.50       2.3  T
   5    -42.5586346 -0.971580E-06  0.288E-03    2.50       7.0  T
   6    -42.5586347 -0.578921E-07  0.117E-03    2.50      17.1  T
   7    -42.5586347 -0.175463E-07  0.378E-04    2.50      52.9  T
   8    -42.5586347 -0.730751E-09  0.137E-04    2.50     146.0  T
     SCC iter.                  ...        0 min,  0.011 sec
     gradient                   ...        0 min,  0.026 sec
 * total energy  :   -42.0596702 Eh     change       -0.4592151E-03 Eh
   gradient norm :     0.0258012 Eh/α   predicted    -0.3255519E-03 ( -29.11%)
   displ. norm   :     0.0403485 α      lambda       -0.4780779E-03
   maximum displ.:     0.0188271 α      in ANC's #33, #22, #21, ...

........................................................................
.............................. CYCLE    9 ..............................
........................................................................

 iter      E             dE          RMSdq      gap      omega  full diag
   1    -42.5604298 -0.425604E+02  0.426E-02    2.50       0.0  T
   2    -42.5604323 -0.249026E-05  0.249E-02    2.50       1.0  T
   3    -42.5604295  0.278857E-05  0.136E-02    2.49       1.5  T
   4    -42.5604323 -0.279356E-05  0.645E-03    2.50       3.1  T
   5    -42.5604331 -0.798391E-06  0.154E-03    2.50      13.0  T
   6    -42.5604331 -0.104955E-07  0.735E-04    2.50      27.2  T
   7    -42.5604331 -0.510904E-08  0.222E-04    2.50      90.2  T
     SCC iter.                  ...        0 min,  0.023 sec
     gradient                   ...        0 min,  0.026 sec
 * total energy  :   -42.0600173 Eh     change       -0.3471455E-03 Eh
   gradient norm :     0.0226706 Eh/α   predicted    -0.2403191E-03 ( -30.77%)
   displ. norm   :     0.0446233 α      lambda       -0.4743531E-03
   maximum displ.:     0.0212659 α      in ANC's #33, #22, #21, ...

........................................................................
.............................. CYCLE   10 ..............................
........................................................................

 iter      E             dE          RMSdq      gap      omega  full diag
   1    -42.5617852 -0.425618E+02  0.441E-02    2.51       0.0  T
   2    -42.5617859 -0.668381E-06  0.266E-02    2.51       1.0  T
   3    -42.5617812  0.468421E-05  0.151E-02    2.51       1.3  T
   4    -42.5617864 -0.522628E-05  0.267E-03    2.51       7.5  T
   5    -42.5617866 -0.163321E-06  0.920E-04    2.51      21.7  T
   6    -42.5617866 -0.297680E-08  0.390E-04    2.51      51.3  T
     SCC iter.                  ...        0 min,  0.022 sec
     gradient                   ...        0 min,  0.026 sec
 * total energy  :   -42.0603805 Eh     change       -0.3632087E-03 Eh
   gradient norm :     0.0249818 Eh/α   predicted    -0.2377247E-03 ( -34.55%)
   displ. norm   :     0.0709806 α      lambda       -0.6868478E-03
   maximum displ.:     0.0338488 α      in ANC's #22, #33, #21, ...

........................................................................
.............................. CYCLE   11 ..............................
........................................................................

 iter      E             dE          RMSdq      gap      omega  full diag
   1    -42.5627507 -0.425628E+02  0.702E-02    2.54       0.0  T
   2    -42.5627510 -0.311694E-06  0.446E-02    2.54       1.0  T
   3    -42.5627342  0.168084E-04  0.327E-02    2.55       1.0  T
   4    -42.5627574 -0.232529E-04  0.374E-03    2.54       5.3  T
   5    -42.5627577 -0.236519E-06  0.141E-03    2.54      14.2  T
   6    -42.5627577 -0.906184E-08  0.472E-04    2.54      42.4  T
   7    -42.5627577 -0.224743E-08  0.221E-04    2.54      90.4  T
     SCC iter.                  ...        0 min,  0.010 sec
     gradient                   ...        0 min,  0.013 sec
 * total energy  :   -42.0608761 Eh     change       -0.4955926E-03 Eh
   gradient norm :     0.0282611 Eh/α   predicted    -0.3451628E-03 ( -30.35%)
   displ. norm   :     0.0670809 α      lambda       -0.5684839E-03
   maximum displ.:     0.0324358 α      in ANC's #22, #33, #21, ...

........................................................................
.............................. CYCLE   12 ..............................
........................................................................

 iter      E             dE          RMSdq      gap      omega  full diag
   1    -42.5625808 -0.425626E+02  0.657E-02    2.57       0.0  T
   2    -42.5625816 -0.875970E-06  0.438E-02    2.56       1.0  T
   3    -42.5625744  0.720729E-05  0.300E-02    2.58       1.0  T
   4    -42.5625912 -0.167378E-04  0.490E-03    2.57       4.1  T
   5    -42.5625915 -0.305142E-06  0.179E-03    2.57      11.2  T
   6    -42.5625915 -0.286300E-07  0.768E-04    2.57      26.0  T
   7    -42.5625915 -0.687671E-08  0.230E-04    2.57      87.1  T
     SCC iter.                  ...        0 min,  0.010 sec
     gradient                   ...        0 min,  0.013 sec
 * total energy  :   -42.0612629 Eh     change       -0.3867391E-03 Eh
   gradient norm :     0.0216477 Eh/α   predicted    -0.2855388E-03 ( -26.17%)
   displ. norm   :     0.0314079 α      lambda       -0.2612579E-03
   maximum displ.:     0.0150462 α      in ANC's #22, #21, #33, ...

........................................................................
.............................. CYCLE   13 ..............................
........................................................................

 iter      E             dE          RMSdq      gap      omega  full diag
   1    -42.5620094 -0.425620E+02  0.309E-02    2.57       0.0  T
   2    -42.5620109 -0.151463E-05  0.213E-02    2.56       1.0  T
   3    -42.5620111 -0.198867E-06  0.130E-02    2.57       1.5  T
   4    -42.5620134 -0.229601E-05  0.479E-03    2.57       4.2  T
   5    -42.5620137 -0.282339E-06  0.119E-03    2.57      16.9  T
   6    -42.5620137 -0.116197E-07  0.626E-04    2.57      32.0  T
   7    -42.5620137 -0.507931E-08  0.158E-04    2.57     126.6  T
     SCC iter.                  ...        0 min,  0.010 sec
     gradient                   ...        0 min,  0.013 sec
 * total energy  :   -42.0614308 Eh     change       -0.1679737E-03 Eh
   gradient norm :     0.0103291 Eh/α   predicted    -0.1307754E-03 ( -22.15%)
   displ. norm   :     0.0086361 α      lambda       -0.7403478E-04
   maximum displ.:     0.0036049 α      in ANC's #50, #67, #45, ...

........................................................................
.............................. CYCLE   14 ..............................
........................................................................

 iter      E             dE          RMSdq      gap      omega  full diag
   1    -42.5618894 -0.425619E+02  0.113E-02    2.57       0.0  T
   2    -42.5618901 -0.702775E-06  0.706E-03    2.57       2.8  T
   3    -42.5618901 -0.348502E-07  0.381E-03    2.57       5.3  T
   4    -42.5618901  0.479652E-07  0.250E-03    2.57       8.0  T
   5    -42.5618902 -0.121918E-06  0.363E-04    2.57      55.1  T
   6    -42.5618902 -0.120129E-08  0.262E-04    2.57      76.4  T
     SCC iter.                  ...        0 min,  0.009 sec
     gradient                   ...        0 min,  0.013 sec
 * total energy  :   -42.0614816 Eh     change       -0.5082115E-04 Eh
   gradient norm :     0.0068330 Eh/α   predicted    -0.3704596E-04 ( -27.11%)
   displ. norm   :     0.0081852 α      lambda       -0.4387061E-04
   maximum displ.:     0.0031222 α      in ANC's #45, #36, #47, ...

........................................................................
.............................. CYCLE   15 ..............................
........................................................................

 iter      E             dE          RMSdq      gap      omega  full diag
   1    -42.5621060 -0.425621E+02  0.117E-02    2.57       0.0  T
   2    -42.5621064 -0.438058E-06  0.717E-03    2.57       2.8  T
   3    -42.5621064 -0.119719E-08  0.379E-03    2.57       5.3  T
   4    -42.5621065 -0.257045E-07  0.152E-03    2.57      13.2  T
   5    -42.5621065 -0.612212E-07  0.423E-04    2.57      47.3  T
   6    -42.5621065 -0.256998E-08  0.162E-04    2.57     123.7  T
     SCC iter.                  ...        0 min,  0.009 sec
     gradient                   ...        0 min,  0.013 sec
 * total energy  :   -42.0615147 Eh     change       -0.3305931E-04 Eh
   gradient norm :     0.0070439 Eh/α   predicted    -0.2202728E-04 ( -33.37%)
   displ. norm   :     0.0119840 α      lambda       -0.4994385E-04
   maximum displ.:     0.0044183 α      in ANC's #45, #36, #22, ...

........................................................................
.............................. CYCLE   16 ..............................
........................................................................

 iter      E             dE          RMSdq      gap      omega  full diag
   1    -42.5626068 -0.425626E+02  0.170E-02    2.58       0.0  T
   2    -42.5626073 -0.521434E-06  0.103E-02    2.58       1.9  T
   3    -42.5626070  0.286785E-06  0.608E-03    2.57       3.3  T
   4    -42.5626074 -0.377378E-06  0.237E-03    2.58       8.4  T
   5    -42.5626075 -0.143689E-06  0.418E-04    2.58      47.9  T
   6    -42.5626075 -0.807667E-09  0.196E-04    2.58     101.8  T
     SCC iter.                  ...        0 min,  0.009 sec
     gradient                   ...        0 min,  0.013 sec
 * total energy  :   -42.0615494 Eh     change       -0.3465814E-04 Eh
   gradient norm :     0.0065719 Eh/α   predicted    -0.2507426E-04 ( -27.65%)
   displ. norm   :     0.0107670 α      lambda       -0.2979928E-04
   maximum displ.:     0.0045691 α      in ANC's #22, #21, #14, ...

........................................................................
.............................. CYCLE   17 ..............................
........................................................................

 iter      E             dE          RMSdq      gap      omega  full diag
   1    -42.5630237 -0.425630E+02  0.126E-02    2.58       0.0  T
   2    -42.5630239 -0.147270E-06  0.743E-03    2.58       2.7  T
   3    -42.5630235  0.391985E-06  0.505E-03    2.57       4.0  T
   4    -42.5630240 -0.489965E-06  0.116E-03    2.58      17.2  T
   5    -42.5630240 -0.283756E-07  0.299E-04    2.58      66.8  T
   6    -42.5630240 -0.338019E-09  0.144E-04    2.58     138.8  T
     SCC iter.                  ...        0 min,  0.009 sec
     gradient                   ...        0 min,  0.013 sec
 * total energy  :   -42.0615702 Eh     change       -0.2080388E-04 Eh
   gradient norm :     0.0047664 Eh/α   predicted    -0.1490884E-04 ( -28.34%)
   displ. norm   :     0.0084954 α      lambda       -0.1854863E-04
   maximum displ.:     0.0037434 α      in ANC's #22, #21, #14, ...

........................................................................
.............................. CYCLE   18 ..............................
........................................................................

 iter      E             dE          RMSdq      gap      omega  full diag
   1    -42.5632130 -0.425632E+02  0.852E-03    2.57       0.0  T
   2    -42.5632132 -0.194596E-06  0.501E-03    2.58       4.0  T
   3    -42.5632131  0.786180E-07  0.357E-03    2.57       5.6  T
   4    -42.5632133 -0.165408E-06  0.122E-03    2.58      16.4  T
   5    -42.5632133 -0.256634E-07  0.238E-04    2.58      84.2  T
   6    -42.5632133 -0.562586E-09  0.121E-04    2.58     165.0  T
     SCC iter.                  ...        0 min,  0.009 sec
     gradient                   ...        0 min,  0.013 sec
 * total energy  :   -42.0615833 Eh     change       -0.1316414E-04 Eh
   gradient norm :     0.0037953 Eh/α   predicted    -0.9290797E-05 ( -29.42%)
   displ. norm   :     0.0082920 α      lambda       -0.1477943E-04
   maximum displ.:     0.0033726 α      in ANC's #22, #21, #14, ...

   *** GEOMETRY OPTIMIZATION CONVERGED AFTER 18 ITERATIONS ***

------------------------------------------------------------------------
 total energy gain   :        -3.8954167 Eh    -2444.4109 kcal/mol
 total RMSD          :         0.4034304 a0        0.2135 Å
 total power (kW/mol):      -568.1897242 (step)********** (real)
------------------------------------------------------------------------

 ANCopt (total)                0 d,  0 h,  0 min,  0.801 sec
 optimizer setup                ...        0 min,  0.000 sec (  0.055%)
 model hessian                  ...        0 min,  0.007 sec (  0.871%)
 ANC generation                 ...        0 min,  0.001 sec (  0.108%)
 coordinate transformation      ...        0 min,  0.000 sec (  0.016%)
 single point calculation       ...        0 min,  0.789 sec ( 98.457%)
 optimization log               ...        0 min,  0.002 sec (  0.206%)
 hessian update                 ...        0 min,  0.000 sec (  0.027%)
 rational function              ...        0 min,  0.001 sec (  0.150%)

================
 final structure:
================
25
 xtb: 6.6.1 (8d0f1dd)
C            3.21361413486513        1.13844262028032        0.01843839048383
N            2.26083717641038        0.05941811115680        0.00030924040297
C            2.53309005359405       -1.23252939265493       -0.00821348374994
N            1.38642529561267       -1.94547594334851       -0.00842584406581
C            0.34417688774455       -1.06392022192021        0.00042607882767
C            0.89599748225124        0.20614956199122        0.00635658096242
C            0.05904381892795        1.40001516835928       -0.00311562680080
O            0.46614895261987        2.53477266039643       -0.01733114410290
N           -1.30185084346380        1.07109271020668        0.00149615220617
C           -2.26461164889143        2.13602037183790       -0.00120967713811
C           -1.86685760046133       -0.20144290335658        0.00485859733844
O           -3.04663872536267       -0.38476626930848        0.00915733448191
N           -0.97295807269479       -1.30135310516523        0.00154447154869
C           -1.52172104753060       -2.64230800565965       -0.00239709959143
H            3.71246056702693        1.18512940041102        0.98739193330080
H            3.96667950275366        0.99228405299357       -0.75475987751731
H            2.68444070083082        2.07556858071390       -0.15080161532468
H            3.51605386826269       -1.66144783325788       -0.01508642217083
H           -1.76894755365031        3.09533131405806        0.00418967117369
H           -2.70331597241590        2.11640805996394       -1.62704305704829
H           -2.72703948218291        2.10192645834616        1.61142387114355
H           -1.20506971639482       -3.18621060624035        0.88694035940379
H           -1.21880970644091       -3.17558661000260       -0.90295966008202
H           -2.60681635594678       -2.54516675417178        0.00636657998864
H            1.32609979863630       -2.95411288402909       -0.01638413577045

 Bond Distances (Angstroems)
 ---------------------------
C1-N2=1.4396         C1-H15=1.0908        C1-H16=1.0892        C1-H17=1.0894        N2-C1=1.4396         N2-C3=1.3203         
N2-C6=1.3727         C3-N2=1.3203         C3-N4=1.3502         C3-H18=1.0725        N4-C3=1.3502         N4-C5=1.3651         
N4-H25=1.0105        C5-N4=1.3651         C5-C6=1.3848         C5-N13=1.3384        C6-N2=1.3727         C6-C5=1.3848         
C6-C7=1.4580         C7-C6=1.4580         C7-O8=1.2057         C7-N9=1.4001         O8-C7=1.2057         N9-C7=1.4001         
N9-C10=1.4356        N9-C11=1.3923        C10-N9=1.4356        C10-H19=1.0798       C11-N9=1.3923        C11-O12=1.1939       
C11-N13=1.4173       O12-C11=1.1939       N13-C5=1.3384        N13-C11=1.4173       N13-C14=1.4489       C14-N13=1.4489       
C14-H22=1.0895       C14-H23=1.0896       C14-H24=1.0895       H15-C1=1.0908        H16-C1=1.0892        H17-C1=1.0894        
H18-C3=1.0725        H19-C10=1.0798       H22-C14=1.0895       H23-C14=1.0896       H24-C14=1.0895       H25-N4=1.0105        
 C  H  Rav=1.0863 sigma=0.0061  Rmin=1.0725  Rmax=1.0908     8
 C  C  Rav=1.4214 sigma=0.0366  Rmin=1.3848  Rmax=1.4580     2
 N  H  Rav=1.0105 sigma=0.0000  Rmin=1.0105  Rmax=1.0105     1
 N  C  Rav=1.3891 sigma=0.0414  Rmin=1.3203  Rmax=1.4489    11
 O  C  Rav=1.1998 sigma=0.0059  Rmin=1.1939  Rmax=1.2057     2

 selected bond angles (degree)
 --------------------
H15-C1-N2=110.24               H16-C1-N2=110.37               H16-C1-H15=108.67              H17-C1-N2=108.74               
H17-C1-H15=108.86              H17-C1-H16=109.94              C3-N2-C1=126.66                C6-N2-C1=125.30                
C6-N2-C3=108.04                N4-C3-N2=109.97                H18-C3-N2=125.48               H18-C3-N4=124.55               
C5-N4-C3=107.90                H25-N4-C3=125.29               H25-N4-C5=126.80               C6-C5-N4=106.74                
N13-C5-N4=129.56               N13-C5-C6=123.70               C5-C6-N2=107.35                C7-C6-N2=131.16                
C7-C6-C5=121.48                O8-C7-C6=125.23                N9-C7-C6=111.44                N9-C7-O8=123.32                
C10-N9-C7=118.53               C11-N9-C7=127.53               C11-N9-C10=113.94              H19-C10-N9=110.56              

 selected dihedral angles (degree)
 ---------------------------------
C3-N2-C1-H15=289.66           C3-N2-C1-H16= 49.72           C3-N2-C1-H17=170.39           C6-N2-C1-H15=108.76           
C6-N2-C1-H16=228.82           C6-N2-C1-H17=349.49           N4-C3-N2-C1=179.25            N4-C3-N2-C6=  0.00            
H18-C3-N2-C1=359.19           H18-C3-N2-C6=179.96           C5-N4-C3-N2=  0.00            C5-N4-C3-H18=180.06           
H25-N4-C3-N2=179.84           H25-N4-C3-H18=359.91          C6-C5-N4-C3=  0.00            C6-C5-N4-H25=180.14           
N13-C5-N4-C3=179.88           N13-C5-N4-H25=  0.04          C5-C6-N2-C1=180.73            C5-C6-N2-C3=359.97            
C7-C6-N2-C1=  1.78            C7-C6-N2-C3=181.02            N2-C6-C5-N4=  0.03            N2-C6-C5-N13=180.12           
C7-C6-C5-N4=179.10            C7-C6-C5-N13=359.19           O8-C7-C6-N2=359.90            O8-C7-C6-C5=181.08            
N9-C7-C6-N2=179.69            N9-C7-C6-C5=  0.86            C10-N9-C7-C6=179.75           C10-N9-C7-O8=359.54           
C11-N9-C7-C6=359.56           C11-N9-C7-O8=179.35           H19-C10-N9-C7=359.38          H19-C10-N9-C11=179.55         
           -------------------------------------------------
          |                Final Singlepoint                |
           -------------------------------------------------

          ...................................................
          :                      SETUP                      :
          :.................................................:
          :  # basis functions                  67          :
          :  # atomic orbitals                  67          :
          :  # shells                           39          :
          :  # electrons                        74          :
          :  max. iterations                   250          :
          :  Hamiltonian                  GFN2-xTB          :
          :  restarted?                      false          :
          :  GBSA solvation                  false          :
          :  PC potential                    false          :
          :  electronic temp.         2500.0000000     K    :
          :  accuracy                    1.0000000          :
          :  -> integral cutoff          0.2500000E+02      :
          :  -> integral neglect         0.1000000E-07      :
          :  -> SCF convergence          0.1000000E-05 Eh   :
          :  -> wf. convergence          0.1000000E-03 e    :
          :  Broyden damping             0.4000000          :
          ...................................................

 iter      E             dE          RMSdq      gap      omega  full diag
   1    -42.5632133 -0.425632E+02  0.452E-05    2.58       0.0  T
   2    -42.5632133 -0.792255E-11  0.276E-05    2.58     725.3  T
   3    -42.5632133 -0.788702E-11  0.180E-05    2.58    1108.5  T

   *** convergence criteria satisfied after 3 iterations ***

         #    Occupation            Energy/Eh            Energy/eV
      -------------------------------------------------------------
         1        2.0000           -0.9220345             -25.0898
       ...           ...                  ...                  ...
        31        2.0000           -0.6228522             -16.9487
        32        2.0000           -0.6083085             -16.5529
        33        2.0000           -0.5761870             -15.6788
        34        1.9999           -0.5625869             -15.3088
        35        1.9998           -0.5586450             -15.2015
        36        1.9969           -0.5354614             -14.5706
        37        1.9963           -0.5340678             -14.5327 (HOMO)
        38        0.0068           -0.4394227             -11.9573 (LUMO)
        39        0.0002           -0.4100655             -11.1585
        40        0.0001           -0.4085430             -11.1170
        41        0.0000           -0.3728569             -10.1460
        42                         -0.3122638              -8.4971
       ...                                ...                  ...
        67                          0.5628420              15.3157
      -------------------------------------------------------------
                  HL-Gap            0.0946452 Eh            2.5754 eV
             Fermi-level           -0.4843396 Eh          -13.1796 eV

 SCC (total)                   0 d,  0 h,  0 min,  0.023 sec
 SCC setup                      ...        0 min,  0.000 sec (  0.969%)
 Dispersion                     ...        0 min,  0.000 sec (  0.826%)
 classical contributions        ...        0 min,  0.000 sec (  0.450%)
 integral evaluation            ...        0 min,  0.005 sec ( 21.694%)
 iterations                     ...        0 min,  0.005 sec ( 19.833%)
 molecular gradient             ...        0 min,  0.013 sec ( 55.614%)
 printout                       ...        0 min,  0.000 sec (  0.551%)

         :::::::::::::::::::::::::::::::::::::::::::::::::::::
         ::                     SUMMARY                     ::
         :::::::::::::::::::::::::::::::::::::::::::::::::::::
         :: total energy             -42.061583333084 Eh    ::
         :: gradient norm              0.003795212151 Eh/a0 ::
         :: HOMO-LUMO gap              2.575425839529 eV    ::
         ::.................................................::
         :: SCC energy               -42.563213285790 Eh    ::
         :: -> isotropic ES            0.142247011353 Eh    ::
         :: -> anisotropic ES         -0.004797093197 Eh    ::
         :: -> anisotropic XC          0.016362198711 Eh    ::
         :: -> dispersion             -0.023734395117 Eh    ::
         :: repulsion energy           0.498409532585 Eh    ::
         :: add. restraining           0.003062326877 Eh    ::
         :: total charge               1.000000000000 e     ::
         :::::::::::::::::::::::::::::::::::::::::::::::::::::

           -------------------------------------------------
          |                Property Printout                |
           -------------------------------------------------

    * Orbital Energies and Occupations

         #    Occupation            Energy/Eh            Energy/eV
      -------------------------------------------------------------
         1        2.0000           -0.9220345             -25.0898
       ...           ...                  ...                  ...
        25        2.0000           -0.6682955             -18.1852
        26        2.0000           -0.6614596             -17.9992
        27        2.0000           -0.6403377             -17.4245
        28        2.0000           -0.6326815             -17.2161
        29        2.0000           -0.6280048             -17.0889
        30        2.0000           -0.6250807             -17.0093
        31        2.0000           -0.6228522             -16.9487
        32        2.0000           -0.6083085             -16.5529
        33        2.0000           -0.5761870             -15.6788
        34        1.9999           -0.5625869             -15.3088
        35        1.9998           -0.5586450             -15.2015
        36        1.9969           -0.5354614             -14.5706
        37        1.9963           -0.5340678             -14.5327 (HOMO)
        38        0.0068           -0.4394227             -11.9573 (LUMO)
        39        0.0002           -0.4100655             -11.1585
        40        0.0001           -0.4085430             -11.1170
        41        0.0000           -0.3728569             -10.1460
        42                         -0.3122638              -8.4971
        43                         -0.2672657              -7.2727
        44                         -0.2046062              -5.5676
        45                         -0.2023058              -5.5050
        46                         -0.1478963              -4.0245
        47                         -0.1295922              -3.5264
        48                         -0.0839978              -2.2857
       ...                                ...                  ...
        67                          0.5628420              15.3157
      -------------------------------------------------------------
                  HL-Gap            0.0946452 Eh            2.5754 eV
             Fermi-level           -0.4843396 Eh          -13.1796 eV

     #   Z          covCN         q      C6AA      α(0)
     1   6 C        3.692    -0.097    22.548     6.795
     2   7 N        2.838     0.095    19.599     6.575
     3   6 C        3.068     0.056    26.681     8.470
     4   7 N        2.801    -0.057    22.335     7.019
     5   6 C        3.046     0.117    25.380     8.263
     6   6 C        3.129    -0.026    28.439     8.731
     7   6 C        2.763     0.272    22.412     7.753
     8   8 O        0.858    -0.366    21.019     6.147
     9   7 N        2.743    -0.091    23.013     7.125
    10   6 C        1.922    -0.008    31.301     9.035
    11   6 C        2.731     0.320    21.569     7.603
    12   8 O        0.859    -0.342    20.548     6.078
    13   7 N        2.738    -0.060    22.409     7.031
    14   6 C        3.697    -0.074    22.083     6.722
    15   1 H        0.924     0.113     1.673     2.023
    16   1 H        0.925     0.108     1.709     2.045
    17   1 H        0.925     0.140     1.461     1.890
    18   1 H        0.926     0.130     1.537     1.939
    19   1 H        0.926     0.102     1.764     2.077
    20   1 H        0.026     0.070     5.194     4.167
    21   1 H        0.029     0.071     5.154     4.151
    22   1 H        0.925     0.082     1.963     2.191
    23   1 H        0.925     0.082     1.962     2.191
    24   1 H        0.925     0.130     1.538     1.939
    25   1 H        0.860     0.233     0.950     1.527

 Mol. C6AA /au·bohr⁶  :       6961.060395
 Mol. C8AA /au·bohr⁸  :     158321.010323
 Mol. α(0) /au        :        129.485215


Wiberg/Mayer (AO) data.
largest (>0.10) Wiberg bond orders for each atom

 ---------------------------------------------------------------------------
     #   Z sym  total        # sym  WBO       # sym  WBO       # sym  WBO
 ---------------------------------------------------------------------------
     1   6 C    3.912 --     2 N    0.983    16 H    0.963    17 H    0.960
                            15 H    0.954
     2   7 N    3.730 --     3 C    1.427     6 C    1.171     1 C    0.983
     3   6 C    3.923 --     2 N    1.427     4 N    1.283    18 H    0.951
     4   7 N    3.609 --     3 C    1.283     5 C    1.187    25 H    0.917
     5   6 C    3.962 --     6 C    1.354    13 N    1.229     4 N    1.187
     6   6 C    3.934 --     5 C    1.354     2 N    1.171     7 C    1.054
     7   6 C    3.965 --     8 O    1.706     9 N    1.094     6 C    1.054
     8   8 O    2.073 --     7 C    1.706     9 N    0.154
     9   7 N    3.579 --    11 C    1.100     7 C    1.094    10 C    1.015
                             8 O    0.154    12 O    0.133
    10   6 C    3.833 --     9 N    1.015    19 H    0.971    21 H    0.902
                            20 H    0.900
    11   6 C    3.960 --    12 O    1.739     9 N    1.100    13 N    1.024
    12   8 O    2.099 --    11 C    1.739     9 N    0.133    13 N    0.126
    13   7 N    3.568 --     5 C    1.229    11 C    1.024    14 C    0.973
                            12 O    0.126
    14   6 C    3.925 --    13 N    0.973    22 H    0.972    23 H    0.972
                            24 H    0.963
    15   1 H    0.987 --     1 C    0.954
    16   1 H    0.987 --     1 C    0.963
    17   1 H    0.980 --     1 C    0.960
    18   1 H    0.982 --     3 C    0.951
    19   1 H    0.988 --    10 C    0.971
    20   1 H    0.990 --    10 C    0.900
    21   1 H    0.990 --    10 C    0.902
    22   1 H    0.992 --    14 C    0.972
    23   1 H    0.992 --    14 C    0.972
    24   1 H    0.983 --    14 C    0.963
    25   1 H    0.945 --     4 N    0.917
 ---------------------------------------------------------------------------

Topologies differ in total number of bonds
Writing topology from bond orders to xtbtopo.mol

molecular dipole:
                 x           y           z       tot (Debye)
 q only:        2.774      -2.122       0.011
   full:        3.196      -2.599       0.015      10.470
molecular quadrupole (traceless):
                xx          xy          yy          xz          yz          zz
 q only:       11.730      -6.219       4.712       0.091       0.205     -16.441
  q+dip:        6.654      -9.211       4.108       0.113       0.258     -10.762
   full:        6.330      -8.873       3.820       0.131       0.274     -10.151

           -------------------------------------------------
          |                Geometry Summary                 |
           -------------------------------------------------

      molecular mass/u    :      195.1988581
   center of mass at/Å    :       -0.0119655      -0.0017054       0.0000488
  moments of inertia/u·Å² :        0.4809860E+03   0.7185296E+03   0.1182528E+04
rotational constants/cm⁻¹ :        0.3504807E-01   0.2346129E-01   0.1425559E-01

 * 21 selected distances

     #   Z          #   Z                                           value/Å
     1   6 C        2   7 N                                       1.4395857
     2   7 N        3   6 C                                       1.3203496
     3   6 C        4   7 N                                       1.3502345
     4   7 N        5   6 C                                       1.3651011
     2   7 N        6   6 C                                       1.3727179
     5   6 C        6   6 C                                       1.3847811
     7   6 C        8   8 O                                       1.2056581
     7   6 C        9   7 N                                       1.4000878
     9   7 N       11   6 C                                       1.3923330
    11   6 C       12   8 O                                       1.1939471
     5   6 C       13   7 N                                       1.3383648
    11   6 C       13   7 N                                       1.4173462
    13   7 N       14   6 C                                       1.4489019 (max)
     1   6 C       15   1 H                                       1.0908247
     1   6 C       16   1 H                                       1.0891765
     1   6 C       17   1 H                                       1.0894365
     3   6 C       18   1 H                                       1.0724907
    14   6 C       22   1 H                                       1.0895042
    14   6 C       23   1 H                                       1.0895662
    14   6 C       24   1 H                                       1.0894702
     4   7 N       25   1 H                                       1.0104708 (min)

 * 5 distinct bonds (by element types)

   Z      Z             #   av. dist./Å        max./Å        min./Å
   1 H    6 C           7     1.0872099     1.0908247     1.0724907
   6 C    6 C           1     1.3847811     1.3847811     1.3847811
   1 H    7 N           1     1.0104708     1.0104708     1.0104708
   6 C    7 N          10     1.3845022     1.4489019     1.3203496
   6 C    8 O           2     1.1998026     1.2056581     1.1939471


optimized geometry written to: xtbopt.xyz


           -------------------------------------------------
          | TOTAL ENERGY              -42.061583333084 Eh   |
          | GRADIENT NORM               0.003795212151 Eh/α |
          | HOMO-LUMO GAP               2.575425839529 eV   |
           -------------------------------------------------

------------------------------------------------------------------------
 * finished run on 2024/06/05 at 19:58:08.340     
------------------------------------------------------------------------
 total:
 * wall-time:     0 d,  0 h,  0 min,  0.943 sec
 *  cpu-time:     0 d,  0 h,  0 min,  0.588 sec
 * ratio c/w:     0.624 speedup
 SCF:
 * wall-time:     0 d,  0 h,  0 min,  0.062 sec
 *  cpu-time:     0 d,  0 h,  0 min,  0.036 sec
 * ratio c/w:     0.583 speedup
 ANC optimizer:
 * wall-time:     0 d,  0 h,  0 min,  0.841 sec
 *  cpu-time:     0 d,  0 h,  0 min,  0.539 sec
 * ratio c/w:     0.642 speedup

