72
 energy: -103.311434156377 gnorm: 0.086764055232 xtb: 6.6.1 (8d0f1dd)
N           -1.42800371165685        2.76726210137608        2.25877622889968
C           -1.56575946283784        2.14961795141175        1.18875618115707
C           -2.75618003931962        2.06614479076519        0.25731388187207
C           -3.32764946724858        0.65259631928466        0.33362233576856
C           -4.31059045332458        0.24959298201749       -0.57474239126143
C           -4.85833504143304       -1.01879402241365       -0.52903716291383
O           -5.81472470745769       -1.48963152659680       -1.36575951551278
C           -6.39135412782513       -0.61423874372545       -2.30412404546736
C           -4.40971110490071       -1.93984768286439        0.45062863390631
O           -4.99432390815341       -3.16054864620830        0.41411736057279
C           -4.66923218226041       -4.09776377263753        1.41272253252131
C           -3.43968438785261       -1.53500926447725        1.34788120599790
C           -2.90471671128270       -0.25200038922344        1.28883197603501
C           -2.19215061743766        2.30671931055428       -1.16625889701195
C           -1.26704135886188        1.17537328593932       -1.62916891429131
C           -0.00145751836786        1.10050277430226       -0.84910203497745
N            0.63700910965136       -0.04449272134197       -0.57966167476360
C            2.01138082785152       -0.03031833160146       -0.16753470455431
C            2.93660178169266       -0.54030619286018       -1.28569940777557
C            4.36696272446328       -0.43261928082004       -0.84021644638716
C            5.08431955912837        0.73047896592807       -1.04720222184398
C            6.39734295310750        0.84078803853272       -0.60896583866951
C            7.01079773798665       -0.21039613817651        0.05108404865221
O            8.27758916408921       -0.21227198500279        0.52216886091926
C            9.07825290833071        0.92816577942870        0.31999513121756
C            6.28081857212021       -1.40537782167586        0.27257341925568
O            6.95977257046056       -2.38336584459020        0.92165726612517
C            6.32575704026815       -3.61768944655550        1.14548478749216
C            4.97359536258782       -1.49529361659125       -0.16987796757860
C           -0.04101279502113       -1.31038571654532       -0.63227437874773
C           -3.88272694472129        3.08591170328690        0.57847493564052
C           -4.52259469460860        2.78683583594266        1.93116682939290
C           -3.40765351942508        4.53540371809259        0.53913656789635
H           -4.66587105327982        0.94711281268808       -1.31758257815433
H           -6.84986936283766        0.25237572078998       -1.81931095869275
H           -7.16268239533099       -1.19548959000141       -2.80639372476872
H           -5.65875161945948       -0.27539543406323       -3.04472767238490
H           -4.89771257789700       -3.71584889311562        2.41278102512240
H           -5.28996142439972       -4.96831251618285        1.20791738218696
H           -3.61492204988560       -4.38915319000376        1.36516651579353
H           -3.09312679761184       -2.20645728778695        2.11680128852624
H           -2.17401241570695        0.03621609104495        2.02865676628164
H           -3.01207606706565        2.39586860097299       -1.87308720805482
H           -1.64404488401509        3.24933132832650       -1.17858442475397
H           -1.81335627152627        0.23291486889187       -1.60409880620529
H           -0.99117763784229        1.37973680936966       -2.66328091358514
H           -0.70290273507554        1.59210089023498        0.65187611674327
H            0.62348714074884        1.98292149749330       -0.87307854933040
H            2.13171397120701       -0.66384656216157        0.71340284610406
H            2.30952499679445        0.98624783649065        0.09710027532704
H            2.77716399035646        0.06666386529943       -2.17955384266214
H            2.69137084786465       -1.57617410562435       -1.52288997145693
H            4.63354185325564        1.56140987631317       -1.56857161361304
H            6.93512713831009        1.75620225962270       -0.79517596959393
H            8.65790040745977        1.80801415987358        0.81715869497038
H            9.21508640409264        1.14090949789847       -0.74496824922909
H           10.04148354661690        0.68986258606385        0.76534645044812
H            7.06575690010991       -4.23833953519929        1.64779641499197
H            5.44807709651085       -3.50953197462834        1.79171123168189
H            6.03140442701243       -4.09700702017504        0.20581631577404
H            4.41183277598737       -2.40284299440950       -0.01541040637986
H           -0.24821069692403       -1.61103541082755       -1.67310624636038
H           -0.97722386907032       -1.27508304234185       -0.08889383453524
H            0.59216765521209       -2.06613526379536       -0.17218904278891
H           -4.65165959582417        2.95920494451551       -0.19674717726432
H           -3.80528120635007        2.92250033581887        2.72352586292969
H           -4.90697766604362        1.77085103544955        1.96570502141042
H           -5.35530515830647        3.47151178116146        2.09895986979115
H           -2.62705998289855        4.70117517652464        1.26642214546529
H           -3.04908846223362        4.82016299159488       -0.44689596973125
H           -4.24208536173905        5.19047389907459        0.78644162341796
H           -0.51020825337067        2.74046352470690        2.75876959681593
72
 energy: -103.314448034363 gnorm: 0.031319091905 xtb: 6.6.1 (8d0f1dd)
N           -1.45263226545725        2.79783941306803        2.25692275879515
C           -1.57069960920122        2.14408227678337        1.19427578696626
C           -2.75681325070064        2.06775629071967        0.26650525075443
C           -3.33251133765876        0.65770107078947        0.34073934608439
C           -4.31207790817178        0.25188882335886       -0.56932709207095
C           -4.85620650371522       -1.01809098089666       -0.52762501068304
O           -5.81657618096652       -1.49049626784433       -1.36660822458776
C           -6.39010241032102       -0.61409988569418       -2.30430255125111
C           -4.40992036913967       -1.93814624516804        0.45057503747654
O           -4.99719744012667       -3.16337527005022        0.41314710108396
C           -4.66889417762455       -4.09740640919000        1.41177906545810
C           -3.44286362830934       -1.53298175456255        1.35003456174024
C           -2.91168622028567       -0.24855642839459        1.29484239997110
C           -2.19033316110249        2.30398460228790       -1.15862992914359
C           -1.26124693247903        1.18456290530608       -1.64857473182251
C           -0.00121954764058        1.11951398319200       -0.85060013425598
N            0.64482846241628       -0.05555884291792       -0.57350582009352
C            2.01690963100001       -0.04362917526111       -0.16857300507061
C            2.94722805738506       -0.54429464221957       -1.29009902716905
C            4.37503896863137       -0.43721150816408       -0.85145045024312
C            5.08983432119873        0.72814899505028       -1.05168368756176
C            6.39946599066876        0.84026774639996       -0.60750682514789
C            7.01180153605739       -0.21070862934121        0.05309652628705
O            8.28539498663714       -0.21352394960801        0.52520609643344
C            9.07997359243248        0.92839168296532        0.32065973684782
C            6.28327447394597       -1.40427804865479        0.27307993913144
O            6.96390128138735       -2.38512025298615        0.92469323270743
C            6.32601963694853       -3.61714404227965        1.14592078668399
C            4.97963784608125       -1.49672079056598       -0.17486574305340
C           -0.03683350672840       -1.31795528577094       -0.63018942652609
C           -3.88724063149060        3.08541662334017        0.57861895860057
C           -4.52682401097082        2.79026972987075        1.93261931685318
C           -3.41093526525352        4.53512268583528        0.54079414259819
H           -4.66137554530847        0.94715897682810       -1.31564630194715
H           -6.84773495830921        0.25359775673138       -1.81869873714711
H           -7.16240316938525       -1.19339951634773       -2.80803049254707
H           -5.65638742144694       -0.27401220633555       -3.04327255996531
H           -4.89639409162763       -3.71472391489146        2.41205236584433
H           -5.28884556563426       -4.96930960874232        1.20948077217511
H           -3.61350401287935       -4.38646387330543        1.36475461832572
H           -3.09207486313813       -2.20735565807614        2.11523810041602
H           -2.17310091811397        0.03717956693805        2.02742191760012
H           -3.01709704197916        2.39784273260937       -1.86278973992323
H           -1.63957159883218        3.24568656824533       -1.17080758742448
H           -1.80193247012955        0.23934480790710       -1.60823105151215
H           -1.01302471129904        1.38681788292681       -2.69804624083340
H           -0.71475533404461        1.58472786418364        0.68557262889051
H            0.63875090046154        1.98931760651664       -0.91004369574543
H            2.14435962400520       -0.67316232682610        0.71776972898113
H            2.30523552520325        0.97626060010910        0.09557778047933
H            2.77709853395198        0.06608160545018       -2.17883688033521
H            2.69550102941781       -1.57860883330025       -1.52666296349331
H            4.63525903012468        1.56028823050734       -1.56830271524208
H            6.93674061068664        1.75673294171948       -0.79184162234708
H            8.65696424817571        1.80828442899374        0.81664247811059
H            9.21376886597951        1.14120562112107       -0.74513531257889
H           10.04510077578037        0.69314613842296        0.76532309895833
H            7.06382819570881       -4.24037957963094        1.64872727082204
H            5.44682202016162       -3.50817687788267        1.79022615319262
H            6.03051625505591       -4.09491653617775        0.20560885017863
H            4.41445636356405       -2.40219453080860       -0.01650770444281
H           -0.24463342690537       -1.61659968165603       -1.66692554052044
H           -0.98202722489722       -1.27304871527183       -0.08770890402089
H            0.59115893261361       -2.07915564226146       -0.17220014765956
H           -4.65503917106454        2.96093252600168       -0.19618173790244
H           -3.79720480646675        2.92180860923636        2.72243432009819
H           -4.90700658000846        1.77212024169378        1.96694625382334
H           -5.35818891128276        3.47315853543677        2.10392719077945
H           -2.62300842493902        4.69255004505198        1.26876500526942
H           -3.04875768400394        4.81554677592134       -0.44531613151785
H           -4.24280994308158        5.19303848302090        0.78789695256021
H           -0.55180829897392        2.74165251940273        2.74842706061046
72
 energy: -103.314892543661 gnorm: 0.020474192421 xtb: 6.6.1 (8d0f1dd)
N           -1.42760689257793        2.77955897481236        2.25970937916977
C           -1.55020624254860        2.13250939105255        1.18555346280558
C           -2.74755704920077        2.06880552228547        0.27031144017178
C           -3.32358606790534        0.65722364182122        0.33393789057288
C           -4.30745201536461        0.25143611976933       -0.57255886791335
C           -4.85211128279319       -1.01826322800686       -0.52883553091212
O           -5.81807467651148       -1.49134735235964       -1.36651536675492
C           -6.39151430380005       -0.61606574053828       -2.30388656147158
C           -4.40673533806949       -1.93749582891076        0.44816582554118
O           -4.99856792191974       -3.16469240330698        0.41310420509103
C           -4.67020549131952       -4.09733987616022        1.41147848630818
C           -3.43875905338845       -1.53390647429737        1.34641640017125
C           -2.90481960763728       -0.25128856160675        1.28788917200913
C           -2.19280776474992        2.30697689610699       -1.16038216677637
C           -1.26600608119111        1.18067176090098       -1.63793994270096
C           -0.01088241102826        1.12772975571875       -0.83656978694892
N            0.64480946024175       -0.05974712293681       -0.56621215742820
C            2.01267094680608       -0.03644427930450       -0.16435120334670
C            2.94382458355669       -0.53925117010777       -1.28563889552945
C            4.36703797167285       -0.43249503464240       -0.84388507943740
C            5.08312775649782        0.73152752293149       -1.04677194466105
C            6.39401756463848        0.84142734371162       -0.60827204186497
C            7.00479392334421       -0.21015609233437        0.05105385567073
O            8.28327104538500       -0.21473637284068        0.52277289913710
C            9.07668742599471        0.92638905722175        0.31965660412309
C            6.27663904663069       -1.40150079630904        0.27348071233924
O            6.96169737293380       -2.38492204395196        0.92257966639854
C            6.32586650257919       -3.61697523131609        1.14514919832246
C            4.97187803812004       -1.49280351528012       -0.16890264904723
C           -0.03599865429753       -1.31881607871060       -0.63513515411707
C           -3.87973531265727        3.08441145349636        0.57950709048778
C           -4.52670379650577        2.78885508534682        1.93022923642486
C           -3.41082412434413        4.53766165777003        0.53887853465028
H           -4.66107723301102        0.94676537159336       -1.31646805642300
H           -6.84997896681300        0.25232955376386       -1.81897827237941
H           -7.16425313320489       -1.19625870189036       -2.80610552090558
H           -5.65952536506832       -0.27586024693777       -3.04455590914223
H           -4.89755832041566       -3.71549638583678        2.41246124613629
H           -5.29122028251648       -4.96849720547173        1.20890414374646
H           -3.61516884726802       -4.38881012728586        1.36525786319183
H           -3.09182215397993       -2.20665783151609        2.11530225391668
H           -2.17119350496854        0.03618835674085        2.02457577016632
H           -3.01851142135933        2.39724827182285       -1.87009224730432
H           -1.64106149375006        3.24855383413662       -1.17894287983864
H           -1.80679778434287        0.23398685230840       -1.59739940305915
H           -1.00644040794275        1.37945274485306       -2.68560132227819
H           -0.70666964064277        1.59742867314090        0.66881253232542
H            0.62770113586577        1.99496854783747       -0.87639068322691
H            2.13985639915854       -0.66331352492848        0.72468201255581
H            2.29831705066215        0.98621159088003        0.09814150947225
H            2.77279906658467        0.06942254654202       -2.17500922685760
H            2.68756113544709       -1.57334143407341       -1.51934894190999
H            4.62880380422815        1.56181728272358       -1.56678455366825
H            6.93310564325305        1.75631786048167       -0.79641888871059
H            8.65583496035556        1.80723103474807        0.81654253922143
H            9.21311486683847        1.14080925404191       -0.74576725136586
H           10.04113131017856        0.68886231631574        0.76526882012182
H            7.06631293193450       -4.23814207718475        1.64685754530184
H            5.44787613958672       -3.51025906794078        1.79166814767629
H            6.02970382900495       -4.09679634904917        0.20589116072863
H            4.40663728829904       -2.39917110511695       -0.01265641407743
H           -0.24590951131701       -1.61108266462555       -1.67109478270894
H           -0.98404645267057       -1.27574915314520       -0.08949583192398
H            0.59388482664430       -2.07678634283108       -0.17714061294744
H           -4.64491598400932        2.95760418389896       -0.19638911242378
H           -3.79946113057374        2.92139308570858        2.72549133995548
H           -4.90474026097400        1.76943892673445        1.96413482866227
H           -5.35793001852155        3.47033226288934        2.09606573780362
H           -2.62253984762931        4.70052464550792        1.26812325982158
H           -3.04834331479265        4.81913651088606       -0.44703587266424
H           -4.24548521940193        5.19094045915023        0.78465958146147
H           -0.51678847887264        2.72094305396212        2.71639364686801
72
 energy: -103.315478753971 gnorm: 0.009403400006 xtb: 6.6.1 (8d0f1dd)
N           -1.44559386901115        2.78392632052073        2.26680580401876
C           -1.55878816564138        2.14214596159706        1.18794747759025
C           -2.75333055048816        2.06900907127628        0.26658719432647
C           -3.32858497599621        0.65669043000166        0.33459041897487
C           -4.31209823191327        0.25084825484927       -0.57204189605420
C           -4.85603008966355       -1.01857564725682       -0.52678994378767
O           -5.81919602350562       -1.49138495010217       -1.36684632001803
C           -6.39015595108627       -0.61478887435976       -2.30434579635353
C           -4.40967572697110       -1.93727562999132        0.45041149272613
O           -4.99829093126282       -3.16522564045585        0.41423914191276
C           -4.66868668665746       -4.09765007597040        1.41207185702157
C           -3.44206736715333       -1.53372639187040        1.34922483325524
C           -2.90940160548172       -0.25077590667858        1.29032113350019
C           -2.19245680674320        2.30681201951435       -1.16213935364679
C           -1.26567456133423        1.17791137419764       -1.63355576508974
C           -0.00749485824084        1.12187410393844       -0.84286377123778
N            0.64652987113568       -0.05972940159315       -0.57588950936650
C            2.01432665118173       -0.03617111944875       -0.17275075569354
C            2.94722861287620       -0.54293987590068       -1.29078043189193
C            4.37041784628707       -0.43506348359032       -0.84509593549505
C            5.08768380748087        0.72882808543061       -1.04860577330577
C            6.39860654623647        0.83984260903968       -0.60912895005137
C            7.00876701131425       -0.21129169125912        0.05075799979103
O            8.28571050448129       -0.21331837802266        0.52453299461979
C            9.07877868081273        0.92798166957846        0.32091785087018
C            6.28147674642251       -1.40355264372983        0.27138650481336
O            6.96429889941825       -2.38611638366554        0.92304989542580
C            6.32661738086289       -3.61712233460636        1.14572454919994
C            4.97687137712182       -1.49611466595212       -0.17234731432925
C           -0.03787854970508       -1.31596866007635       -0.63590998449509
C           -3.88422822807671        3.08487511493398        0.57868296275932
C           -4.52755114501027        2.78941268690948        1.93134099514018
C           -3.41083043513845        4.53655584947346        0.53891922142026
H           -4.66689400598559        0.94594715039445       -1.31625994508305
H           -6.84949489198983        0.25322079685047       -1.81971976084359
H           -7.16205947030083       -1.19418917102394       -2.80846810174310
H           -5.65693184074954       -0.27431028327723       -3.04374938174576
H           -4.89705563146526       -3.71670039425400        2.41322096091577
H           -5.28828772143703       -4.96957757566516        1.20857708859464
H           -3.61341049153731       -4.38803624740616        1.36561695244298
H           -3.09449260002380       -2.20620972066743        2.11791569236437
H           -2.17781163739218        0.03780797697318        2.02908341623374
H           -3.01456905759694        2.39728232149057       -1.87413469578752
H           -1.64242760442096        3.24916124400376       -1.17760926817124
H           -1.80893393280921        0.23255829056734       -1.60378057057216
H           -0.99566110873279        1.38117219720748       -2.67493915744075
H           -0.71486572207779        1.59964536402190        0.67150252943995
H            0.63346617576701        1.98580053266006       -0.88323822106914
H            2.13809567391719       -0.66660346312825        0.71342577588805
H            2.30789721148371        0.98356601942884        0.09255946296239
H            2.78016565229749        0.06470045962076       -2.18175196644565
H            2.69344004827975       -1.57756550270806       -1.52590050970282
H            4.63490844232761        1.55890921040771       -1.57017446861486
H            6.93681476308032        1.75586261575556       -0.79423036825540
H            8.65824256619847        1.80924062806115        0.81716233878404
H            9.21627036332986        1.14166290373977       -0.74449091315019
H           10.04336633525048        0.69172864397609        0.76658619902365
H            7.06509549145754       -4.23903509221682        1.64931562121063
H            5.44768002271746       -3.50869484001139        1.79072721931473
H            6.03203782087638       -4.09730028843534        0.20614661885107
H            4.41404252920428       -2.40426875018623       -0.01883721438308
H           -0.25012212027008       -1.61482382693950       -1.67025513393153
H           -0.98188975196028       -1.27101990197190       -0.08693199907251
H            0.59189792467772       -2.06952772765209       -0.17124240559046
H           -4.65172419565816        2.95921530975983       -0.19580212674392
H           -3.80089185908415        2.92159381914959        2.72502984132658
H           -4.90846179970806        1.77137718398191        1.96733639308001
H           -5.35603954592257        3.47317071491230        2.10082738004324
H           -2.62349545913740        4.69813630073931        1.26761056473495
H           -3.04913929781877        4.81934923794953       -0.44674881097822
H           -4.24272039110995        5.19156091429490        0.78759813681436
H           -0.53797089564179        2.73389313572489        2.74117686655251
72
 energy: -103.315458990090 gnorm: 0.009878993797 xtb: 6.6.1 (8d0f1dd)
N           -1.43845327045612        2.78919515306004        2.25984657759226
C           -1.55611900440365        2.14148771296671        1.18719215242797
C           -2.75228345574395        2.06763749558134        0.26658665959179
C           -3.32836145061860        0.65643406856242        0.33781263185371
C           -4.30964409408458        0.25157454287929       -0.57111439820816
C           -4.85358450106797       -1.01783926061827       -0.52711926360291
O           -5.81630231445139       -1.49036579450701       -1.36716714469629
C           -6.38998141455325       -0.61443746207260       -2.30337350395970
C           -4.40732948580163       -1.93693414977642        0.44969353810967
O           -4.99667782896969       -3.16387942559062        0.41298890603702
C           -4.66952695544443       -4.09631802310646        1.41135805753169
C           -3.43889103975900       -1.53482278391834        1.34867020802272
C           -2.90685635816326       -0.25153998665434        1.29177979798263
C           -2.19084243628926        2.30479923739778       -1.16149202136941
C           -1.26491157013752        1.17930209799240       -1.64274520757025
C           -0.00550817618719        1.11961743035756       -0.85376742758144
N            0.64461919414398       -0.05797370784498       -0.57635984599570
C            2.01085645610032       -0.03631233543357       -0.16540857410332
C            2.94312892144670       -0.54080657684847       -1.28491995115915
C            4.36843942470197       -0.43366469926768       -0.84393793143574
C            5.08582761205837        0.73029002208155       -1.04770714943732
C            6.39677387494540        0.84149597029791       -0.60747659393134
C            7.00682652630265       -0.21018693010226        0.05205415749015
O            8.28351223657461       -0.21301436609667        0.52436683933341
C            9.07709813289675        0.92739776206348        0.31933689764214
C            6.27949721520787       -1.40229841018798        0.27304011066007
O            6.96169442428740       -2.38492959687477        0.92426499483835
C            6.32460129929442       -3.61647447854036        1.14530747751030
C            4.97470593325511       -1.49451002280856       -0.17077502786430
C           -0.03739478078230       -1.31607453210821       -0.63476523790422
C           -3.88274933999088        3.08426686337154        0.57874302708367
C           -4.52543471083915        2.78846858380380        1.93121824748848
C           -3.40960741609050        4.53547182149946        0.53979502751271
H           -4.66076705796697        0.94705087811639       -1.31685283674553
H           -6.84848193807506        0.25340847307473       -1.81795302111024
H           -7.16292300810665       -1.19434790580655       -2.80551559804583
H           -5.65850136453722       -0.27417648203119       -3.04453956178493
H           -4.89714784898571       -3.71380269643459        2.41202446519492
H           -5.29077381182917       -4.96743248911353        1.20886277396114
H           -3.61476921553439       -4.38827598976479        1.36502939406847
H           -3.08906012459699       -2.20904407741522        2.11443195828071
H           -2.16945912502208        0.03476565001170        2.02602379298160
H           -3.01732728128386        2.39795509079263       -1.86633537118403
H           -1.64094963138754        3.24694344396881       -1.17464314528134
H           -1.80835920894346        0.23547656695981       -1.60924281973669
H           -1.00608606664683        1.38370289611465       -2.68727514515162
H           -0.71428414214856        1.58414212671068        0.67586730406321
H            0.63611498124492        1.98351690130613       -0.89947573054320
H            2.13610625797029       -0.66832891057294        0.72006322380299
H            2.30449032853428        0.98223117250041        0.10147616061165
H            2.77340339537667        0.06840499000734       -2.17456605062796
H            2.69050644992607       -1.57536780187684       -1.52155000093620
H            4.63193808738693        1.56208952032732       -1.56575909475636
H            6.93476195317693        1.75754879641428       -0.79234956665757
H            8.65688564753058        1.80831172149876        0.81622941326092
H            9.21217560735806        1.14092470933775       -0.74639421589167
H           10.04257527237149        0.69122693864398        0.76325938857928
H            7.06370408725732       -4.23949023664491        1.64673442483835
H            5.44635802380039       -3.50930642576531        1.79136724096737
H            6.02894791488634       -4.09464682532767        0.20506978242286
H            4.41007056170864       -2.40047227543306       -0.01248470430382
H           -0.24404693468096       -1.61493813131142       -1.67031346344740
H           -0.98261230614335       -1.27508983875458       -0.08996155882558
H            0.59084348720203       -2.07249714745234       -0.17091995710486
H           -4.65037936029329        2.95890186485807       -0.19612580370229
H           -3.79912895047018        2.92179801247859        2.72380342439473
H           -4.90447254517101        1.76993653777313        1.96609827072534
H           -5.35584703320331        3.47063883467885        2.10096962348138
H           -2.62373546273772        4.69649599298027        1.26912867611266
H           -3.04712829248302        4.81699064633223       -0.44574529336700
H           -4.24191546744779        5.19094795275377        0.78690206727411
H           -0.53047836083103        2.73737327936556        2.74031039009549
72
 energy: -103.315638330420 gnorm: 0.004274854645 xtb: 6.6.1 (8d0f1dd)
N           -1.44118637420348        2.78460930179962        2.26175830686491
C           -1.55799995770249        2.13780229324607        1.18863925158848
C           -2.75355174407577        2.06830474580541        0.26741956579967
C           -3.32937143543777        0.65695400119666        0.33631640545288
C           -4.31082734306834        0.25136769176351       -0.57212426950632
C           -4.85479557630582       -1.01827924881589       -0.52761982876042
O           -5.81804597088820       -1.49122840164475       -1.36749236064030
C           -6.39078581613956       -0.61562835151369       -2.30437795974611
C           -4.40904317547626       -1.93678888946942        0.44966674603095
O           -4.99795211040505       -3.16459388669464        0.41352121075263
C           -4.66939535306624       -4.09705629767651        1.41139513330202
C           -3.44155818636409       -1.53343298066164        1.34906647317752
C           -2.90914123541925       -0.25033387891968        1.29120616959788
C           -2.19151363551528        2.30578106432916       -1.16043642080129
C           -1.26367987033334        1.18059551503106       -1.63854849102071
C           -0.00590532069131        1.12231861093332       -0.84641617082906
N            0.64588781062941       -0.05786081608020       -0.57200433091917
C            2.01357200176136       -0.03706085796542       -0.16733618437667
C            2.94519498930879       -0.54169847960389       -1.28827535087065