72
 energy: 0.000000000000 xtb: 6.6.1 (8d0f1dd)
N           -1.47310934822924        2.74401318561852        2.22063942287560
C           -1.55658894218425        2.16490305624665        1.13274284460745
C           -2.74549225258129        2.05621251263064        0.23826250649470
C           -3.31377583855761        0.64333417511334        0.32332515650284
C           -4.30230195924506        0.24487112428158       -0.58026167086503
C           -4.85238808050968       -1.02286499940159       -0.53363593669082
O           -5.81420026757557       -1.48606047972767       -1.36157895357670
C           -6.39655692584623       -0.60827005826649       -2.29568495601309
C           -4.39972542350640       -1.94646120241305        0.44396933240983
O           -4.98748357557592       -3.16146026488900        0.41085995818162
C           -4.66362171172287       -4.10093865802695        1.40909140816864
C           -3.42072545213514       -1.54561399150247        1.33436558640148
C           -2.88302826362110       -0.26315802838497        1.27400162590187
C           -2.19303818453636        2.30467021687947       -1.18742988123374
C           -1.26651549989641        1.17243380322503       -1.65249445018642
C            0.01082525039567        1.09745464658138       -0.89354811789923
N            0.61779399208289       -0.02034948241203       -0.57705527866251
C            2.00145228921113       -0.02376006609561       -0.15611401051620
C            2.92554961797610       -0.53865287672537       -1.27700100652360
C            4.35756883501756       -0.43050761225877       -0.83075552032494
C            5.07346182539911        0.73206415878124       -1.03980975472950
C            6.38628045899965        0.84224449235903       -0.60344828301384
C            7.00047329721665       -0.20824758267940        0.05722314949100
O            8.26703733840855       -0.21011315050632        0.52410948507466
C            9.06912311989339        0.92943609656965        0.31863060963839
C            6.27040022445068       -1.40439766990411        0.28033468609137
O            6.94830004375713       -2.38012947787858        0.92752007684741
C            6.31537376337817       -3.61583233633369        1.15217722400438
C            4.96302840674480       -1.49347485723979       -0.16064431849589
C           -0.05511211878686       -1.29906259857679       -0.62085692079872
C           -3.86758072907722        3.07992629005348        0.58498065642721
C           -4.49286201346546        2.77383518785172        1.94313307512182
C           -3.39165211343248        4.52917708609625        0.54797528556046
H           -4.66030069703099        0.94509076131725       -1.31640581036773
H           -6.85037992114187        0.25803164586058       -1.80468862056629
H           -7.17287509152171       -1.18600121846629       -2.79318183475679
H           -5.66836870040540       -0.26952968819383       -3.04040283452035
H           -4.88416765986127       -3.71589494995018        2.40913564538747
H           -5.29223619720187       -4.96637504833431        1.20969248126828
H           -3.61139846644506       -4.39919876145526        1.35529370415983
H           -3.07077825100221       -2.21868786295666        2.10002682176568
H           -2.14562774333496        0.02067850888151        2.01001363031684
H           -3.02188903413801        2.38238034416975       -1.88813562572432
H           -1.65198546223364        3.25146730843841       -1.20556295755141
H           -1.81103391047759        0.23006526775522       -1.62116316669324
H           -0.99335697743926        1.37490224954061       -2.69443281971844
H           -0.67628070635666        1.65183902374723        0.61785732877701
H            0.63525847086258        1.98466388206871       -0.92314029755375
H            2.11132572081740       -0.65949698961381        0.72532619960637
H            2.30680494458141        0.98978260887088        0.11078973822125
H            2.76694224489122        0.06750735773687       -2.17075272340394
H            2.67954606229959       -1.57455642411728       -1.51167757545099
H            4.62170041431221        1.56295626549351       -1.56123593485311
H            6.92357738865082        1.75715832247601       -0.79119604059515
H            8.65159193263071        1.81001840117181        0.81701562739969
H            9.20136256512460        1.14042868409438       -0.74698998879646
H           10.03428931104811        0.69003246578081        0.76064945022918
H            7.05567240429544       -4.23621211097668        1.65347581279537
H            5.43848051513375       -3.50813590722545        1.79970582482858
H            6.02060097762632       -4.09420535105165        0.21253284608183
H            4.40102799328555       -2.40127288651695       -0.00490198294521
H           -0.22071301762289       -1.61775598610935       -1.65116024301020
H           -1.01972267469312       -1.24102728946113       -0.10935207845464
H            0.55899959333766       -2.04486104898380       -0.12333731565713
H           -4.63991918782192        2.95501120214274       -0.18098089750912
H           -3.76095251366987        2.90314731895452        2.73380846416528
H           -4.87457659255110        1.75695657819473        1.97884621460846
H           -5.31925601899505        3.45579242388173        2.12325583951056
H           -2.60025614255587        4.69225089676674        1.27368930043085
H           -3.03987434616939        4.81897697030947       -0.43870979129779
H           -4.22191779840287        5.18069696155015        0.80616701440619
H           -0.59832439338922        2.77744720721660        2.72959009765665
72
 energy: -2.621481744411 xtb: 6.6.1 (8d0f1dd)
N           -1.40914897846001        2.76286663995724        2.27704111823665
C           -1.56055948540778        2.15563240854613        1.18383987894338
C           -2.76635728426175        2.07657824565327        0.27806574522949
C           -3.34603864438073        0.66505666601175        0.34709305284781
C           -4.31957118043924        0.25466341930511       -0.56913711435119
C           -4.86176567310979       -1.01693035004931       -0.52715887716208
O           -5.81511215653747       -1.49204813127638       -1.36861228622330
C           -6.38581406696539       -0.62079002283459       -2.31353897529581
C           -4.41858815077429       -1.93438895142976        0.45639394371599
O           -5.00056170746309       -3.15953367581570        0.41720789063109
C           -4.67469052249276       -4.09492533321408        1.41631485870576
C           -3.45662686904122       -1.52540603132518        1.35956562488899
C           -2.92766245750144       -0.23962339389465        1.30429128640116
C           -2.19346709134338        2.30744348307996       -1.14626937564692
C           -1.26777797231988        1.17750369229877       -1.61822063194190
C           -0.00541302737249        1.10230416012969       -0.83459667590037
N            0.64558228956558       -0.05663685260313       -0.57575209709974
C            2.02398490774526       -0.03870479685828       -0.18110477553240
C            2.95541145441701       -0.54288542696258       -1.30077395442769
C            4.38187257952404       -0.43593729657401       -0.85551882095800
C            5.09796462942387        0.72888710026322       -1.05668624981474
C            6.40784733710844        0.83961658629730       -0.61446770978678
C            7.01947349799782       -0.21211995608459        0.04599680949518
O            8.29164837244855       -0.21513285199290        0.51955798490378
C            9.08819808801084        0.92690204311984        0.32137186276480
C            6.29005090822986       -1.40658102315519        0.26564888863192
O            6.97014385762035       -2.38629720821943        0.91606423475589
C            6.33443255095834       -3.61948578588243        1.13983005815497
C            4.98596089270673       -1.49764656984131       -0.18055586131126
C           -0.02311496534629       -1.32568524173655       -0.64577333484683
C           -3.90793321765453        3.09525140041901        0.56777127207012
C           -4.56438241495686        2.80458384316256        1.91411224568460
C           -3.43308433735466        4.54473178281639        0.52485402486201
H           -4.66721342578923        0.94758347018446       -1.31776524832447
H           -6.84941186806091        0.24686253467229       -1.83341150857547
H           -7.15314795189916       -1.20461690699104       -2.81875985083804
H           -5.64872229004958       -0.28163522582628       -3.04926050347163
H           -4.90939907177401       -3.71581301426619        2.41589781327047
H           -5.29073930218579       -4.96780028320305        1.20822360081505
H           -3.61820774135596       -4.38041157471642        1.37384079998222
H           -3.11061617342199       -2.19675023582246        2.12959543900963
H           -2.19734882979573        0.04902203497673        2.04377144950660
H           -3.00688628541056        2.40249522514501       -1.86613911615059
H           -1.63764084594390        3.24658494415746       -1.15251802477266
H           -1.81547586070624        0.23626654968604       -1.59129647512819
H           -0.99079865237067        1.38028240937359       -2.65978359748571
H           -0.71729339039169        1.54961194915682        0.67280503360674
H            0.61526240856799        1.98374678938916       -0.84418200308979
H            2.14333510773244       -0.66646160211449        0.70553494743995
H            2.31242130778533        0.98220278333728        0.08198882868767
H            2.79043760389159        0.06564604374463       -2.19119654702589
H            2.70584664090714       -1.57788049782625       -1.53595324629715
H            4.64510558658133        1.56038559127956       -1.57575153273915
H            6.94611540512334        1.75534311234928       -0.79941308776987
H            8.66374527386981        1.80612009675436        0.81730305517371
H            9.22853950831676        1.14135496268630       -0.74302681400908
H           10.05048895379964        0.68936101406203        0.77120424023294
H            7.07379759072475       -4.24000591770215        1.64327255907125
H            5.45593137894989       -3.51078138638114        1.78514177821861
H            6.03978321663968       -4.09925630161043        0.20048559178739
H            4.42192793322122       -2.40459136088998       -0.02499050657334
H           -0.25125852748011       -1.61038824629768       -1.67576763825113
H           -0.95672202262314       -1.29095604378188       -0.08043550487178
H            0.61943623947829       -2.08349532907460       -0.21236256712204
H           -4.66653964200220        2.96429911578259       -0.21423126863421
H           -3.84457742591191        2.93928989482013        2.71433658430755
H           -4.94493726268644        1.78675257394907        1.94996999118018
H           -5.39484033714005        3.48851984643124        2.07201244253456
H           -2.65104690364467        4.70930958727421        1.25980722528601
H           -3.06266236557983        4.82188401133930       -0.45902741984586
H           -4.26658315527184        5.20173804724528        0.76259761512136
H           -0.48310718978943        2.73421053947134        2.77311595758002
72
 energy: 2.185094970913 xtb: 6.6.1 (8d0f1dd)
N           -1.33539524920216        2.78542735778012        2.33069383685716
C           -1.57747507961795        2.13588013230965        1.25118014619013
C           -2.79340606970532        2.09824155053540        0.31960471433024
C           -3.38286277221599        0.68733040784193        0.37334607962865
C           -4.33986713998919        0.26575754811616       -0.55678522537775
C           -4.87300458661774       -1.00955769728907       -0.51870908660704
O           -5.81558562747154       -1.49837309153996       -1.37674052498941
C           -6.37229680529561       -0.63593425603280       -2.33490020021671
C           -4.44136435102646       -1.91997952125749        0.47160669626895
O           -5.01673022775223       -3.15654921114779        0.42573721673868
C           -4.68810417623392       -4.08707204162857        1.42513935501877
C           -3.49956020452831       -1.50276402392446        1.39075232097705
C           -2.98107237599553       -0.21415841832023        1.34068820354516
C           -2.18870883338453        2.31489307059660       -1.09892845101009
C           -1.26935033829925        1.17918829876781       -1.56776471787990
C           -0.03142174841495        1.10218817651237       -0.74449845064681
N            0.67939981992182       -0.09432789716924       -0.59226334036590
C            2.04868182902732       -0.05145775806902       -0.21193490592175
C            2.98940735079105       -0.54772766058310       -1.32863673816455
C            4.40992788493495       -0.44140848497339       -0.88124726181022
C            5.12755401407417        0.72421569697167       -1.07620636706181
C            6.43512674175883        0.83583995125502       -0.62828250120658
C            7.04240798573255       -0.21690983456150        0.03207578435668
O            8.32019052190939       -0.22109408877195        0.51256439593577
C            9.11071058706599        0.92357194302120        0.32456572854577
C            6.31437511753811       -1.40910806387600        0.24731608194195
O            6.99615228028735       -2.39350903120740        0.90118825452174
C            6.35744031839448       -3.62360336423541        1.12462629787536
C            5.01305568493366       -1.50226514518843       -0.20432038855491
C            0.01397037486282       -1.35230934361949       -0.67860461257883
C           -3.95154597082116        3.11351293931326        0.54892619606903
C           -4.64876232308499        2.84177773270753        1.87949544824513
C           -3.48157587149055        4.56438797582879        0.49746672815180
H           -4.67617695549195        0.95041617743163       -1.31954454459506
H           -6.84880672725309        0.23319557208904       -1.86875497096617
H           -7.12849063559481       -1.22710042505442       -2.84973724718552
H           -5.62494344171030       -0.29642157756723       -3.06030647337135
H           -4.94082420340507       -3.71616811196728        2.42430471518204
H           -5.28843743125478       -4.96918089770960        1.20650385021376
H           -3.62658353662332       -4.35731385051967        1.39679803627932
H           -3.15966248768574       -2.17070770890838        2.16704229005225
H           -2.26197175503966        0.08291500784264        2.08682373961693
H           -2.98658848693261        2.42834059335558       -1.83747260041151
H           -1.61757802908089        3.24555993797006       -1.08938614618880
H           -1.82378594813718        0.24072785627545       -1.55121622002691
H           -0.98072161438918        1.38264562864518       -2.60708855246342
H           -0.76721628660040        1.43518045088850        0.72966825947131
H            0.59033827787063        1.97501708039613       -0.73697511392293
H            2.18336217090148       -0.67158599172567        0.68188231688907
H            2.32125916624205        0.97596766779420        0.04653598980657
H            2.82038868961535        0.06298715348998       -2.21646709851886
H            2.73742667438095       -1.58201382155465       -1.56684433077127
H            4.67362144608116        1.55617042389215       -1.59355965531430
H            6.97384109226666        1.75275619787673       -0.80945365840681
H            8.67867188596755        1.80137061856834        0.81754980803434
H            9.26234401712400        1.14243153928701       -0.73807286808557
H           10.06955679960196        0.68854431492364        0.78409173437026
H            7.09561781323290       -4.24425248590652        1.63069627340166
H            5.47730710412556       -3.51407431908837        1.76772611834575
H            6.06351156655558       -4.10582761084896        0.18587725680567
H            4.44700755606041       -2.40851228730188       -0.04978167143092
H           -0.29316382277939       -1.59876259368275       -1.70362130990050
H           -0.87958573934177       -1.35286165804769       -0.04373525132036
H            0.69295868765519       -2.12636589506418       -0.32762160033918
H           -4.69099912261861        2.97141903223516       -0.25379287301249
H           -3.94533899234387        2.98314332395668        2.69343523021521
H           -5.03060787915714        1.82377589309384        1.91591519243064
H           -5.48385112064000        3.52782591599417        2.00950002954549
H           -2.71120809784662        4.73169691694505        1.24375984130994
H           -3.09059661175547        4.82657187127450       -0.48329785246928
H           -4.31936312459821        5.22675380964321        0.70966737850294
H           -0.34912286061357        2.68092417499207        2.81428779788352
72
 energy: 10.998510505044 xtb: 6.6.1 (8d0f1dd)
N           -1.26935292834019        2.78433924903072        2.37467809071960
C           -1.58934942408177        2.12107140922301        1.31081772309645
C           -2.81571726220455        2.11574208338634        0.35975750257338
C           -3.41866012256927        0.70746274742032        0.39942412066825
C           -4.35939950155562        0.27712834822246       -0.54517929941976
C           -4.88499000813871       -1.00208668360968       -0.51086893386713
O           -5.81452771113171       -1.50272257295927       -1.38358064671870
C           -6.35857295278793       -0.65052955734514       -2.35611571860530
C           -4.46506841989271       -1.90664261656200        0.48719429550532
O           -5.03211499741185       -3.15141746069377        0.43482844489515
C           -4.70178596015870       -4.07899328178861        1.43419689125927
C           -3.54315053642977       -1.48138384813124        1.42273436179445
C           -3.03435954077902       -0.19017878513250        1.37767978096914
C           -2.18263721415680        2.32379146836996       -1.05135986976528
C           -1.27140095310246        1.17998840225179       -1.51310188810667
C           -0.05638135477925        1.09135807710390       -0.65411645731642
N            0.70627832191750       -0.12166148798227       -0.61400672480527
C            2.07218394184271       -0.06171733635455       -0.23973801011879
C            3.01987832121065       -0.55193324537317       -1.35565030564624
C            4.43815263584872       -0.44628202642294       -0.90523385233822
C            5.15712178705756        0.71959872094172       -1.09567617695896
C            6.46302295571932        0.83208076811434       -0.64267955375966
C            7.06685222352467       -0.22188430066244        0.01795749486894
O            8.34670805917136       -0.22689071750374        0.50404813241714
C            9.13348571241103        0.92020596423931        0.32737122698353
C            6.33959900896612       -1.41310192281533        0.22874222826366
O            7.02114035003315       -2.40018959328847        0.88483274772600
C            6.38056461831919       -3.62815222334063        1.10868475825116
C            5.04005758785725       -1.50735528872290       -0.22800978312352
C            0.04901388238274       -1.37775664341477       -0.70997546217561
C           -3.99090692796245        3.13054933040685        0.53273369779952
C           -4.73228838959512        2.87841717098939        1.84486937348642
C           -3.52844939693057        4.58355119971689        0.47035168976800
H           -4.68500786325981        0.95393042537860       -1.32041640324002
H           -6.84845233901897        0.21958808231673       -1.90458883012232
H           -7.10308321725725       -1.24930337082305       -2.88039175798390
H           -5.60116043436750       -0.31112299226253       -3.07144901505371
H           -4.97277747438951       -3.71683425056601        2.43255072034660
H           -5.28593476824298       -4.97004058971351        1.20486571387053
H           -3.63562355132239       -4.33392472987651        1.41980809956655
H           -3.21000164906824       -2.14489173427783        2.20563350882904
H           -2.32814293860567        0.11582117991432        2.13255566520345
H           -2.96583332201990        2.45405113131405       -1.80519646277125
H           -1.59742256103183        3.24544260073800       -1.02594368147726
H           -1.83449758893047        0.24604962761164       -1.50903771501370
H           -0.96445619570123        1.38287956034085       -2.54801572401181
H           -0.80782195826757        1.33255614265556        0.77686494191404
H            0.56514781358616        1.96337006526961       -0.62497775449819
H            2.22422829963226       -0.67526765213174        0.65930815337264
H            2.33314501445479        0.97023779887871        0.01145607737820
H            2.85080191161226        0.06030020960672       -2.24238961237903
H            2.76913058895618       -1.58584439791799       -1.59813442268344
H            4.70276730404758        1.55208959547566       -1.61191937680994
H            7.00165242611762        1.74991006064107       -0.82018693188700
H            8.69403623095704        1.79621280346183        0.81765271037404
H            9.29669605053191        1.14332241822152       -0.73318271415119
H           10.08862691288223        0.68750464717835        0.79665463882906
H            7.11751082405309       -4.24867814040043        1.61734967672707
H            5.49905444989676       -3.51760306280597        1.74983167323203
H            6.08769345435739       -4.11272098541367        0.17057181474950
H            4.47263191428156       -2.41312115811818       -0.07510871788026
H           -0.33213011241776       -1.58530657366505       -1.72459398568235
H           -0.80083549625823       -1.41886806323467       -0.00974557925236
H            0.76192318231913       -2.16492234228671       -0.44511877565497
H           -4.70980270518207        2.97562077692674       -0.29023562844617
H           -4.04947525259485        3.02762803911958        2.67541929887135
H           -5.11694407643987        1.86120597750479        1.88207878492493
H           -5.57110974257762        3.56686919808828        1.94485365533459
H           -2.77126554613242        4.75787768550908        1.22832561773572
H           -3.11872932639077        4.83201853158227       -0.50684278246835
H           -4.37102380485338        5.24932872925990        0.65671430131748
H           -0.23656146074143        2.63952118126401        2.85185747303267
72
 energy: 19.830549242536 xtb: 6.6.1 (8d0f1dd)
N           -1.21295870127559        2.76751026116097        2.40686350575793
C           -1.59980473216131        2.10870253547780        1.36464523340578
C           -2.83526116022267        2.12911967183854        0.39713360106662
C           -3.45271983495243        0.72525227881725        0.42521115722663
C           -4.37732031675636        0.28840792736773       -0.53395069501995
C           -4.89728194107947       -0.99440174842357       -0.50349028470055
O           -5.81184845773493       -1.50478776417374       -1.38859188832460
C           -6.34480639975007       -0.66407786106240       -2.37653577064021
C           -4.48887755972827       -1.89462005376472        0.50289767117312
O           -5.04627636635489       -3.14425260177069        0.44408743237759
C           -4.71529825480733       -4.07114798173085        1.44315275509989
C           -3.58658916059414       -1.46146687759875        1.45451298100516
C           -3.08647109256181       -0.16780784457526        1.41451871446330
C           -2.17479656630882        2.33274019616146       -1.00426417420479
C           -1.27284941211906        1.17942293204517       -1.45798489475087
C           -0.07612959891745        1.06696655242452       -0.57258592695640
N            0.72535060360044       -0.13878620809291       -0.63435574277213
C            2.09419577511861       -0.06983939585532       -0.26387813906338
C            3.04614312084666       -0.55564924649510       -1.38098952967324
C            4.46521927841488       -0.45034516618678       -0.92720970970318
C            5.18552504017837        0.71536826060940       -1.11453088995512
C            6.49031082591355        0.82827504288556       -0.65732694410593
C            7.09201526010886       -0.22677057230195        0.00389846885604
O            8.37080736517859       -0.23242121535296        0.49438871969101
C            9.15602843647794        0.91703612373170        0.32975953627604
C            6.36467176313962       -1.41828194556782        0.21025309405485
O            7.04465035068271       -2.40611068005317        0.86733001552984
C            6.40328583758690       -3.63306025619280        1.09227582998271
C            5.06612818555587       -1.51251251418125       -0.25102745755688
C            0.08175785321191       -1.40219680053341       -0.73856411444297
C           -4.02591106782218        3.14663835890717        0.52047223717294
C           -4.81242197542594        2.91343816345974        1.81118040558913
C           -3.57265940482058        4.60191315750660        0.44470406080028
H           -4.69297363005455        0.95774770094860       -1.32008160533775
H           -6.84804071653842        0.20639628854644       -1.94001433652993
H           -7.07722947065698       -1.27081178241802       -2.90949928873326
H           -5.57790355121928       -0.32519406670970       -3.08214944427804
H           -5.00426414736254       -3.71796025337064        2.44007498838147
H           -5.28328861745572       -4.97017256385285        1.20298569713433
H           -3.64522718010178       -4.31088940062642        1.44204193352915
H           -3.26059612706059       -2.12003592425993        2.24406012639990
H           -2.39438862587568        0.14700758376557        2.17932926235303
H           -2.94385151149346        2.47825730961255       -1.77058095126231
H           -1.57775214978897        3.24580682998043       -0.96336363413145
H           -1.84706114373678        0.25193082477062       -1.46720068748929
H           -0.94456638740273        1.38170003944127       -2.48643002771875
H           -0.83615569046514        1.24959152760201        0.80811509366024
H            0.53934500722425        1.94649078103208       -0.51220248784224
H            2.26272444590669       -0.67743520954949        0.63797640608223
H            2.34687521298485        0.96544531593342       -0.02250865107966
H            2.88021046909567        0.05795594686387       -2.26745181331467
H            2.79997660082169       -1.58942638963463       -1.62873845386516
H            4.73167766899789        1.54851637221548       -1.63023930762792
H            7.02874740057319        1.74679055461043       -0.83126202030111
H            8.70931821338179        1.79079965142790        0.81764353975442
H            9.33055099976083        1.14408285012432       -0.72839105138067
H           10.10709105647391        0.68609174308321        0.80862693576069
H            7.13908866643378       -4.25313231648954        1.60338826645774
H            5.52062663613983       -3.52130576625030        1.73169513531325
H            6.11168011098286       -4.11966881898287        0.15477092167955
H            4.49814115932680       -2.41819694348931       -0.10034894971719
H           -0.36395453422423       -1.57172780765265       -1.73531891898088
H           -0.72052917310657       -1.48699219191956        0.01586873157358
H            0.82099023676627       -2.19371913738956       -0.55873741300465
H           -4.72217101787000        2.97679229577012       -0.32181009054672
H           -4.15411367397637        3.07124401327820        2.66033341279404
H           -5.20127758796033        1.89785383333021        1.84900871782803
H           -5.65385594969736        3.60426326860235        1.87943412911226
H           -2.82971026814030        4.78763721137381        1.21388736673398
H           -3.14626233724452        4.83769102224103       -0.52854404949790
H           -4.42046846019180        5.26883438268178        0.60542419508910
H           -0.14531082900510        2.60477826895883        2.89069559780682
72
 energy: 27.346902235519 xtb: 6.6.1 (8d0f1dd)
N           -1.16608722079504        2.74996963182253        2.42313375697970
C           -1.61171260171684        2.09974126510752        1.41134009716100
C           -2.85315878136457        2.13915961092221        0.42980619877991
C           -3.48317630410212        0.74040014154055        0.44949314560669
C           -4.39260086375472        0.29881325862849       -0.52316369623320
C           -4.90913944393570       -0.98668272713712       -0.49648651303582
O           -5.80773036997264       -1.50487106399401       -1.39188938219681
C           -6.33132347297396       -0.67594957722186       -2.39517360760084
C           -4.51154788817612       -1.88401058462543        0.51807083930468
O           -5.05871305182874       -3.13590061854776        0.45272699531864
C           -4.72794900426450       -4.06396269875798        1.45143475347608
C           -3.62793229165905       -1.44355683799402        1.48434494988371
C           -3.13478942216299       -0.14772809696085        1.44927685581061
C           -2.16581955765077        2.34052030206999       -0.95955361142336
C           -1.27305328008640        1.17727883398695       -1.40445498295182
C           -0.09163032652019        1.03156106696749       -0.49622593794771
N            0.73717013304659       -0.14562405389223       -0.65252441762813
C            2.11309490844279       -0.07513597322254       -0.28536568627707
C            3.06757771389755       -0.55841296636522       -1.40357991140193
C            4.48914158192663       -0.45321913110010       -0.94603710225250