25
 energy: 0.000000000000 xtb: 6.6.1 (8d0f1dd)
C            3.23720132972391        1.16630909158653        0.08434468864950
N            2.29877796055224        0.07527476373246        0.03981602671198
C            2.58028186251803       -1.21425391179017        0.03006175752192
N            1.43813944744728       -1.93419254010258        0.00098261751768
C            0.39035684826767       -1.05887462812143       -0.00790371763344
C            0.93510047688824        0.21347817468824        0.01709077332874
C            0.09450143016486        1.40504290868848       -0.00410946993748
O            0.49712746915594        2.54126690785742       -0.00342325656480
N           -1.25076628431515        1.06271869620815       -0.03085477937476
C           -2.21907191394203        2.15522079838987       -0.05001256521996
C           -1.81739470187490       -0.20012724136556       -0.04692818139228
O           -2.99983858926755       -0.37846413507442       -0.07008877579474
N           -0.92618577614240       -1.30210203518959       -0.03682761236648
C           -1.46982251276835       -2.64643077634382       -0.06029819901142
H            3.71247229913541        1.21471443890471        1.06488839270555
H            4.00791460421487        1.03430799217987       -0.67357688121503
H            2.69909982127087        2.09770098766290       -0.09130154035862
H            3.56654087521359       -1.63682977417947        0.04233139674524
H           -1.67107945562430        3.09322822573871       -0.02552706696334
H           -2.82428927394145        2.09428605349656       -0.95318074103337
H           -2.87644002486466        2.07745706351925        0.81450059976605
H           -1.17061985538665       -3.19584861009707        0.83242224714061
H           -1.14560246782873       -3.17511580834413       -0.95688266944647
H           -2.55549768731684       -2.55659960601237       -0.07459039105944
H            1.38130842369251       -2.94313824728853       -0.01389874052104
25
 energy: -3.915161400695 xtb: 6.6.1 (8d0f1dd)
C            3.25507136125534        1.17923432684592        0.06977942340769
N            2.31578049580779        0.08446248263906        0.03397473237799
C            2.59590663795223       -1.24709773941593        0.04141177881623
N            1.42052968372451       -1.95219107529125        0.01714030508532
C            0.39202554013394       -1.06585029623767        0.00196645857409
C            0.93339523924022        0.21092454612682        0.02814184262496
C            0.10473444650589        1.38521001133967        0.00582838196112
O            0.50453361551290        2.54919053204040        0.00758249895885
N           -1.25860355196265        1.04608537592845       -0.03142078272796
C           -2.21569905164167        2.14593317143738       -0.06006577584330
C           -1.82591193859796       -0.20323207761863       -0.05134927366020
O           -3.02283461517593       -0.38119337649986       -0.08337750930990
N           -0.94044300801215       -1.30676578958169       -0.03428622999038
C           -1.48707597616208       -2.64634861414037       -0.06071401161627
H            3.79806569883067        1.16126000330903        1.01459989075023
H            4.01772806843424        1.24743581062465       -0.74875545256394
H            2.67945336042630        2.10052294542580       -0.00023856048455
H            3.56919759937742       -1.68025437486704        0.07388121303080
H           -1.65392287644759        3.07727186831657       -0.03851645267491
H           -2.81865535869083        2.08951221966341       -0.96596919648343
H           -2.87725957289358        2.08224415978371        0.80326765260613
H           -1.19272921538343       -3.19961209656672        0.83304643684343
H           -1.15893923113072       -3.18019662827976       -0.95476462860031
H           -2.57224934848644       -2.55104504969030       -0.08052111265426
H            1.35011630235596       -2.95647154654764        0.00639228376714
25
 energy: 4.813242589152 xtb: 6.6.1 (8d0f1dd)
C            3.27549909962373        1.19478084281582        0.04885611570867
N            2.34080513054853        0.09120296358497        0.01919811643400
C            2.60899520555988       -1.28740420406422        0.06250838083600
N            1.39676193716674       -1.96961646745993        0.04415609029902
C            0.39411320133313       -1.07450627925080        0.01755410149851
C            0.93379626633537        0.20743526929969        0.03554315392064
C            0.12103599792670        1.35372660154501        0.01631003769870
O            0.50399156731116        2.54178599799140        0.02754970914492
N           -1.26885669924629        1.02590351050100       -0.03430378318499
C           -2.20919056377592        2.13627462963203       -0.07594060196816
C           -1.83045789473976       -0.20681971889773       -0.05961425212588
O           -3.03700844598132       -0.38548760453798       -0.10504680287302
N           -0.95696193134904       -1.31126768615291       -0.02986424073077
C           -1.51001458578766       -2.64555605355406       -0.06081354470669
H            3.94520672868485        1.05653022009195        0.92080811820899
H            4.00122093960099        1.57145714509566       -0.86580642330511
H            2.64651358286098        2.10350717096185        0.15946738665004
H            3.56410349948218       -1.73733842826899        0.13362784796174
H           -1.63058829136182        3.05895805250775       -0.05971546185117
H           -2.80955173842807        2.08217042811130       -0.98460321935137
H           -2.87693464922789        2.09117884980490        0.78492803498430
H           -1.22800242043695       -3.20603560139446        0.83453268579398
H           -1.17998588281172       -3.18815700388229       -0.95124421755788
H           -2.59492833043143       -2.54261947393816       -0.08982738456176
H            1.31265258211594       -2.97107437179772        0.03877406527180
25
 energy: 19.184467391837 xtb: 6.6.1 (8d0f1dd)
C            3.28929087135243        1.21375760703294        0.02809566314785
N            2.35809950408969        0.09637929344291        0.00391316355341
C            2.61135992406931       -1.30961353156318        0.07951345257461
N            1.38348532170369       -1.97955586157851        0.06989199720354
C            0.39319538684757       -1.08294333520142        0.02910263637956
C            0.93589860974348        0.20250960530719        0.03391326518184
C            0.12887389880737        1.33600264425855        0.02617012998937
O            0.49548835728960        2.53225372461222        0.05438309921857
N           -1.27660658264439        1.01429732329389       -0.03508917759092
C           -2.20499680041782        2.12991808606295       -0.08845854682313
C           -1.83420782982577       -0.21305178443771       -0.06809145916071
O           -3.04341836224300       -0.39329845288320       -0.12561841958365
N           -0.96661376430129       -1.31738198332831       -0.02625737784486
C           -1.52997237405344       -2.64761164102910       -0.06273258882014
H            4.08194162490493        0.96595246394231        0.79872613204364
H            3.96589203084553        1.82943551649306       -0.94163135978455
H            2.65066471083705        2.10089034205762        0.30555326127147
H            3.55405440864870       -1.77820252526470        0.19836463625994
H           -1.61371123536202        3.04470825119434       -0.07726234443163
H           -2.80196336943668        2.07338595007251       -0.99943026129263
H           -2.87673286854083        2.09824251498544        0.77010594625710
H           -1.26376010698945       -3.21462802528335        0.83398350303914
H           -1.20131400830630       -3.19565169901763       -0.95100350847682
H           -2.61483487147887       -2.53497695769745       -0.10098914952066
H            1.29210182943282       -2.98178873672732        0.07188121940417
25
 energy: 30.031472917985 xtb: 6.6.1 (8d0f1dd)
C            3.30021776667551        1.22247301290397        0.01655786706766
N            2.36716534271737        0.09689273677668       -0.00424025522570
C            2.60532996274150       -1.31753191668978        0.09031075175095
N            1.37852847148286       -1.98404057380072        0.08965288317262
C            0.38885885964547       -1.09034570182463        0.03473638779188
C            0.93857421549296        0.19526206233206        0.02451990941736
C            0.12980138464445        1.32959797308114        0.03519100573822
O            0.48381856029537        2.51935135291054        0.08366319056997
N           -1.28103920184435        1.00953192998645       -0.03234995486818
C           -2.20311025569317        2.12641477282210       -0.09443065053448
C           -1.83754416441756       -0.22007719426308       -0.07409498326505
O           -3.04375625974324       -0.40011701987402       -0.14127574079288
N           -0.97124386492335       -1.32390048114194       -0.02394887623107
C           -1.54591835232443       -2.65160008778238       -0.06608173291161
H            4.15992522205945        0.91897113914001        0.67140166170990
H            3.94588002403497        2.02869113909804       -0.96839045334162
H            2.69978714537540        2.06959966014682        0.39469785172835
H            3.53781807261802       -1.80177916821642        0.25962175394812
H           -1.60535787372035        3.03600656066235       -0.08755529069160
H           -2.79792154634354        2.06513639156581       -1.00630370694313
H           -2.87653202895328        2.10364245313972        0.76253737151495
H           -1.29463251722269       -3.22364459417607        0.83114418229407
H           -1.22068093150524       -3.20172421198707       -0.95368704851423
H           -2.63058994756189       -2.52912871958728       -0.11133049820880
H            1.28483622144200       -2.98865272647825        0.09668828701877
25
 energy: 37.820415226235 xtb: 6.6.1 (8d0f1dd)
C            3.30398452654884        1.21187117480300        0.01861114772970
N            2.36501982204724        0.09055110408505        0.00514598289129
C            2.59390086413465       -1.31138537063836        0.08765869946053
N            1.38083952718042       -1.98369387651482        0.10251349883707
C            0.38136940391561       -1.09474902708129        0.03732538787721
C            0.93948029544476        0.18686300172469        0.01789546756650
C            0.12709191452498        1.33367456706329        0.03972619197638
O            0.47765039067931        2.50726992282022        0.09944378249705
N           -1.27906170325426        1.01067365111272       -0.03167295325831
C           -2.20235808505227        2.12590572252033       -0.10322158689400
C           -1.84015589021004       -0.22486090200381       -0.07704287071454
O           -3.04120144185003       -0.40025585712385       -0.15261508109971
N           -0.97159165987908       -1.32845049594219       -0.02095132066416
C           -1.55328719952015       -2.65582440002704       -0.06437605300152
H            4.20624735099769        0.86460876659307        0.54385847769905
H            3.92011720009342        2.18647751448618       -0.98610795261056
H            2.75382320033420        2.01757694678560        0.49813455491260
H            3.51792182698467       -1.79959924332643        0.29708836930012
H           -1.60759312932826        3.03604611463334       -0.10081043195005
H           -2.79614228924767        2.05748642873242       -1.01503530516517
H           -2.87679595812624        2.10932794347004        0.75256665322292
H           -1.31035813544523       -3.22608333239313        0.83439407956595
H           -1.22897371569955       -3.20650319671736       -0.95061742044403
H           -2.63732930531209       -2.52767429391519       -0.11360535411059
H            1.28961649501131       -2.99022407440240        0.10872794857069
25
 energy: 43.961627742881 xtb: 6.6.1 (8d0f1dd)
C            3.29682240700946        1.18784754201524        0.02968858359820
N            2.35304409227985        0.08218063778222        0.03381813324885
C            2.58087073809354       -1.29789373375840        0.08684440700001
N            1.38127392804557       -1.98047252731919        0.10903793603571
C            0.37213033919661       -1.09538784935289        0.03965796735449
C            0.93520670391948        0.18137092335893        0.02038375958481
C            0.12177850485150        1.33903865867770        0.03724305954780
O            0.47417628343905        2.50109592441613        0.10679160951805
N           -1.27523316442448        1.01168705966700       -0.03644014278239
C           -2.20311419476871        2.12554098321894       -0.11205913825204
C           -1.84276533220680       -0.22718999955837       -0.08017607057348
O           -3.03973222003987       -0.39627031283361       -0.15963536640334
N           -0.97282904340958       -1.33015860606927       -0.01979928603814
C           -1.55466369035087       -2.65907511834185       -0.06042969405062
H            4.24650758986951        0.80238205671134        0.43069283892961
H            3.89938741605706        2.30686510687415       -0.99714542895442
H            2.81037129577306        1.96944651840048        0.58274386769809
H            3.50173553349238       -1.78078627918820        0.31789774500171
H           -1.61474798498992        3.03975182435077       -0.11282685429598
H           -2.79673659875287        2.05190670697098       -1.02337187848855
H           -2.87785203839747        2.11100758163073        0.74342122792506
H           -1.31215350345746       -3.22409208554946        0.84056353618025
H           -1.22751665995534       -3.21015228322456       -0.94447748588863
H           -2.63810925996181       -2.53187830772122       -0.11163612678763
H            1.29436316366031       -2.98773563241350        0.10624671308703
25
 energy: 51.910199323267 xtb: 6.6.1 (8d0f1dd)
C            3.28544081873425        1.14710656922556        0.04146579736593
N            2.34150735838994        0.06397537026936        0.06488377706871
C            2.56799438788065       -1.28970145533854        0.09050965086055
N            1.37854635903925       -1.98279832209557        0.11326145421093
C            0.36362791245190       -1.09806557998809        0.04130009633780
C            0.93320273326970        0.17276378634958        0.02480720778783
C            0.11831723979327        1.34153804045434        0.03442970193593
O            0.47543640209156        2.49348356787285        0.10954933928793
N           -1.26815321544162        1.01273164702576       -0.04289655121167
C           -2.20121820828381        2.12632165683481       -0.11862400123417
C           -1.84349170040815       -0.22799773950840       -0.08235022386612
O           -3.03692482368203       -0.38974750389362       -0.16253567198354
N           -0.97472892671857       -1.33109053818833       -0.01970132148644
C           -1.55694297623448       -2.66111726754698       -0.05564662296960
H            4.23449186973602        0.75898403076812        0.32205150968475
H            3.91315348159137        2.46540816442210       -1.00274875870077
H            2.86862515318038        1.90939970722825        0.64606786125712
H            3.48888023457869       -1.76743762350993        0.33316433544395
H           -1.61878348560695        3.04475525166486       -0.12109123951786
H           -2.79553852451121        2.04964544795528       -1.02892907656524
H           -2.87539129377597        2.11106727772147        0.73725232733225
H           -1.31226688552877       -3.22123863282760        0.84741881106193
H           -1.22779386493565       -3.21307887997396       -0.93779483734046
H           -2.63990553232140       -2.53549068042179       -0.10731610783779
H            1.29412979168381       -2.99038750575548        0.10050645527245
25
 energy: 60.147520439862 xtb: 6.6.1 (8d0f1dd)
C            3.26009033073078        1.08830047728884        0.06524673316268
N            2.32165874263532        0.03912663193185        0.11600264468550
C            2.55081040066369       -1.28416690315894        0.10643150004869
N            1.36950346698076       -1.99139645791310        0.12191110644757
C            0.35195332766355       -1.10343871284705        0.04897188514873
C            0.92611073408931        0.16122848393599        0.04542408950012
C            0.11110411010174        1.34282244359853        0.03530372424258
O            0.47696290874139        2.48657051936482        0.10741109864636
N           -1.26274513237964        1.01384494552702       -0.05358509958407
C           -2.20108682356093        2.12815963504367       -0.13147361655423
C           -1.84648457136426       -0.22843257612557       -0.08584569981855
O           -3.03820938638650       -0.38233563128629       -0.16774810836122
N           -0.98089931586748       -1.33250474631037       -0.01951250891286
C           -1.56020649203875       -2.66394946743588       -0.05021517165349
H            4.26931463568889        0.67685125547473        0.17689164416704
H            3.93702249441011        2.70720556130133       -1.02807956361147
H            2.93644314799104        1.84951531924208        0.73270672614743
H            3.47520299374896       -1.75445622861047        0.34168759368922
H           -1.62440697120712        3.05102919841374       -0.13461701422862
H           -2.79392194306677        2.04831404300818       -1.04206703321792
H           -2.87563915458613        2.11116278451953        0.72413736561874
H           -1.31109584958509       -3.21740609587059        0.85597965893881
H           -1.22558948614191       -3.21679062825013       -0.92952415689856
H           -2.64258100314178       -2.54201436087156       -0.10330703996700
H            1.28890314085294       -2.99821070122628        0.09490315455892
25
 energy: 63.467657046574 xtb: 6.6.1 (8d0f1dd)
C            3.22790716207181        1.02674460560210        0.09339498198602
N            2.30522953280908        0.01131494061418        0.15442155677765
C            2.53972473392600       -1.29094004175960        0.13445349487662
N            1.35755402246864       -2.00738336408107        0.12406104482565
C            0.34608098535891       -1.11017895703015        0.05527156550645
C            0.92115764329309        0.15074835955943        0.07226997612704
C            0.10547928575160        1.34018212566811        0.04124461527257
O            0.48387177369197        2.48260441102352        0.09903358248527
N           -1.25820621026657        1.01516903283415       -0.06054185958626
C           -2.19998494033817        2.13124782562379       -0.13461379859043
C           -1.84718485846874       -0.22687427216239       -0.08645102848031
O           -3.04034204402335       -0.37667159337937       -0.16504220898242
N           -0.98691251106893       -1.33256321048470       -0.02195468208435
C           -1.56290675685908       -2.66405055792023       -0.04955106941605
H            4.24625516278052        0.65651022793309        0.12225266326136
H            4.01595555657831        2.89104269937599       -1.03586140272004
H            2.97297198197896        1.82054903007765        0.70234678855444
H            3.47501850858812       -1.75735437347181        0.32473163694523
H           -1.62457187697977        3.05565191909534       -0.13556381689662
H           -2.79154206107013        2.05266093167841       -1.04563487885146
H           -2.87406447206346        2.10905376110905        0.72146473289248
H           -1.30806626100901       -3.21519376633277        0.85768849276252
H           -1.22504739385940       -3.21651668675813       -0.92820368800640
H           -2.64493013119104       -2.54500843842717       -0.10178242234419
H            1.27876747287275       -3.01171581964334        0.08959963587962
25
 energy: 64.811284905513 xtb: 6.6.1 (8d0f1dd)
C            3.17410441814964        0.92192911104768        0.14102587810543
N            2.28502763349280       -0.02261734611576        0.17980566924388
C            2.53561115145886       -1.32250746410962        0.18742908921708
N            1.33149410081219       -2.04077148955081        0.11014851179844
C            0.34796139432590       -1.11948715013676        0.05891173907302
C            0.91140636218028        0.14490143009164        0.12081460429483
C            0.09577185109409        1.33054007069393        0.05685746165902
O            0.49893504110256        2.49009467750562        0.07584088947581
N           -1.25938100460183        1.01634333221354       -0.06723402849387
C           -2.20195281848848        2.13569054533351       -0.13057627856479
C           -1.84663003883539       -0.22212123702329       -0.08499715309496
O           -3.05044324569607       -0.37539675740384       -0.15198003987426
N           -0.99817913261506       -1.33047905405487       -0.02955780944556
C           -1.56525690252335       -2.66027801232905       -0.05165128519561
H            4.17141953198977        0.67960762527041        0.18550761657723
H            4.21223703172763        3.04847510046973       -1.07805956522512
H            2.96989369241822        1.88931346380781        0.56294249933391
H            3.50175609445375       -1.78807051009274        0.27114663493927
H           -1.62008877747533        3.05692047561455       -0.12793846943479
H           -2.79133204994306        2.06134153727463       -1.04254512914839
H           -2.87353853520503        2.10473977035568        0.72776725426649
H           -1.30078716773787       -3.21328280806591        0.85551952543004
H           -1.22503053424334       -3.21372341611953       -0.93079411733633
H           -2.64723757781859       -2.54568752730931       -0.09994112618465
H            1.25645378694988       -3.03644557862316        0.08859154077829
25
 energy: 62.494564007947 xtb: 6.6.1 (8d0f1dd)
C            3.16794377265283        0.91427960362885        0.19187281437368
N            2.28466345229975       -0.02667464760507        0.20382109731053
C            2.53299735016561       -1.35511800294197        0.22810398147278
N            1.31182270149457       -2.05788587639805        0.10355305091665
C            0.34566807940367       -1.13016125008531        0.06196860772304
C            0.90173351406697        0.14022592487079        0.14670054180568
C            0.09577154132147        1.31575806547881        0.06449265483140
O            0.50515926772856        2.48009706191009        0.07720317039810
N           -1.26675281197527        1.01412910578785       -0.06373477550032
C           -2.20104572198156        2.13688144050627       -0.12266060279978
C           -1.84920890004644       -0.22219762936041       -0.08546647333260
O           -3.05699761660788       -0.37666570873569       -0.14850391866754
N           -1.00912060910708       -1.33347910651311       -0.03592121678783
C           -1.57390137860442       -2.66111583827566       -0.06239597328469
H            4.21906124383513        0.73034850137928        0.26786524054917
H            4.33362814984640        3.10958935390509       -1.11316063943792
H            2.89944196284034        1.93689485092527        0.39257269702823
H            3.50570787290727       -1.82290634950460        0.25742103575245
H           -1.61289519708112        3.05311048680225       -0.11704141432165
H           -2.79125344022877        2.06740471423008       -1.03435584542944
H           -2.87220069372890        2.10555629348286        0.73553254379182
H           -1.30848124219875       -3.21751557107088        0.84243895827303
H           -1.23282674899423       -3.21242758760418       -0.94294574002718
H           -2.65612066213490       -2.54726914627383       -0.10948344271900
H            1.23942041909894       -3.05182989979462        0.08915756027581
25
 energy: 60.283633499333 xtb: 6.6.1 (8d0f1dd)
C            3.19457420447562        0.93989068522975        0.23424326273511
N            2.29561880011033       -0.02885534365355        0.19121384091111
C            2.52471131370131       -1.37744844176990        0.22834769643325
N            1.30467925881069       -2.06162899781643        0.10532426680323
C            0.33708258219500       -1.14283745537594        0.05668621494794
C            0.89860771862790        0.12743738923000        0.12624098765462
C            0.10469587913601        1.30557204563688        0.05288009649208
O            0.50712563906530        2.45712454374976        0.07931388827384
N           -1.26900220208938        1.01325712009445       -0.05676785744504
C           -2.19487441104133        2.13708021353588       -0.11872804839174
C           -1.85315942819115       -0.22526638410718       -0.08312841245613
O           -3.05720776830878       -0.37349281937032       -0.14451994035766
N           -1.01480116678416       -1.33929329080522       -0.03491694543352
C           -1.58461461935622       -2.66567781108138       -0.06191424037799
H            4.22475999046963        0.70713658284860        0.34375010697311
H            4.44384931251498        3.21868248208105       -1.15096169352103
H            2.82837839085413        1.95153124509556        0.31138903279049
H            3.48345235893349       -1.84195394321937        0.25695704155547
H           -1.60673727722360        3.05137758675134       -0.11525860100176
H           -2.79004846508108        2.06876874086030       -1.02801358068308
H           -2.86623590268829        2.11277110392706        0.73897606711129
H           -1.32001478497605       -3.21921497172886        0.84156545406471
H           -1.24653973696237       -3.21543758016025       -0.94313984949089
H           -2.66690705860541       -2.54929716258690       -0.10673711915274
H            1.23482167738560       -3.06119674862132        0.10423224375980
25
 energy: 60.084710515503 xtb: 6.6.1 (8d0f1dd)
C            3.18708259511390        0.92233711344845        0.26230008112916
N            2.29181321358016       -0.04030062979739        0.21471314747717
C            2.51344223600243       -1.38011403772716        0.23782793483403
N            1.30546125798635       -2.06150062513803        0.11693336182653
C            0.32810102140740       -1.14877274824083        0.06103962263504
C            0.89659722974068        0.11702567289178        0.12703398522552
C            0.10723485328883        1.30762664887080        0.05382441574059
O            0.50710001647578        2.44994479131173        0.08219851828195
N           -1.26744922577722        1.01383036507704       -0.05123577727682
C           -2.19292102837000        2.13634479668197       -0.11832356766448
C           -1.85744473620738       -0.22755289721992       -0.08226604177761
O           -3.05764896779997       -0.37011767226873       -0.15048245879848
N           -1.01642277024773       -1.34145147009807       -0.03401630089138
C           -1.58925684976416       -2.66851529322108       -0.06538250841292
H            4.23751784379036        0.68442257052107        0.33933604084101
H            4.49787636391588        3.30849696210455       -1.20504125070910
H            2.82094348238262        1.94496282409599        0.28759654078966
H            3.47071340542340       -1.84169293802161        0.26591483488943
H           -1.60652250324032        3.05154786186001       -0.11400067929177
H           -2.78762642593952        2.06901566055409       -1.02860002848324
H           -2.86686083631351        2.11465883512482        0.73777689550783
H           -1.32667403614026       -3.22138777837378        0.83799531174330
H           -1.24968599437538       -3.21526606803914       -0.94699423062237
H           -2.67126113039880       -2.55075387357197       -0.11200511194498
H            1.23810529043863       -3.06375928208051        0.11089117714638
25
 energy: 60.263924771266 xtb: 6.6.1 (8d0f1dd)
C            3.19251147222604        0.94092184976758        0.27937959524637
N            2.29576273297211       -0.03412338484428        0.21296758793392
C            2.51223559541404       -1.37378146256560        0.23020680520091
N            1.31745059269219       -2.04865603914904        0.12279796245809
C            0.32624114848466       -1.14569276130867        0.05854575910320
C            0.89987259936282        0.11813346967150        0.11054251804098
C            0.11319771488061        1.31545762873791        0.05558377078124
O            0.50217242840820        2.45669012000324        0.09055489823659
N           -1.26890678951855        1.01371766355725       -0.03995518182378
C           -2.19348191405482        2.13316534102460       -0.11258238591976
C           -1.86045680169471       -0.22936716213919       -0.08133283679183
O           -3.05729113043393       -0.37185982835974       -0.15785766831680
N           -1.01148199209745       -1.34055281299564       -0.03380050814256
C           -1.58764414412063       -2.66896575283151       -0.06957286677784
H            4.23626062271462        0.69523900314976        0.41309091751692
H            4.50288827275672        3.21353556500546       -1.26825736563649
H            2.78840417636328        1.95870156348571        0.24923130329201
H            3.46753928662152       -1.83462518330193        0.28152868811683
H           -1.60711011370065        3.04855948639841       -0.10753559515115
H           -2.78724246144787        2.06735785628040       -1.02450970239238
H           -2.87021744278461        2.11466568165203        0.74194383318646
H           -1.32882943517901       -3.22374738048093        0.83318503001774
H           -1.24915247929562       -3.21372702916801       -0.95222781205918
H           -2.66958843433313       -2.54842732299965       -0.11730361469212
H            1.24908080073638       -3.05359031984561        0.11241078076708
25