      -----------------------------------------------------------      
     |                   =====================                   |     
     |                           x T B                           |     
     |                   =====================                   |     
     |                         S. Grimme                         |     
     |          Mulliken Center for Theoretical Chemistry        |     
     |                    University of Bonn                     |     
      -----------------------------------------------------------      

   * xtb version 6.6.1 (8d0f1dd) compiled by 'conda@1efc2f54142f' on 2023-08-01

   xtb is free software: you can redistribute it and/or modify it under
   the terms of the GNU Lesser General Public License as published by
   the Free Software Foundation, either version 3 of the License, or
   (at your option) any later version.
   
   xtb is distributed in the hope that it will be useful,
   but WITHOUT ANY WARRANTY; without even the implied warranty of
   MERCHANTABILITY or FITNESS FOR A PARTICULAR PURPOSE.  See the
   GNU Lesser General Public License for more details.
   
   Cite this work as:
   * C. Bannwarth, E. Caldeweyher, S. Ehlert, A. Hansen, P. Pracht,
     J. Seibert, S. Spicher, S. Grimme, WIREs Comput. Mol. Sci., 2020, 11,
     e01493. DOI: 10.1002/wcms.1493
   
   for GFN2-xTB:
   * C. Bannwarth, S. Ehlert and S. Grimme., J. Chem. Theory Comput., 2019,
     15, 1652-1671. DOI: 10.1021/acs.jctc.8b01176
   for GFN1-xTB:
   * S. Grimme, C. Bannwarth, P. Shushkov, J. Chem. Theory Comput., 2017,
     13, 1989-2009. DOI: 10.1021/acs.jctc.7b00118
   for GFN0-xTB:
   * P. Pracht, E. Caldeweyher, S. Ehlert, S. Grimme, ChemRxiv, 2019, preprint.
     DOI: 10.26434/chemrxiv.8326202.v1
   for GFN-FF:
   * S. Spicher and S. Grimme, Angew. Chem. Int. Ed., 2020, 59, 15665-15673.
     DOI: 10.1002/anie.202004239
   
   for ALPB and GBSA implicit solvation:
   * S. Ehlert, M. Stahn, S. Spicher, S. Grimme, J. Chem. Theory Comput.,
     2021, 17, 4250-4261. DOI: 10.1021/acs.jctc.1c00471
   
   for DFT-D4:
   * E. Caldeweyher, C. Bannwarth and S. Grimme, J. Chem. Phys., 2017,
     147, 034112. DOI: 10.1063/1.4993215
   * E. Caldeweyher, S. Ehlert, A. Hansen, H. Neugebauer, S. Spicher,
     C. Bannwarth and S. Grimme, J. Chem. Phys., 2019, 150, 154122.
     DOI: 10.1063/1.5090222
   * E. Caldeweyher, J.-M. Mewes, S. Ehlert and S. Grimme, Phys. Chem. Chem. Phys.
     2020, 22, 8499-8512. DOI: 10.1039/D0CP00502A
   
   for sTDA-xTB:
   * S. Grimme and C. Bannwarth, J. Chem. Phys., 2016, 145, 054103.
     DOI: 10.1063/1.4959605
   
   in the mass-spec context:
   * V. Asgeirsson, C. Bauer and S. Grimme, Chem. Sci., 2017, 8, 4879.
     DOI: 10.1039/c7sc00601b
   * J. Koopman and S. Grimme, ACS Omega 2019, 4, 12, 15120-15133.
     DOI: 10.1021/acsomega.9b02011
   
   for metadynamics refer to:
   * S. Grimme, J. Chem. Theory Comput., 2019, 155, 2847-2862
     DOI: 10.1021/acs.jctc.9b00143
   
   for SPH calculations refer to:
   * S. Spicher and S. Grimme, J. Chem. Theory Comput., 2021, 17, 1701-1714
     DOI: 10.1021/acs.jctc.0c01306
   
   with help from (in alphabetical order)
   P. Atkinson, C. Bannwarth, F. Bohle, G. Brandenburg, E. Caldeweyher
   M. Checinski, S. Dohm, S. Ehlert, S. Ehrlich, I. Gerasimov, C. Hölzer
   A. Katbashev, J. Koopman, C. Lavigne, S. Lehtola, F. März, M. Müller,
   F. Musil, H. Neugebauer, J. Pisarek, C. Plett, P. Pracht, F. Pultar,
   J. Seibert, P. Shushkov, S. Spicher, M. Stahn, M. Steiner, T. Strunk,
   J. Stückrath, T. Rose, and J. Unsleber
   
 * started run on 2024/06/05 at 19:58:00.525     

           -------------------------------------------------
          |                Calculation Setup                |
           -------------------------------------------------

          program call               : xtb xtbopt.xyz --opt crude --input .xc2 --gfn2
          hostname                   : n-62-12-66
          coordinate file            : xtbopt.xyz
          omp threads                :                     1

   ID    Z sym.   atoms
    1    6 C      1, 3, 5-7, 10, 11, 14
    2    7 N      2, 4, 9, 13
    3    8 O      8, 12
    4    1 H      15-25
########################################################################
[WARNING] Please study the warnings concerning your input carefully
-1- readin_getIntValue: could not parse ''
########################################################################

           -------------------------------------------------
          |                 G F N 2 - x T B                 |
           -------------------------------------------------

        Reference                      10.1021/acs.jctc.8b01176
      * Hamiltonian:
        H0-scaling (s, p, d)           1.850000    2.230000    2.230000
        zeta-weighting                 0.500000
      * Dispersion:
        s8                             2.700000
        a1                             0.520000
        a2                             5.000000
        s9                             5.000000
      * Repulsion:
        kExp                           1.500000    1.000000
        rExp                           1.000000
      * Coulomb:
        alpha                          2.000000
        third order                    shell-resolved
        anisotropic                    true
        a3                             3.000000
        a5                             4.000000
        cn-shift                       1.200000
        cn-exp                         4.000000
        max-rad                        5.000000

q/qsh data taken from xtbrestart
CAMM data taken from xtbrestart

          ...................................................
          :                      SETUP                      :
          :.................................................:
          :  # basis functions                  67          :
          :  # atomic orbitals                  67          :
          :  # shells                           39          :
          :  # electrons                        74          :
          :  max. iterations                   250          :
          :  Hamiltonian                  GFN2-xTB          :
          :  restarted?                       true          :
          :  GBSA solvation                  false          :
          :  PC potential                    false          :
          :  electronic temp.         5000.0000000     K    :
          :  accuracy                    1.0000000          :
          :  -> integral cutoff          0.2500000E+02      :
          :  -> integral neglect         0.1000000E-07      :
          :  -> SCF convergence          0.1000000E-05 Eh   :
          :  -> wf. convergence          0.1000000E-03 e    :
          :  Broyden damping             0.4000000          :
          ...................................................

 iter      E             dE          RMSdq      gap      omega  full diag
   1    -42.6826050 -0.426826E+02  0.103E-05    2.41       0.0  T
   2    -42.6826050 -0.781597E-13  0.784E-06    2.41    2550.8  T
   3    -42.6826050 -0.133582E-11  0.372E-06    2.41    5382.9  T

   *** convergence criteria satisfied after 3 iterations ***

         #    Occupation            Energy/Eh            Energy/eV
      -------------------------------------------------------------
         1        2.0000           -0.9124606             -24.8293
       ...           ...                  ...                  ...
        31        1.9990           -0.6167717             -16.7832
        32        1.9960           -0.5951845             -16.1958
        33        1.9955           -0.5932885             -16.1442
        34        1.9804           -0.5698947             -15.5076
        35        1.9641           -0.5601830             -15.2434
        36        1.9428           -0.5526160             -15.0374
        37        1.9192           -0.5469615             -14.8836 (HOMO)
        38        0.1624           -0.4583920             -12.4735 (LUMO)
        39        0.0339           -0.4325231             -11.7696
        40        0.0074           -0.4081062             -11.1051
        41        0.0006           -0.3686149             -10.0305
        42        0.0000           -0.3215495              -8.7498
       ...           ...                  ...                  ...
        67                         21.1114970             574.4731
      -------------------------------------------------------------
                  HL-Gap            0.0885695 Eh            2.4101 eV
             Fermi-level           -0.4968080 Eh          -13.5188 eV

 SCC (total)                   0 d,  0 h,  0 min,  0.022 sec
 SCC setup                      ...        0 min,  0.000 sec (  1.159%)
 Dispersion                     ...        0 min,  0.000 sec (  1.127%)
 classical contributions        ...        0 min,  0.000 sec (  0.337%)
 integral evaluation            ...        0 min,  0.005 sec ( 20.493%)
 iterations                     ...        0 min,  0.005 sec ( 22.056%)
 molecular gradient             ...        0 min,  0.012 sec ( 54.178%)
 printout                       ...        0 min,  0.000 sec (  0.619%)

         :::::::::::::::::::::::::::::::::::::::::::::::::::::
         ::                     SUMMARY                     ::
         :::::::::::::::::::::::::::::::::::::::::::::::::::::
         :: total energy             -38.633366330536 Eh    ::
         :: gradient norm             18.137962119960 Eh/a0 ::
         :: HOMO-LUMO gap              2.410098906444 eV    ::
         ::.................................................::
         :: SCC energy               -42.682604980637 Eh    ::
         :: -> isotropic ES            0.138054892938 Eh    ::
         :: -> anisotropic ES         -0.005224827509 Eh    ::
         :: -> anisotropic XC          0.019330980958 Eh    ::
         :: -> dispersion             -0.022415731396 Eh    ::
         :: repulsion energy           4.049051546666 Eh    ::
         :: add. restraining           0.000000000000 Eh    ::
         :: total charge               1.000000000001 e     ::
         :::::::::::::::::::::::::::::::::::::::::::::::::::::

      ----------------------------------------------------------- 
     |                   =====================                   |
     |                        A N C O P T                        |
     |                   =====================                   |
     |               Approximate Normal Coordinate               |
     |                Rational Function Optimizer                |
      ----------------------------------------------------------- 

          ...................................................
          :                      SETUP                      :
          :.................................................:
          :   optimization level             crude          :
          :   max. optcycles                   200          :
          :   ANC micro-cycles                  20          :
          :   degrees of freedom                69          :
          :.................................................:
          :   RF solver                   davidson          :
          :   write xtbopt.log                true          :
          :   linear?                        false          :
          :   energy convergence         0.5000000E-03 Eh   :
          :   grad. convergence          0.1000000E-01 Eh/α :
          :   maxmium RF displ.          1.0000000          :
          :   Hlow (freq-cutoff)         0.1000000E-01      :
          :   Hmax (freq-cutoff)         5.0000000          :
          :   S6 in model hess.         20.0000000          :
          ...................................................

generating ANC from model Hessian ...
Using Lindh-Hessian (1995)
 Shifting diagonal of input Hessian by    8.3357763374679698E-003
 Lowest  eigenvalues of input Hessian
    0.000000    0.000000    0.000000    0.000000    0.000000    0.000000
    0.010000    0.010162    0.011147    0.012254    0.014783    0.017093
    0.018809    0.019703    0.021513    0.025425    0.029768    0.030296
 Highest eigenvalues
    2.150946    2.203833    2.339042    2.382765    4.575035   15.582292


........................................................................
.............................. CYCLE    1 ..............................
........................................................................

 iter      E             dE          RMSdq      gap      omega  full diag
   1    -42.6826050 -0.426826E+02  0.163E-06    2.41       0.0  T
   2    -42.6826050 -0.710543E-13  0.126E-06    2.41   15920.9  T
   3    -42.6826050  0.170530E-12  0.558E-07    2.41   35840.2  T
     SCC iter.                  ...        0 min,  0.004 sec
     gradient                   ...        0 min,  0.011 sec
 * total energy  :   -38.6333663 Eh     change        0.9237056E-13 Eh
   gradient norm :    18.1379621 Eh/α   predicted     0.0000000E+00 (-100.00%)
   displ. norm   :     0.8855682 α      lambda       -0.1605163E+02
   maximum displ.:     0.8633840 α      in ANC's #68, #56, #58, ...

........................................................................
.............................. CYCLE    2 ..............................
........................................................................

 iter      E             dE          RMSdq      gap      omega  full diag
   1    -42.7187698 -0.427188E+02  0.111E+00    1.74       0.0  T
   2    -42.7330806 -0.143108E-01  0.601E-01    2.45       1.0  T
   3    -42.7340217 -0.941116E-03  0.357E-01    2.17       1.0  T
   4    -42.7342458 -0.224071E-03  0.179E-01    2.27       1.0  T
   5    -42.7347210 -0.475196E-03  0.476E-02    2.23       1.0  T
   6    -42.7347567 -0.356887E-04  0.200E-02    2.23       1.0  T
   7    -42.7347586 -0.191098E-05  0.914E-03    2.24       2.2  T
   8    -42.7347599 -0.134956E-05  0.245E-03    2.24       8.2  T
   9    -42.7347599 -0.290048E-07  0.996E-04    2.24      20.1  T
  10    -42.7347599 -0.471485E-08  0.466E-04    2.24      42.9  T
     SCC iter.                  ...        0 min,  0.008 sec
     gradient                   ...        0 min,  0.008 sec
 * total energy  :   -42.0885597 Eh     change       -0.3455193E+01 Eh
   gradient norm :     0.5289716 Eh/α   predicted    -0.1432112E+02 ( 314.48%)
   displ. norm   :     0.3866609 α      lambda       -0.1624179E+00
   maximum displ.:     0.2079659 α      in ANC's #58, #56, #13, ...

........................................................................
.............................. CYCLE    3 ..............................
........................................................................

 iter      E             dE          RMSdq      gap      omega  full diag
   1    -42.6565605 -0.426566E+02  0.833E-01    2.36       0.0  T
   2    -42.6756063 -0.190458E-01  0.662E-01    1.83       1.0  T
   3    -42.6823051 -0.669880E-02  0.256E-01    2.20       1.0  T
   4    -42.6819675  0.337607E-03  0.228E-01    2.08       1.0  T
   5    -42.6824066 -0.439099E-03  0.645E-02    2.14       1.0  T
   6    -42.6824823 -0.756951E-04  0.246E-02    2.17       1.0  T
   7    -42.6824918 -0.947448E-05  0.956E-03    2.18       2.1  T
   8    -42.6824925 -0.736800E-06  0.466E-03    2.18       4.3  T
   9    -42.6824926 -0.988576E-07  0.220E-03    2.18       9.1  T
  10    -42.6824927 -0.416918E-07  0.992E-04    2.18      20.2  T
  11    -42.6824927 -0.961531E-08  0.263E-04    2.18      75.9  T
     SCC iter.                  ...        0 min,  0.009 sec
     gradient                   ...        0 min,  0.008 sec
 * total energy  :   -42.1342138 Eh     change       -0.4565413E-01 Eh
   gradient norm :     0.1675833 Eh/α   predicted    -0.9338774E-01 ( 104.55%)
   displ. norm   :     0.2392603 α      lambda       -0.1527475E-01
   maximum displ.:     0.0935724 α      in ANC's #40, #33, #13, ...

........................................................................
.............................. CYCLE    4 ..............................
........................................................................

 iter      E             dE          RMSdq      gap      omega  full diag
   1    -42.6972965 -0.426973E+02  0.214E-01    2.23       0.0  T
   2    -42.6976091 -0.312573E-03  0.136E-01    2.31       1.0  T
   3    -42.6976434 -0.343498E-04  0.663E-02    2.27       1.0  T
   4    -42.6976498 -0.642925E-05  0.267E-02    2.29       1.0  T
   5    -42.6976645 -0.146533E-04  0.771E-03    2.29       2.6  T
   6    -42.6976650 -0.498499E-06  0.420E-03    2.28       4.8  T
   7    -42.6976651 -0.752953E-07  0.167E-03    2.28      12.0  T
   8    -42.6976651 -0.324632E-07  0.550E-04    2.28      36.4  T
   9    -42.6976651 -0.187983E-08  0.289E-04    2.28      69.3  T
     SCC iter.                  ...        0 min,  0.008 sec
     gradient                   ...        0 min,  0.008 sec
 * total energy  :   -42.1460009 Eh     change       -0.1178705E-01 Eh
   gradient norm :     0.1332522 Eh/α   predicted    -0.8074728E-02 ( -31.49%)
   displ. norm   :     0.2676817 α      lambda       -0.1111007E-01
   maximum displ.:     0.1104254 α      in ANC's #40, #33, #3, ...

........................................................................
.............................. CYCLE    5 ..............................
........................................................................

 iter      E             dE          RMSdq      gap      omega  full diag
   1    -42.7091860 -0.427092E+02  0.234E-01    2.32       0.0  T
   2    -42.7096272 -0.441271E-03  0.143E-01    2.40       1.0  T
   3    -42.7096654 -0.382000E-04  0.709E-02    2.38       1.0  T
   4    -42.7096646  0.815308E-06  0.300E-02    2.38       1.0  T
   5    -42.7096856 -0.209991E-04  0.908E-03    2.39       2.2  T
   6    -42.7096862 -0.608667E-06  0.483E-03    2.38       4.1  T
   7    -42.7096863 -0.452393E-07  0.191E-03    2.38      10.5  T
   8    -42.7096863 -0.563290E-07  0.614E-04    2.38      32.6  T
   9    -42.7096863 -0.164484E-08  0.285E-04    2.38      70.1  T
     SCC iter.                  ...        0 min,  0.008 sec
     gradient                   ...        0 min,  0.008 sec
 * total energy  :   -42.1522089 Eh     change       -0.6208002E-02 Eh
   gradient norm :     0.1024625 Eh/α   predicted    -0.5953188E-02 (  -4.10%)
   displ. norm   :     0.1625575 α      lambda       -0.1514497E-02
   maximum displ.:     0.0857216 α      in ANC's #4, #3, #7, ...

........................................................................
.............................. CYCLE    6 ..............................
........................................................................

 iter      E             dE          RMSdq      gap      omega  full diag
   1    -42.7082518 -0.427083E+02  0.743E-02    2.41       0.0  T
   2    -42.7082542 -0.241358E-05  0.428E-02    2.41       1.0  T
   3    -42.7082525  0.167428E-05  0.107E-02    2.41       1.9  T
   4    -42.7082547 -0.210869E-05  0.317E-03    2.41       6.3  T
   5    -42.7082548 -0.187443E-06  0.150E-03    2.41      13.3  T
   6    -42.7082549 -0.117070E-07  0.605E-04    2.41      33.1  T
   7    -42.7082549 -0.428113E-08  0.184E-04    2.41     108.7  T
     SCC iter.                  ...        0 min,  0.006 sec
     gradient                   ...        0 min,  0.008 sec
 * total energy  :   -42.1534297 Eh     change       -0.1220781E-02 Eh
   gradient norm :     0.0979513 Eh/α   predicted    -0.7772723E-03 ( -36.33%)
   displ. norm   :     0.2811451 α      lambda       -0.2526512E-02
   maximum displ.:     0.1415838 α      in ANC's #3, #4, #2, ...

........................................................................
.............................. CYCLE    7 ..............................
........................................................................

 iter      E             dE          RMSdq      gap      omega  full diag
   1    -42.7039989 -0.427040E+02  0.135E-01    2.44       0.0  T
   2    -42.7040054 -0.650572E-05  0.802E-02    2.44       1.0  T
   3    -42.7040019  0.348734E-05  0.163E-02    2.44       1.2  T
   4    -42.7040066 -0.475117E-05  0.473E-03    2.44       4.2  T
   5    -42.7040070 -0.330551E-06  0.216E-03    2.44       9.3  T
   6    -42.7040070 -0.635651E-08  0.738E-04    2.44      27.1  T
   7    -42.7040070 -0.606919E-08  0.323E-04    2.44      61.9  T
     SCC iter.                  ...        0 min,  0.006 sec
     gradient                   ...        0 min,  0.008 sec
 * total energy  :   -42.1550883 Eh     change       -0.1658657E-02 Eh
   gradient norm :     0.0866400 Eh/α   predicted    -0.1363141E-02 ( -17.82%)
   displ. norm   :     0.2070554 α      lambda       -0.1610588E-02
   maximum displ.:     0.1154756 α      in ANC's #3, #2, #1, ...

........................................................................
.............................. CYCLE    8 ..............................
........................................................................

 iter      E             dE          RMSdq      gap      omega  full diag
   1    -42.7021677 -0.427022E+02  0.104E-01    2.46       0.0  T
   2    -42.7021728 -0.506345E-05  0.614E-02    2.46       1.0  T
   3    -42.7021709  0.185494E-05  0.128E-02    2.46       1.6  T
   4    -42.7021736 -0.272859E-05  0.345E-03    2.46       5.8  T
   5    -42.7021738 -0.154573E-06  0.168E-03    2.46      11.9  T
   6    -42.7021738 -0.128925E-07  0.670E-04    2.46      29.8  T
   7    -42.7021738 -0.454389E-08  0.259E-04    2.46      77.3  T
     SCC iter.                  ...        0 min,  0.006 sec
     gradient                   ...        0 min,  0.008 sec
 * total energy  :   -42.1563188 Eh     change       -0.1230459E-02 Eh
   gradient norm :     0.0713603 Eh/α   predicted    -0.8398360E-03 ( -31.75%)
   displ. norm   :     0.2969028 α      lambda       -0.2849589E-02
   maximum displ.:     0.1684375 α      in ANC's #2, #1, #3, ...

........................................................................
.............................. CYCLE    9 ..............................
........................................................................

 iter      E             dE          RMSdq      gap      omega  full diag
   1    -42.7014010 -0.427014E+02  0.152E-01    2.49       0.0  T
   2    -42.7014145 -0.135319E-04  0.891E-02    2.49       1.0  T
   3    -42.7014032  0.113810E-04  0.283E-02    2.49       1.0  T
   4    -42.7014183 -0.151336E-04  0.596E-03    2.49       3.4  T
   5    -42.7014186 -0.315123E-06  0.281E-03    2.49       7.1  T
   6    -42.7014187 -0.606831E-07  0.102E-03    2.49      19.6  T
   7    -42.7014187 -0.905691E-08  0.482E-04    2.49      41.5  T
   8    -42.7014187 -0.357412E-08  0.227E-04    2.49      88.0  T
     SCC iter.                  ...        0 min,  0.007 sec
     gradient                   ...        0 min,  0.008 sec
 * total energy  :   -42.1583115 Eh     change       -0.1992726E-02 Eh
   gradient norm :     0.0376444 Eh/α   predicted    -0.1550434E-02 ( -22.20%)
   displ. norm   :     0.1578462 α      lambda       -0.1507252E-02
   maximum displ.:     0.0815598 α      in ANC's #2, #1, #3, ...

........................................................................
.............................. CYCLE   10 ..............................
........................................................................

 iter      E             dE          RMSdq      gap      omega  full diag
   1    -42.7017803 -0.427018E+02  0.101E-01    2.51       0.0  T
   2    -42.7017905 -0.102530E-04  0.576E-02    2.51       1.0  T
   3    -42.7017881  0.243830E-05  0.189E-02    2.51       1.1  T
   4    -42.7017925 -0.440569E-05  0.452E-03    2.51       4.4  T
   5    -42.7017927 -0.155598E-06  0.266E-03    2.51       7.5  T
   6    -42.7017927 -0.738541E-07  0.910E-04    2.51      22.0  T
   7    -42.7017927 -0.117824E-07  0.365E-04    2.51      54.7  T
     SCC iter.                  ...        0 min,  0.006 sec
     gradient                   ...        0 min,  0.008 sec
 * total energy  :   -42.1592234 Eh     change       -0.9119314E-03 Eh
   gradient norm :     0.0128481 Eh/α   predicted    -0.7724162E-03 ( -15.30%)
   displ. norm   :     0.0679787 α      lambda       -0.2497457E-03
   maximum displ.:     0.0268745 α      in ANC's #3, #9, #5, ...

........................................................................
.............................. CYCLE   11 ..............................
........................................................................

 iter      E             dE          RMSdq      gap      omega  full diag
   1    -42.7015742 -0.427016E+02  0.547E-02    2.51       0.0  T
   2    -42.7015759 -0.171271E-05  0.324E-02    2.51       1.0  T
   3    -42.7015745  0.141743E-05  0.938E-03    2.51       2.1  T
   4    -42.7015762 -0.161950E-05  0.332E-03    2.51       6.0  T
   5    -42.7015764 -0.219206E-06  0.112E-03    2.51      17.9  T
   6    -42.7015764 -0.241314E-08  0.477E-04    2.51      42.0  T
   7    -42.7015764 -0.318748E-08  0.154E-04    2.51     130.0  T
     SCC iter.                  ...        0 min,  0.006 sec
     gradient                   ...        0 min,  0.008 sec
 * total energy  :   -42.1593775 Eh     change       -0.1541000E-03 Eh
   gradient norm :     0.0064221 Eh/α   predicted    -0.1254544E-03 ( -18.59%)
   displ. norm   :     0.0627215 α      lambda       -0.6995398E-04
   maximum displ.:     0.0455102 α      in ANC's #3, #5, #2, ...

   *** GEOMETRY OPTIMIZATION CONVERGED AFTER 11 ITERATIONS ***

------------------------------------------------------------------------
 total energy gain   :        -3.5260112 Eh    -2212.6054 kcal/mol
 total RMSD          :         0.3393911 a0        0.1796 Å
 total power (kW/mol):      -841.5946502 (step)********** (real)
------------------------------------------------------------------------

 ANCopt (total)                0 d,  0 h,  0 min,  0.218 sec
 optimizer setup                ...        0 min,  0.001 sec (  0.260%)
 model hessian                  ...        0 min,  0.007 sec (  3.184%)
 ANC generation                 ...        0 min,  0.001 sec (  0.349%)
 coordinate transformation      ...        0 min,  0.000 sec (  0.037%)
 single point calculation       ...        0 min,  0.205 sec ( 94.117%)
 optimization log               ...        0 min,  0.003 sec (  1.214%)
 hessian update                 ...        0 min,  0.000 sec (  0.051%)
 rational function              ...        0 min,  0.001 sec (  0.581%)

================
 final structure:
================
25
 xtb: 6.6.1 (8d0f1dd)
C            2.92893914472107        1.08872428201097        0.25631835783118
N            2.11731067054506       -0.07792694912161        0.03724188805570
C            2.56656440402463       -1.31382584693594       -0.11165049879067
N            1.53345842181394       -2.14336243393640       -0.29962887494466
C            0.35855461651479       -1.41480616217079       -0.24319615927355
C            0.74194169395143       -0.09482613400613       -0.00282400147143
C           -0.06105261394192        1.15245883316928       -0.12979175950195
O            0.40414227558305        2.10772426191401       -0.71038857197650
N           -1.34117868933802        1.12165476980149        0.36376146971743
C           -2.26327593539769        2.15174104311522       -0.08595804662489
C           -1.78882580917416        0.25468404335354        1.33857884682958
O           -2.92000743775697        0.22227193132782        1.71924146851027
N           -0.88736408247133       -1.90813350847509       -0.29630429075357
C           -1.29847112387052       -2.91516507725430       -0.94878526232592
H            2.79277368275427        1.45572563199476        1.27480400137477
H            3.97585651206700        0.84232115481865        0.09911933029390
H            2.62370174300645        1.87847663315513       -0.43190163376387
H            3.59848736808978       -1.60681269280343       -0.07853975551278
H           -1.69554248623279        3.02550708498683       -0.40027560175928
H           -2.85262372541131        1.78202146043827       -0.92659180284235
H           -2.93847587625162        2.40675132254777        0.72779735466498
H           -1.00042292496366       -0.36519854578504        1.78101383748315
H           -0.70883622309611       -3.47372448225588       -1.67625644451926
H           -2.32406697131352       -3.21408724753056       -0.79964863529969
H            1.59884488024818       -3.14395483075632       -0.42496359750578

 Bond Distances (Angstroems)
 ---------------------------
C1-N2=1.4380         C1-H15=1.0911        C1-H16=1.0870        C1-H17=1.0911        N2-C1=1.4380         N2-C3=1.3234         
N2-C6=1.3761         C3-N2=1.3234         C3-N4=1.3382         C3-H18=1.0732        N4-C3=1.3382         N4-C5=1.3836         
N4-H25=1.0105        C5-N4=1.3836         C5-C6=1.3954         C5-N13=1.3411        C6-N2=1.3761         C6-C5=1.3954         
C6-C7=1.4888         C7-C6=1.4888         C7-O8=1.2108         C7-N9=1.3723         O8-C7=1.2108         N9-C7=1.3723         
N9-C10=1.4538        N9-C11=1.3792        C10-N9=1.4538        C10-H19=1.0884       C10-H20=1.0912       C10-H21=1.0877       
C11-N9=1.3792        C11-O12=1.1940       C11-H22=1.0962       O12-C11=1.1940       N13-C5=1.3411        N13-C14=1.2684       
C14-N13=1.2684       C14-H23=1.0904       C14-H24=1.0786       H15-C1=1.0911        H16-C1=1.0870        H17-C1=1.0911        
H18-C3=1.0732        H19-C10=1.0884       H20-C10=1.0912       H21-C10=1.0877       H22-C11=1.0962       H23-C14=1.0904       
H24-C14=1.0786       H25-N4=1.0105        
 C  H  Rav=1.0875 sigma=0.0064  Rmin=1.0732  Rmax=1.0962    10
 C  C  Rav=1.4421 sigma=0.0467  Rmin=1.3954  Rmax=1.4888     2
 N  H  Rav=1.0105 sigma=0.0000  Rmin=1.0105  Rmax=1.0105     1
 N  C  Rav=1.3674 sigma=0.0512  Rmin=1.2684  Rmax=1.4538    10
 O  C  Rav=1.2024 sigma=0.0084  Rmin=1.1940  Rmax=1.2108     2

 selected bond angles (degree)
 --------------------
H15-C1-N2=110.16               H16-C1-N2=109.74               H16-C1-H15=109.36              H17-C1-N2=109.47               
H17-C1-H15=108.08              H17-C1-H16=110.02              C3-N2-C1=125.68                C6-N2-C1=125.35                
C6-N2-C3=108.94                N4-C3-N2=109.43                H18-C3-N2=125.30               H18-C3-N4=125.27               
C5-N4-C3=108.87                H25-N4-C3=125.54               H25-N4-C5=125.55               C6-C5-N4=105.77                
N13-C5-N4=126.41               N13-C5-C6=127.59               C5-C6-N2=106.93                C7-C6-N2=122.09                
C7-C6-C5=129.02                O8-C7-C6=119.65                N9-C7-C6=116.98                N9-C7-O8=123.27                
C10-N9-C7=117.68               C11-N9-C7=124.82               C11-N9-C10=117.27              H19-C10-N9=109.11              
H20-C10-N9=109.93              H20-C10-H19=109.35             H21-C10-N9=109.17              H21-C10-H19=110.59             
H21-C10-H20=108.69             

 selected dihedral angles (degree)
 ---------------------------------
C3-N2-C1-H15=250.03           C3-N2-C1-H16= 10.48           C3-N2-C1-H17=131.31           C6-N2-C1-H15= 67.52           
C6-N2-C1-H16=187.97           C6-N2-C1-H17=308.80           N4-C3-N2-C1=180.14            N4-C3-N2-C6=  2.31            
H18-C3-N2-C1=  0.62           H18-C3-N2-C6=182.78           C5-N4-C3-N2=358.76            C5-N4-C3-H18=178.28           
H25-N4-C3-N2=181.02           H25-N4-C3-H18=  0.55          C6-C5-N4-C3=359.70            C6-C5-N4-H25=177.44           
N13-C5-N4-C3=184.80           N13-C5-N4-H25=  2.54          C5-C6-N2-C1=179.70            C5-C6-N2-C3=357.55            
C7-C6-N2-C1= 14.30            C7-C6-N2-C3=192.14            N2-C6-C5-N4=  1.65            N2-C6-C5-N13=176.47           
C7-C6-C5-N4=165.70            C7-C6-C5-N13=340.52           O8-C7-C6-N2= 29.24            O8-C7-C6-C5=227.31            
N9-C7-C6-N2=205.56            N9-C7-C6-C5= 43.63            C10-N9-C7-C6=197.82           C10-N9-C7-O8= 14.00           
C11-N9-C7-C6= 23.51           C11-N9-C7-O8=199.68           H19-C10-N9-C7=335.34          H19-C10-N9-C11=150.10         
H20-C10-N9-C7= 95.24          H20-C10-N9-C11=269.99         H21-C10-N9-C7=214.38          H21-C10-N9-C11= 29.14         
           -------------------------------------------------
          |                Final Singlepoint                |
           -------------------------------------------------

          ...................................................
          :                      SETUP                      :
          :.................................................:
          :  # basis functions                  67          :
          :  # atomic orbitals                  67          :
          :  # shells                           39          :
          :  # electrons                        74          :
          :  max. iterations                   250          :
          :  Hamiltonian                  GFN2-xTB          :
          :  restarted?                      false          :
          :  GBSA solvation                  false          :
          :  PC potential                    false          :
          :  electronic temp.         5000.0000000     K    :
          :  accuracy                    1.0000000          :
          :  -> integral cutoff          0.2500000E+02      :
          :  -> integral neglect         0.1000000E-07      :
          :  -> SCF convergence          0.1000000E-05 Eh   :
          :  -> wf. convergence          0.1000000E-03 e    :
          :  Broyden damping             0.4000000          :
          ...................................................

 iter      E             dE          RMSdq      gap      omega  full diag
   1    -42.7015764 -0.427016E+02  0.697E-05    2.51       0.0  T
   2    -42.7015764 -0.127045E-10  0.426E-05    2.51     469.2  T
   3    -42.7015764  0.405009E-12  0.280E-05    2.51     715.4  T

   *** convergence criteria satisfied after 3 iterations ***

         #    Occupation            Energy/Eh            Energy/eV
      -------------------------------------------------------------
         1        2.0000           -0.9124963             -24.8303
       ...           ...                  ...                  ...
        31        1.9991           -0.6174571             -16.8019
        32        1.9969           -0.5979179             -16.2702
        33        1.9962           -0.5949350             -16.1890
        34        1.9847           -0.5727303             -15.5848
        35        1.9639           -0.5589198             -15.2090
        36        1.9395           -0.5505713             -14.9818
        37        1.9307           -0.5483440             -14.9212 (HOMO)
        38        0.1514           -0.4560368             -12.4094 (LUMO)
        39        0.0347           -0.4317523             -11.7486
        40        0.0036           -0.3956288             -10.7656
        41        0.0003           -0.3573836              -9.7249
        42        0.0000           -0.3227273              -8.7819
       ...           ...                  ...                  ...
        67                          0.5244595              14.2713
      -------------------------------------------------------------
                  HL-Gap            0.0923072 Eh            2.5118 eV
             Fermi-level           -0.4956581 Eh          -13.4875 eV

 SCC (total)                   0 d,  0 h,  0 min,  0.015 sec
 SCC setup                      ...        0 min,  0.000 sec (  0.982%)
 Dispersion                     ...        0 min,  0.000 sec (  0.822%)
 classical contributions        ...        0 min,  0.000 sec (  0.345%)
 integral evaluation            ...        0 min,  0.003 sec ( 21.715%)
 iterations                     ...        0 min,  0.003 sec ( 20.353%)
 molecular gradient             ...        0 min,  0.008 sec ( 55.215%)
 printout                       ...        0 min,  0.000 sec (  0.532%)

         :::::::::::::::::::::::::::::::::::::::::::::::::::::
         ::                     SUMMARY                     ::
         :::::::::::::::::::::::::::::::::::::::::::::::::::::
         :: total energy             -42.159377536530 Eh    ::
         :: gradient norm              0.006424386372 Eh/a0 ::
         :: HOMO-LUMO gap              2.511807797752 eV    ::
         ::.................................................::
         :: SCC energy               -42.701576376276 Eh    ::
         :: -> isotropic ES            0.134219897552 Eh    ::
         :: -> anisotropic ES         -0.004884370151 Eh    ::
         :: -> anisotropic XC          0.019964932979 Eh    ::
         :: -> dispersion             -0.022314131737 Eh    ::
         :: repulsion energy           0.541991736810 Eh    ::
         :: add. restraining           0.000000000000 Eh    ::
         :: total charge               1.000000000002 e     ::
         :::::::::::::::::::::::::::::::::::::::::::::::::::::

           -------------------------------------------------
          |                Property Printout                |
           -------------------------------------------------

    * Orbital Energies and Occupations

         #    Occupation            Energy/Eh            Energy/eV
      -------------------------------------------------------------
         1        2.0000           -0.9124963             -24.8303
       ...           ...                  ...                  ...
        25        2.0000           -0.6647457             -18.0887
        26        1.9999           -0.6597729             -17.9533
        27        1.9999           -0.6541120             -17.7993
        28        1.9999           -0.6486381             -17.6503
        29        1.9998           -0.6394246             -17.3996
        30        1.9995           -0.6276042             -17.0780
        31        1.9991           -0.6174571             -16.8019
        32        1.9969           -0.5979179             -16.2702
        33        1.9962           -0.5949350             -16.1890
        34        1.9847           -0.5727303             -15.5848
        35        1.9639           -0.5589198             -15.2090
        36        1.9395           -0.5505713             -14.9818
        37        1.9307           -0.5483440             -14.9212 (HOMO)
        38        0.1514           -0.4560368             -12.4094 (LUMO)
        39        0.0347           -0.4317523             -11.7486
        40        0.0036           -0.3956288             -10.7656
        41        0.0003           -0.3573836              -9.7249
        42        0.0000           -0.3227273              -8.7819
        43                         -0.1907733              -5.1912
        44                         -0.1731277              -4.7110
        45                         -0.1247277              -3.3940
        46                         -0.0688967              -1.8748
        47                         -0.0550903              -1.4991
        48                         -0.0370225              -1.0074
       ...                                ...                  ...
        67                          0.5244595              14.2713
      -------------------------------------------------------------
                  HL-Gap            0.0923072 Eh            2.5118 eV
             Fermi-level           -0.4956581 Eh          -13.4875 eV

     #   Z          covCN         q      C6AA      α(0)
     1   6 C        3.693    -0.093    22.473     6.783
     2   7 N        2.844     0.087    19.728     6.597
     3   6 C        3.025     0.062    26.594     8.459
     4   7 N        2.803    -0.062    22.437     7.035
     5   6 C        3.017     0.126    25.223     8.238
     6   6 C        3.089    -0.015    28.290     8.718
     7   6 C        2.767     0.274    22.376     7.747
     8   8 O        0.859    -0.353    20.762     6.109
     9   7 N        2.734    -0.053    22.266     7.008
    10   6 C        3.707    -0.066    21.915     6.692
    11   6 C        2.712     0.249    22.821     7.820
    12   8 O        0.858    -0.282    19.467     5.916
    13   7 N        1.824    -0.154    25.128     7.428
    14   6 C        2.794     0.038    27.126     8.532
    15   1 H        0.924     0.109     1.702     2.040
    16   1 H        0.925     0.102     1.764     2.077
    17   1 H        0.924     0.139     1.468     1.895
    18   1 H        0.926     0.125     1.577     1.964
    19   1 H        0.925     0.109     1.709     2.044
    20   1 H        0.924     0.094     1.836     2.119
    21   1 H        0.925     0.107     1.721     2.051
    22   1 H        0.924     0.046     2.374     2.409
    23   1 H        0.924     0.068     2.104     2.269
    24   1 H        0.926     0.117     1.634     1.999
    25   1 H        0.860     0.227     0.977     1.549

 Mol. C6AA /au·bohr⁶  :       6669.816577
 Mol. C8AA /au·bohr⁸  :     153105.783931
 Mol. α(0) /au        :        125.497221


Wiberg/Mayer (AO) data.
largest (>0.10) Wiberg bond orders for each atom

 ---------------------------------------------------------------------------
     #   Z sym  total        # sym  WBO       # sym  WBO       # sym  WBO
 ---------------------------------------------------------------------------
     1   6 C    3.917 --     2 N    0.987    16 H    0.974    15 H    0.956
                            17 H    0.948
     2   7 N    3.710 --     3 C    1.393     6 C    1.182     1 C    0.987
     3   6 C    3.904 --     2 N    1.393     4 N    1.320    18 H    0.950
     4   7 N    3.594 --     3 C    1.320     5 C    1.144    25 H    0.920
     5   6 C    3.918 --     6 C    1.372    13 N    1.220     4 N    1.144
     6   6 C    3.881 --     5 C    1.372     2 N    1.182     7 C    0.996
     7   6 C    3.939 --     8 O    1.702     9 N    1.152     6 C    0.996
     8   8 O    2.032 --     7 C    1.702     9 N    0.139
     9   7 N    3.563 --     7 C    1.152    11 C    1.131    10 C    0.969
                             8 O    0.139    12 O    0.133
    10   6 C    3.909 --     9 N    0.969    21 H    0.967    19 H    0.965
                            20 H    0.958
    11   6 C    3.933 --    12 O    1.831     9 N    1.131    22 H    0.912
    12   8 O    2.078 --    11 C    1.831     9 N    0.133
    13   7 N    3.154 --    14 C    1.787     5 C    1.220
    14   6 C    3.810 --    13 N    1.787    24 H    0.956    23 H    0.948
    15   1 H    0.986 --     1 C    0.956
    16   1 H    0.989 --     1 C    0.974
    17   1 H    0.979 --     1 C    0.948
    18   1 H    0.984 --     3 C    0.950
    19   1 H    0.984 --    10 C    0.965
    20   1 H    0.980 --    10 C    0.958
    21   1 H    0.983 --    10 C    0.967
    22   1 H    0.980 --    11 C    0.912
    23   1 H    0.983 --    14 C    0.948
    24   1 H    0.981 --    14 C    0.956
    25   1 H    0.948 --     4 N    0.920
 ---------------------------------------------------------------------------

Topologies differ in total number of bonds
Writing topology from bond orders to xtbtopo.mol

molecular dipole:
                 x           y           z       tot (Debye)
 q only:        2.434      -1.823      -0.336
   full:        2.912      -2.481      -0.493       9.805
molecular quadrupole (traceless):
                xx          xy          yy          xz          yz          zz
 q only:       11.332      -7.858       8.291       6.837       7.758     -19.623
  q+dip:        8.564     -10.576      10.768       8.497      10.765     -19.332
   full:        7.381     -10.316      10.443       9.265      10.600     -17.824

           -------------------------------------------------
          |                Geometry Summary                 |
           -------------------------------------------------

      molecular mass/u    :      195.1988581
   center of mass at/Å    :       -0.0154323      -0.0941118       0.0687584
  moments of inertia/u·Å² :        0.5485374E+03   0.7883515E+03   0.1172362E+04
rotational constants/cm⁻¹ :        0.3073196E-01   0.2138340E-01   0.1437920E-01

 * 24 selected distances

     #   Z          #   Z                                           value/Å
     1   6 C        2   7 N                                       1.4379884
     2   7 N        3   6 C                                       1.3234214
     3   6 C        4   7 N                                       1.3381985
     4   7 N        5   6 C                                       1.3836106
     2   7 N        6   6 C                                       1.3760563
     5   6 C        6   6 C                                       1.3953896
     7   6 C        8   8 O                                       1.2107978
     7   6 C        9   7 N                                       1.3723217
     9   7 N       10   6 C                                       1.4538188 (max)
     9   7 N       11   6 C                                       1.3792373
    11   6 C       12   8 O                                       1.1939542
     5   6 C       13   7 N                                       1.3410839
    13   7 N       14   6 C                                       1.2684058
     1   6 C       15   1 H                                       1.0911206
     1   6 C       16   1 H                                       1.0869509
     1   6 C       17   1 H                                       1.0911121
     3   6 C       18   1 H                                       1.0732208
    10   6 C       19   1 H                                       1.0883860
    10   6 C       20   1 H                                       1.0911868
    10   6 C       21   1 H                                       1.0877147
    11   6 C       22   1 H                                       1.0961672
    14   6 C       23   1 H                                       1.0903543
    14   6 C       24   1 H                                       1.0786303
     4   7 N       25   1 H                                       1.0105293 (min)

 * 5 distinct bonds (by element types)

   Z      Z             #   av. dist./Å        max./Å        min./Å
   1 H    6 C          10     1.0874844     1.0961672     1.0732208
   6 C    6 C           1     1.3953896     1.3953896     1.3953896
   1 H    7 N           1     1.0105293     1.0105293     1.0105293
   6 C    7 N          10     1.3674143     1.4538188     1.2684058
   6 C    8 O           2     1.2023760     1.2107978     1.1939542


optimized geometry written to: xtbopt.xyz


           -------------------------------------------------
          | TOTAL ENERGY              -42.159377536530 Eh   |
          | GRADIENT NORM               0.006424386372 Eh/α |
          | HOMO-LUMO GAP               2.511807797752 eV   |
           -------------------------------------------------

------------------------------------------------------------------------
 * finished run on 2024/06/05 at 19:58:00.845     
------------------------------------------------------------------------
 total:
 * wall-time:     0 d,  0 h,  0 min,  0.320 sec
 *  cpu-time:     0 d,  0 h,  0 min,  0.289 sec
 * ratio c/w:     0.904 speedup
 SCF:
 * wall-time:     0 d,  0 h,  0 min,  0.022 sec
 *  cpu-time:     0 d,  0 h,  0 min,  0.022 sec
 * ratio c/w:     0.999 speedup
 ANC optimizer:
 * wall-time:     0 d,  0 h,  0 min,  0.242 sec
 *  cpu-time:     0 d,  0 h,  0 min,  0.236 sec
 * ratio c/w:     0.973 speedup

