25
 energy: 0.000000000000 xtb: 6.6.1 (8d0f1dd)
C            3.23720163006194        1.16630919979326        0.08434469647475
N            2.29877817382611        0.07527477071623        0.03981603040599
C            2.58028210190900       -1.21425402444508        0.03006176031096
N            1.43813958087363       -1.93419271955128        0.00098261760884
C            0.39035688448383       -1.05887472636071       -0.00790371836672
C            0.93510056364412        0.21347819449412        0.01709077491437
C            0.09450143893243        1.40504303904423       -0.00410947031874
O            0.49712751527797        2.54126714362870       -0.00342325688240
N           -1.25076640035757        1.06271879480407       -0.03085478223738
C           -2.21907211982101        2.15522099834493       -0.05001256985998
C           -1.81739487048744       -0.20012725993278       -0.04692818574614
O           -2.99983886758376       -0.37846417018721       -0.07008878229737
N           -0.92618586207120       -1.30210215599479       -0.03682761578324
C           -1.46982264913417       -2.64643102187190       -0.06029820460571
H            3.71247264356769        1.21471455160235        1.06488849150277
H            4.00791497605742        1.03430808813993       -0.67357694370751
H            2.69910007168542        2.09770118228144       -0.09130154882931
H            3.56654120610678       -1.63682992603973        0.04233140067262
H           -1.67107961066214        3.09322851271934       -0.02552706933167
H           -2.82428953597071        2.09428624779827       -0.95318082946668
H           -2.87644029173232        2.07745725625962        0.81450067533302
H           -1.17061996399332       -3.19584890659852        0.83242232437030
H           -1.14560257411436       -3.17511610292205       -0.95688275822323
H           -2.55549792440841       -2.55659984320617       -0.07459039797972
H            1.38130855184625       -2.94313852034425       -0.01389874181052
25
 energy: 0.166329628671 xtb: 6.6.1 (8d0f1dd)
C            3.28598096236722        1.16893905882982        0.05024905695092
N            2.30852386065796        0.10732183087067        0.01221049939416
C            2.58793392546290       -1.22066874199174        0.02388978784527
N            1.41726821089658       -1.92894783254730       -0.00066998033133
C            0.38505668798379       -1.04735122729349       -0.00985538236498
C            0.92151027523207        0.23369588924426        0.00726898175813
C            0.07776800932306        1.40014906517476       -0.00160753804310
O            0.46518608893865        2.56798937418993        0.00419239795590
N           -1.28392798368126        1.04994350769403       -0.02927084882770
C           -2.25288486910537        2.14062492405571       -0.04795810009335
C           -1.84065752860114       -0.20421325566269       -0.04715773356795
O           -3.03605066003606       -0.39280865378217       -0.07000002353637
N           -0.94564856138481       -1.29953673393650       -0.03573174793031
C           -1.48046519927218       -2.64459320286286       -0.05561792302268
H            3.77904295627636        1.19198938107181        0.99521148677788
H            4.23550894227206        1.04132658131229       -0.56305259846595
H            2.73801030314760        2.10733249252148       -0.09067962643662
H            3.56435790955622       -1.64472281902224        0.03901244732522
H           -1.70223240821251        3.07835578286982       -0.02287665038107
H           -2.85910414130348        2.08355851550499       -0.95179831519267
H           -2.91157882731166        2.06535305080892        0.81670853493947
H           -1.17985847463362       -3.19227685483566        0.83956531434847
H           -1.14911485278330       -3.17892545477509       -0.94821794121738
H           -2.56658517528098       -2.56041914988431       -0.07392849674441
H            1.35417521742814       -2.93308692538241       -0.01285170499222
25
 energy: 19.297727152466 xtb: 6.6.1 (8d0f1dd)
C            3.36284052834362        1.16161721349985        0.00934156007782
N            2.32414895092480        0.14434802457646       -0.03397408623479
C            2.58579852389015       -1.21742888982597        0.01301536234584
N            1.39127414037090       -1.90907189125940       -0.00285758273423
C            0.37736620274987       -1.02542294704488       -0.01341693211638
C            0.90855778878642        0.26580173086473       -0.01158808276570
C            0.05360626710819        1.39578100303180       -0.00030966509637
O            0.40566765790333        2.58583786615531        0.01863605202782
N           -1.32962310177985        1.03811233700415       -0.02747445971489
C           -2.30358356235653        2.12295883873566       -0.04526269428244
C           -1.86671390821403       -0.20906239318134       -0.04674093637373
O           -3.06595231497535       -0.41460211482466       -0.07053800411338
N           -0.96678234824720       -1.29138492724358       -0.03342841719248
C           -1.49139238995547       -2.64003920730098       -0.04805326221008
H            3.86986108560010        1.15029394625631        0.93092500042122
H            4.52298877876050        1.03616159463987       -0.42655206252061
H            2.81736105066103        2.11096852820558       -0.10014005586090
H            3.55250117708037       -1.64437558501349        0.03286138142507
H           -1.75586107259388        3.06294409588907       -0.01929157054795
H           -2.91191642607222        2.06593670811181       -0.94894587393171
H           -2.96505376394560        2.04582081484039        0.81824190778170
H           -1.19523319471136       -3.18549399825046        0.85163226218468
H           -1.15369788724227       -3.18394525323135       -0.93436293685273
H           -2.57900450267274       -2.56511479037410       -0.07367684922224
H            1.32505698852345       -2.91161210208876       -0.01100615834621
25
 energy: 37.485301775496 xtb: 6.6.1 (8d0f1dd)
C            3.44735504156690        1.14429046290932       -0.01414145417634
N            2.34283082599401        0.16737006732060       -0.07262215281504
C            2.57682849552760       -1.20687593259221       -0.00123719952258
N            1.37604346732970       -1.88642962575359       -0.00584680652261
C            0.37061127499399       -1.00199857776278       -0.01955426340522
C            0.90574458727612        0.29560862793244       -0.03149925288460
C            0.02866862026540        1.40616680086028       -0.00097774676226
O            0.34571602017731        2.60447415345442        0.03180120782962
N           -1.36702296821597        1.03594337356662       -0.02713875652692
C           -2.35501618208660        2.10785173502382       -0.04477659519670
C           -1.88935763587243       -0.21385612564790       -0.04741653334183
O           -3.08711113802658       -0.43580846941969       -0.07232473175445
N           -0.97790014328555       -1.28158490849207       -0.03196453331327
C           -1.49687139380046       -2.63440688417507       -0.03889071051017
H            3.93779712397397        1.09078201349090        0.91155569600703
H            4.73670539620246        1.02200678608330       -0.35358460962891
H            2.92477887405838        2.11208035881160       -0.09858708963668
H            3.53987409345162       -1.64033375920435        0.02480647094363
H           -1.81961029135274        3.05415877511973       -0.01779441259982
H           -2.96480496247374        2.04388535683570       -0.94796623192922
H           -3.01930895071779        2.02238741155453        0.81670817648177
H           -1.20964282368177       -3.17420279575605        0.86738637978624
H           -1.15525471165425       -3.18716718766379       -0.91839414268156
H           -2.58598832965764       -2.56552134000377       -0.07294001358965
H            1.30715037794435       -2.88979171431999       -0.00756679810314
25
 energy: 50.756416327449 xtb: 6.6.1 (8d0f1dd)
C            3.48597261369119        1.13404463179270       -0.02727061003114
N            2.35053176182841        0.17535391645583       -0.09758339692282
C            2.56668547203405       -1.19683512221623       -0.01295813332876
N            1.37085497825554       -1.87336789105957       -0.00826191742195
C            0.36436620484408       -0.98932387652735       -0.02571099967612
C            0.90217031470074        0.31035475684008       -0.04740830954328
C            0.01463514188311        1.41592926581509       -0.00492184838424
O            0.31024108378536        2.61190614412272        0.03790319767604
N           -1.38585298674498        1.03664678300381       -0.02796319104709
C           -2.38183951182741        2.10109587529073       -0.04494627487859
C           -1.90241260304200       -0.21740249017006       -0.04665318528574
O           -3.09698495240694       -0.44631949297757       -0.07142483484191
N           -0.98291609525143       -1.27697503043698       -0.03115506426309
C           -1.49888641161596       -2.63240755584929       -0.03127122535722
H            3.96104696276507        1.03633771567293        0.89781924018098
H            4.87964739356438        1.02544914443404       -0.31174661384798
H            2.97943101648755        2.11261705310533       -0.08873138072719
H            3.53076788500208       -1.63210674266941        0.01939539301923
H           -1.85696114575819        3.05270794225657       -0.01801165015883
H           -2.99276384238502        2.03061467694929       -0.94734520305018
H           -3.04634553202556        2.00911972134814        0.81616282900496
H           -1.21777892735472       -3.16589211337140        0.88030668428834
H           -1.15518735498266       -3.19015300864763       -0.90604789535340
H           -2.58856433840757       -2.56450128655287       -0.07029711547980
H            1.30235754089713       -2.87786441443689       -0.00484459842286
25
 energy: 66.398859268048 xtb: 6.6.1 (8d0f1dd)
C            3.49412732916963        1.13088102963304       -0.04398290493113
N            2.35067512590589        0.17750291385214       -0.11515668473526
C            2.55325473836156       -1.18552393482782       -0.01921244562668
N            1.36746332092548       -1.86437454695305       -0.00767759490665
C            0.35540718394734       -0.98280344603003       -0.03159698038120
C            0.89389754657564        0.31746062795380       -0.06335949273819
C            0.00505150754894        1.42361206585638       -0.01226428598964
O            0.28211286324264        2.61314518058256        0.04265568161601
N           -1.39868856883960        1.03628808394037       -0.02910558245062
C           -2.39751332328944        2.09754579250197       -0.04417827500807
C           -1.91353962751629       -0.22169237679771       -0.04475760423153
O           -3.10432865525479       -0.45278954998823       -0.06799911920985
N           -0.98852716928566       -1.27612351135051       -0.03088639675355
C           -1.50212839663065       -2.63364744007003       -0.02517711726032
H            3.97350828765616        0.97982241881507        0.86390803418660
H            5.04538259908190        1.04873192898478       -0.26555204636249
H            2.99609900208166        2.11356841334515       -0.07620318143895
H            3.52105130082349       -1.61896884702643        0.01857957695377
H           -1.87877429793609        3.05178173125545       -0.01797536953205
H           -3.00979046242327        2.02356394579787       -0.94556887335015
H           -3.06072138955040        2.00266617535715        0.81778864292449
H           -1.22455765984731       -3.16110715313897        0.89026985478028
H           -1.15672217376548       -3.19412018939071       -0.89623706778070
H           -2.59216049420113       -2.56624207090815       -0.06694347902484
H            1.30163608115606       -2.87014863922211       -0.00233339260195
25
 energy: 79.014486984053 xtb: 6.6.1 (8d0f1dd)
C            3.48351092629070        1.13009892699228       -0.07048630879723
N            2.34347635348090        0.17799584175608       -0.12180452392721
C            2.53764722930042       -1.17361946779544       -0.01977867977318
N            1.36205523565866       -1.85836611762365       -0.00547554018895
C            0.34433747190257       -0.98070702907004       -0.03631525241571
C            0.88172080019983        0.31936316537840       -0.07707744681339
C           -0.00408285930064        1.42799294527559       -0.01949109113910
O            0.25789457475618        2.61045008429998        0.04651748826791
N           -1.41115449886422        1.03533081002892       -0.02903099384892
C           -2.40972790437886        2.09585493133888       -0.04169889049247
C           -1.92428856341216       -0.22596513632120       -0.04220123176689
O           -3.11191075213162       -0.45820014263381       -0.06329486009540
N           -0.99627278930543       -1.27732985268441       -0.03132563679551
C           -1.50693523675187       -2.63663046229372       -0.02084495997248
H            3.98447077383676        0.93377876948311        0.80883644736332
H            5.25314661473702        1.07761633721799       -0.19861012398897
H            2.99228623148801        2.11606104874556       -0.07222107151111
H            3.51036538845841       -1.60252015669909        0.01666397593250
H           -1.89384380710773        3.05118700927002       -0.01644585624559
H           -3.02320355755596        2.01997352708568       -0.94213844199424
H           -3.07123248578155        1.99972461106057        0.82139767227313
H           -1.23000619817944       -3.15910923316670        0.89711685418392
H           -1.16032043263382       -3.19821594955620       -0.88959075667875
H           -2.59719696634116       -2.57022156130020       -0.06315721559309
H            1.30147911957128       -2.86551429661658       -0.00250965983526
25
 energy: 83.455140795948 xtb: 6.6.1 (8d0f1dd)
C            3.44647191879722        1.13079297403397       -0.10624063001313
N            2.32578511630900        0.17484266185609       -0.11733237489262
C            2.51885972219636       -1.15929923975266       -0.01995242928247
N            1.35556733891050       -1.85537229414775       -0.00116248576587
C            0.33083546326543       -0.98275096123086       -0.03726282340722
C            0.86551025097140        0.31478763566720       -0.08289671812741
C           -0.01379547504470        1.43085291519184       -0.02175865399017
O            0.23846588814218        2.60305392642373        0.05125670812129
N           -1.42229461747730        1.03535190805085       -0.02817702721507
C           -2.41913941787597        2.09601010058909       -0.03966820279340
C           -1.93402868377382       -0.22970614064887       -0.03983471573614
O           -3.11842259441122       -0.46194136018548       -0.06008713151345
N           -1.00486659724344       -1.27995168227316       -0.03094639769172
C           -1.51216981794795       -2.64064230273725       -0.01808046608410
H            4.01429037580085        0.89688909072747        0.72199188237637
H            5.48970699068693        1.10574402364332       -0.10642571306028
H            2.96655676356761        2.12241172551475       -0.06888614720382
H            3.49883317874421       -1.58159354900147        0.01130619162062
H           -1.90469309712530        3.05171483492356       -0.01484039904908
H           -3.03268062059543        2.01841153526072       -0.93970469750946
H           -3.07914275967687        1.99862045274592        0.82417684544710
H           -1.23449476138437       -3.15907205215442        0.90132828636722
H           -1.16375068786248       -3.20107713412712       -0.88571904465224
H           -2.60241003257704       -2.57497452777911       -0.06060959216043
H            1.30322082354049       -2.86407393841836       -0.00344036763720
25
 energy: 79.370813482669 xtb: 6.6.1 (8d0f1dd)
C            3.38174666859110        1.13409415663552       -0.14017702599019
N            2.30354405193311        0.17172587002266       -0.10127503338826
C            2.50432555898381       -1.14746358747266       -0.01662156736116
N            1.34909069832644       -1.85675648483177        0.00491302382040
C            0.31944314560484       -0.98844380218391       -0.03344852905395
C            0.85041728669286        0.30592669344049       -0.07617967767730
C           -0.02109114109866        1.43120908935504       -0.01821712974263
O            0.22968836356246        2.59531916503936        0.05727811895298
N           -1.42788490135742        1.03573520522841       -0.02815037207403
C           -2.42258340860243        2.09740471017251       -0.03936611638607
C           -1.93955010985389       -0.23208446684972       -0.03975464020916
O           -3.12217887573150       -0.46278475421455       -0.06048799692665
N           -1.01170745173164       -1.28319017588720       -0.03035864642242
C           -1.51664270888312       -2.64438481188728       -0.01872613857234
H            4.07985244386015        0.87914093039328        0.60665164463419
H            5.67884361088774        1.12288685351861       -0.00916106727649
H            2.91633328074370        2.13166604476100       -0.05752542852643
H            3.49024958285233       -1.56429976147533        0.00933966944389
H           -1.90794261366698        3.05288672640371       -0.01394267526364
H           -3.03517271097328        2.01980245286845       -0.93963671328201
H           -3.08191332909643        1.99951080245548        0.82459082248480
H           -1.23731499440233       -3.16120715557590        0.90057284124470
H           -1.16574324295409       -3.20199360607966       -0.88661844040731
H           -2.60660471560554       -2.57954117587287       -0.06168660842499
H            1.30501017985505       -2.86613031579168       -0.00497841744858
25
 energy: 67.428971070980 xtb: 6.6.1 (8d0f1dd)
C            3.14432130335435        1.13740755104171       -0.16603108774755
N            2.24443665171544        0.15693561250153       -0.02545988870260
C            2.49991457382926       -1.13305739940425       -0.00799598064792
N            1.34496400091829       -1.87460311905357        0.00780280355084
C            0.31200930209535       -1.00921774625421       -0.02762673591909
C            0.83705641368143        0.27141111165007       -0.04852862391356
C           -0.02189740465103        1.42783030642396       -0.00854490594083
O            0.26179696410768        2.58621845559371        0.05671280802735
N           -1.40731777701041        1.03904621635403       -0.03032688028391
C           -2.40331112534205        2.10243669141684       -0.03883604002322
C           -1.92865325549267       -0.22947442113606       -0.04429306273039
O           -3.11497708416243       -0.45075241554311       -0.06069530237576
N           -1.00962425445696       -1.28851153807743       -0.03290322708397
C           -1.51758069935575       -2.64656716437990       -0.02578603885825
H            4.19351780833428        0.91578089889743        0.37180115143682
H            5.85392339173125        1.11364083368228        0.13847690775969
H            2.78171168017970        2.15518667540570       -0.02884420231896
H            3.49165878342765       -1.55214694935540        0.01152303551369
H           -1.88429507381088        3.05655978393269       -0.01238827023743
H           -3.01371531170424        2.03029195433112       -0.93963566921009
H           -3.06079096165612        2.00753539813432        0.82577506742073
H           -1.22822764265706       -3.16718795457197        0.88771569049688
H           -1.16479807171086       -3.19819807128852       -0.89758280542280
H           -2.60570798287800       -2.58129549633698       -0.06469908839439
H            1.30780043945007       -2.88024061179194       -0.01259575824793
25
 energy: 63.455557035306 xtb: 6.6.1 (8d0f1dd)
C            3.07580486303283        1.14996208186493       -0.19532498919232
N            2.22437869251574        0.15911452300235        0.00234205055753
C            2.49733197550512       -1.14134396454175        0.01585849135697
N            1.33942820696903       -1.88887054462627        0.01097160011873
C            0.30503259215148       -1.02512223994860       -0.01865993539140
C            0.82397099738181        0.25906805347949       -0.02233355029149
C           -0.02360328078599        1.41729954250716        0.00714107398383
O            0.28007471633460        2.57383269920590        0.06114551153680
N           -1.40179017395722        1.03757176913199       -0.02395714792772
C           -2.38872595964205        2.10894279108099       -0.03284935870726
C           -1.92753584107682       -0.23043355209512       -0.04014171056832
O           -3.11442719929253       -0.44232494362560       -0.06133183519989
N           -1.01859107366264       -1.29692026009467       -0.03339426814116
C           -1.52480838663655       -2.65392653318609       -0.03709619385204
H            4.17040709145386        1.01328302002416        0.21428939328708
H            6.02334555167787        1.10578746415782        0.22266180852759
H            2.69238058720564        2.14422090527789       -0.02425137613187
H            3.48520549026427       -1.55950855274219        0.02496511022202
H           -1.86072702181555        3.05865213706005       -0.00430318514761
H           -2.99799688448635        2.04273237155352       -0.93431051344517
H           -3.04511533039655        2.01643807604539        0.83224491381082
H           -1.22778452533603       -3.17874397306036        0.87189851588120
H           -1.17027770064623       -3.19645250892221       -0.91424428403855
H           -2.61218435964120       -2.59050921586895       -0.07188625616199
H            1.30842164081978       -2.89372054350782       -0.02239996893839
25
 energy: 60.517156345848 xtb: 6.6.1 (8d0f1dd)
C            3.04503963428126        1.16866955819977       -0.17961605334772
N            2.21592129785896        0.16341000061627        0.01444331935050
C            2.50990076818709       -1.15176719888783        0.01775780650196
N            1.34343493249637       -1.89915626277831        0.00529961317256
C            0.30874573313039       -1.03668170425285       -0.01419736955596
C            0.82179629382114        0.25122348410275       -0.00119287209679
C           -0.02315477062064        1.40828971228477        0.01414305783144
O            0.30958049572863        2.57148215938767        0.04863883574538
N           -1.39031782758628        1.03744645056550       -0.02357027271046
C           -2.37371703264399        2.11334999049843       -0.03612584845079
C           -1.92085526950680       -0.22862479936976       -0.04037077504190
O           -3.11170914171441       -0.43306658503259       -0.06066074067281
N           -1.01945059656725       -1.30146410556214       -0.03257003640124
C           -1.52632678627908       -2.65647968999431       -0.03740701291072
H            4.11003603653089        1.02948779638770        0.13840932683975
H            6.02179762859848        1.10232162245579        0.20213102370348
H            2.64279094252968        2.15924512589873        0.04673441920858
H            3.49134828197158       -1.56963976392723        0.02349352936060
H           -1.83758487841409        3.05943534504389       -0.00961631034775
H           -2.98159913326184        2.04985097536510       -0.93836214422542
H           -3.02987418955300        2.02673499629505        0.82929969134551
H           -1.22173909271691       -3.18283691573464        0.86928183016988
H           -1.17255787487219       -3.19674296153056       -0.91732485759111
H           -2.61286190716870       -2.59321276240563       -0.06756587033404
H            1.31357112370700       -2.90224586545355       -0.02401839339558
25
 energy: 59.018423876612 xtb: 6.6.1 (8d0f1dd)
C            3.04960981948629        1.19413145169199       -0.13149397879854
N            2.21278581823959        0.17466865310570        0.04392421637205
C            2.51734791167599       -1.15449188407734        0.03428407129046
N            1.34511471583855       -1.89811101599472        0.00380270733844
C            0.30942190738356       -1.04081381454861       -0.00360917858297
C            0.81539223596375        0.25295520002479        0.03232469640764
C           -0.03506756782458        1.40219911544772        0.02315291318500
O            0.31735949362004        2.56960520614836        0.04690339751093
N           -1.39208734172348        1.03792093097727       -0.02320461825804
C           -2.37518579925612        2.11467007536266       -0.03903007444694
C           -1.92202803068363       -0.22956448284252       -0.04394948424625
O           -3.11504065973591       -0.43114559530281       -0.06951969206836
N           -1.02384525613658       -1.30316402597504       -0.03381152845552
C           -1.52871508211648       -2.65778101493043       -0.04419891703631
H            4.13851263518157        1.03766232588166        0.03318640750608
H            6.01689224433867        1.06929558081107        0.15650120738205
H            2.62867095036023        2.16116477267626        0.09983290807683
H            3.49365146431814       -1.57057449237010        0.03502381871564
H           -1.83544282486994        3.05924096399822       -0.01125564973758
H           -2.98007985672844        2.05199192023099       -0.94306993596895
H           -3.03259618181205        2.02799866438575        0.82523531781074
H           -1.22449360350189       -3.18605560979728        0.86201488714675
H           -1.17098768173632       -3.19575145471934       -0.92456678575866
H           -2.61486215351341       -2.59591032209102       -0.07700632990377
H            1.31788751116878       -2.90111254592118       -0.02443647933339
25
 energy: 58.468943204694 xtb: 6.6.1 (8d0f1dd)
C            3.04686799393556        1.20471508879522       -0.04633708781800
N            2.21838975949996        0.18040687327222        0.03393155446322
C            2.52583476816457       -1.15333103155282        0.02080018332297
N            1.35019691687741       -1.89284614713310       -0.01479772194572
C            0.31612334778809       -1.03803602939630       -0.01294723466408
C            0.82052060069746        0.25705570930990        0.02425959309811
C           -0.04062438294563        1.40247359881080        0.01416051970314
O            0.32147230533413        2.57116393775443        0.03638555554245
N           -1.38933470702550        1.04061931099882       -0.02619183891161
C           -2.37639324536204        2.11445724830408       -0.03825421891978
C           -1.91834502189426       -0.22946508428518       -0.04528950778636
O           -3.11257377240354       -0.43100817085774       -0.06415557712580
N           -1.01961200787732       -1.29984409274667       -0.03671910544907
C           -1.52547484800270       -2.65470964244848       -0.03909314035739
H            4.08408068938525        1.03873502439304        0.00636453434358
H            5.99226596972943        1.02139813353010        0.14047131527863
H            2.65310658547955        2.16175338751843        0.11230569921465
H            3.50053154231073       -1.57165384338232        0.03000308860895
H           -1.83750490454623        3.05951023194369       -0.01210840897221
H           -2.98345888680239        2.05033806668636       -0.94055762599325
H           -3.03102028373768        2.02611458732539        0.82789164941735
H           -1.22013630187010       -3.18176930948426        0.86747425501714
H           -1.17166777834849       -3.19700778880487       -0.91822543840325
H           -2.61174721104804       -2.59345951007673       -0.06934401835184
H            1.32071754059808       -2.89658194630198       -0.02299312716452
25
 energy: 58.322994011572 xtb: 6.6.1 (8d0f1dd)
C            3.03887903774622        1.20859840587186        0.01879375583067
N            2.21943194145941        0.18279033590043        0.02707471339336
C            2.52263345334365       -1.14886568074338        0.00974632674289
N            1.34924443884376       -1.88810221787218       -0.01817636887173
C            0.31622453153584       -1.03486498440035       -0.01101568096978
C            0.82017521127571        0.26009002487049        0.02475750525097
C           -0.04387304731368        1.40408972418640        0.01532013405411
O            0.31425202817669        2.56946143263730        0.03723093447865
N           -1.39236852613519        1.04130703010133       -0.02863881703170
C           -2.37984848037705        2.11357189769763       -0.04715328025769
C           -1.91916963594056       -0.23154345965772       -0.04558050355173
O           -3.11200684139000       -0.43402492865999       -0.06820988784494
N           -1.01925587202115       -1.29819819615108       -0.03422827189029
C           -1.52422665873062       -2.65448628003991       -0.03507697491485
H            4.14413674409850        0.99637523336974       -0.05088624638450
H            5.96515433150048        1.01592308480305        0.10787824783694
H            2.65867876340579        2.19098946961027        0.17680895411399
H            3.50003591191447       -1.56753498696458        0.02435592199560
H           -1.84201466885717        3.05878698662963       -0.02134354036661
H           -2.98437310317872        2.04587988803167       -0.95091501452081
H           -3.03691623522736        2.02602334008133        0.81713170888027
H           -1.22216726667980       -3.18026277933876        0.87299306519651
H           -1.16946004510337       -3.19881453685772       -0.91231283474026
H           -2.61102403853457       -2.59460638537787       -0.06798049577156
H            1.32007269412499       -2.89355381555559       -0.01353945451018
25