25
 energy: -42.131952227986 gnorm: 0.001730962479 xtb: 6.6.1 (8d0f1dd)
C            3.18745967380397        1.18413864179408        0.04112997844014
N            2.19904940109156        0.14385719123372        0.01471964070788
C            2.41587311174179       -1.19269300564100        0.01437082817478
N            1.30576738918808       -1.89449492753556        0.00883982537031
C            0.30418968640421       -0.98966749289439        0.00690929894911
C            0.84766979567078        0.30601165231852        0.00949643813396
C            0.01406277888636        1.48352270794737       -0.00486861991422
O            0.40719823049310        2.62870973921695       -0.01326095550007
N           -1.33926020960496        1.15202444212908       -0.01203861371104
C           -2.29602911286717        2.24436368650455       -0.02314020478483
C           -1.89897968261975       -0.12099192065904       -0.00258122076144
O           -3.09161027224194       -0.27857253296701       -0.00334439325759
N           -1.02290397761919       -1.21152743280996        0.00646672569945
C           -1.55645149169099       -2.55156499970476        0.02944370534983
H            3.72352829286903        1.17158569786834        0.99256938930456
H            3.90869679475499        1.03943874906526       -0.76424061576219
H            2.69407116315279        2.14864669707119       -0.07663048972908
H            3.39549333150555       -1.62924994247946        0.01758348976907
H           -1.74488226339002        3.18289073933488       -0.02204738167891
H           -2.92873965606311        2.17755831899457       -0.90991767132124
H           -2.94256393560945        2.18276367622048        0.85389768083937
H           -1.17724471962846       -3.08209425738262        0.90433001044140
H           -1.24170579694214       -3.09361824789072       -0.86284628317007
H           -2.64349945218264       -2.49028334940169        0.06464603864454
H            2.64124243499752       -4.69251528873276       -0.23831498233377
