25
 energy: 0.000000000000 xtb: 6.6.1 (8d0f1dd)
C            3.23720163006194        1.16630919979326        0.08434469647475
N            2.29877817382611        0.07527477071623        0.03981603040599
C            2.58028210190900       -1.21425402444508        0.03006176031096
N            1.43813958087363       -1.93419271955128        0.00098261760884
C            0.39035688448383       -1.05887472636071       -0.00790371836672
C            0.93510056364412        0.21347819449412        0.01709077491437
C            0.09450143893243        1.40504303904423       -0.00410947031874
O            0.49712751527797        2.54126714362870       -0.00342325688240
N           -1.25076640035757        1.06271879480407       -0.03085478223738
C           -2.21907211982101        2.15522099834493       -0.05001256985998
C           -1.81739487048744       -0.20012725993278       -0.04692818574614
O           -2.99983886758376       -0.37846417018721       -0.07008878229737
N           -0.92618586207120       -1.30210215599479       -0.03682761578324
C           -1.46982264913417       -2.64643102187190       -0.06029820460571
H            3.71247264356769        1.21471455160235        1.06488849150277
H            4.00791497605742        1.03430808813993       -0.67357694370751
H            2.69910007168542        2.09770118228144       -0.09130154882931
H            3.56654120610678       -1.63682992603973        0.04233140067262
H           -1.67107961066214        3.09322851271934       -0.02552706933167
H           -2.82428953597071        2.09428624779827       -0.95318082946668
H           -2.87644029173232        2.07745725625962        0.81450067533302
H           -1.17061996399332       -3.19584890659852        0.83242232437030
H           -1.14560257411436       -3.17511610292205       -0.95688275822323
H           -2.55549792440841       -2.55659984320617       -0.07459039797972
H            1.38130855184625       -2.94313852034425       -0.01389874181052
25
 energy: -5.401548656970 xtb: 6.6.1 (8d0f1dd)
C            3.24291692460078        1.17926299849962        0.08465070459082
N            2.30897693471000        0.09574566464821        0.03630960778760
C            2.60344840245104       -1.23234492859926        0.02965771646436
N            1.42949702713069       -1.94066019024068        0.00053454886360
C            0.39725359944832       -1.05723065124939       -0.00875302446566
C            0.93075258452443        0.22145320959875        0.01395459315035
C            0.10166778281456        1.39468059811531       -0.00493867259994
O            0.49888113978112        2.56028020908765       -0.00341463174182
N           -1.26062811369526        1.05023154528539       -0.03025598002686
C           -2.22069925493332        2.14686287816583       -0.04795506324561
C           -1.82386191224782       -0.20100376589637       -0.04703561185447
O           -3.02059851021860       -0.38317530164738       -0.06994411102916
N           -0.93411044221282       -1.30136823741642       -0.03725549526043
C           -1.47398091405295       -2.64262312538618       -0.06079484670905
H            3.70872815418676        1.23504678657492        1.07172469932721
H            4.02412929480047        1.03232585386273       -0.66565845561649
H            2.69753808377136        2.10276553550611       -0.10321661089818
H            3.58321526528919       -1.65762672069028        0.04125238098078
H           -1.65911816436381        3.07813054445994       -0.02297068548325
H           -2.82652380082579        2.09449213956634       -0.95216931381275
H           -2.87833450914603        2.07672953424447        0.81790029395805
H           -1.17163552323555       -3.19451988059335        0.83120108552676
H           -1.14645219359753       -3.17342705696758       -0.95681158080270
H           -2.55930398778242       -2.55046618316487       -0.07522788989254
H            1.36045680073939       -2.94453285359150       -0.01374976106333
25
 energy: -6.449195119220 xtb: 6.6.1 (8d0f1dd)
C            3.24813354554754        1.18805882453975        0.08411601492647
N            2.31625056745129        0.10751405637084        0.02956797070132
C            2.61791956223250       -1.24520068625523        0.02942176384373
N            1.42081187846098       -1.94029770298207        0.00013602914703
C            0.40235696067507       -1.05519707589093       -0.01080264055495
C            0.92778455329941        0.22740504868968        0.00826004135691
C            0.10797827869594        1.38094755726666       -0.00684111467264
O            0.48835771598217        2.56133559191766       -0.00423921826159
N           -1.27064262890983        1.03876953322015       -0.02910778803362
C           -2.22092614941581        2.14000159461447       -0.04345173570566
C           -1.82559055238495       -0.20301868406843       -0.04675775986487
O           -3.02652896602569       -0.39106899296762       -0.06883327976540
N           -0.93903257932323       -1.29925954796103       -0.03814556686460
C           -1.47751148809645       -2.63784023906635       -0.06198278845484
H            3.69422693547901        1.26957931887051        1.08135870152133
H            4.05201319935150        1.02790014146402       -0.64423193640752
H            2.70249308981209        2.10615087722978       -0.13139395488856
H            3.59254933613717       -1.67419508346271        0.03919394518772
H           -1.64267484829319        3.06184333071493       -0.01736515220533
H           -2.82870767729684        2.09698916552260       -0.94747673078195
H           -2.87874072049848        2.07661184047472        0.82337866145442
H           -1.17572466420355       -3.19313037885014        0.82924280421964
H           -1.15024620353932       -3.17133614215973       -0.95766750360358
H           -2.56271744499984       -2.54148783278083       -0.07657004361222
H            1.34038296779872       -2.94204591227870       -0.01277482253392
25
 energy: -6.389513616721 xtb: 6.6.1 (8d0f1dd)
C            3.25048414749696        1.19219605838800        0.08278615059756
N            2.32059684343432        0.10991435680518        0.02188792229923
C            2.62314423829822       -1.25173954713982        0.02969694064957
N            1.41807055789727       -1.93934886173935       -0.00003326925490
C            0.40521552999340       -1.05550466524940       -0.01364258204020
C            0.92817467010413        0.22931578114490        0.00170014103638
C            0.11111708401682        1.37527891377817       -0.00951280610585
O            0.47662433476093        2.56016079025990       -0.00642143431440
N           -1.27659908032051        1.03353660141089       -0.02780004900643
C           -2.22040577156104        2.13739309231779       -0.03719741848380
C           -1.82554082196171       -0.20601747598770       -0.04629291774392
O           -3.02642354757655       -0.39960534697633       -0.06703143068849
N           -0.93918587748875       -1.29887812383664       -0.03952533940838
C           -1.47958455695863       -2.63559623545318       -0.06376331576368
H            3.66590863927799        1.30617720311906        1.09326135057030
H            4.08223775429903        1.01712390384490       -0.61410492165474
H            2.71123526191159        2.10624644485464       -0.17250727381539
H            3.59572447777517       -1.68389885907458        0.03633162897110
H           -1.63101117171026        3.05216690174770       -0.00961635633654
H           -2.83040653097394        2.10140686681239       -0.94013346342615
H           -2.87703875427180        2.07664908442988        0.83076955241277
H           -1.18094310459296       -3.19292901502982        0.82734548083923
H           -1.15510513826754       -3.17035019946356       -0.95981774330371
H           -2.56471291107889       -2.53375741724353       -0.07844574948668
H            1.33063839543299       -2.94091164954749       -0.01089920039556
25
 energy: -4.770550174032 xtb: 6.6.1 (8d0f1dd)
C            3.25423851177519        1.20200108610738        0.07784041451908
N            2.33259203105913        0.11199290927607       -0.00390571424535
C            2.63464275750726       -1.26661557117510        0.03126043691884
N            1.41551383503214       -1.93728352903585       -0.00003734590044
C            0.41263066981403       -1.05794856778156       -0.02338161187656
C            0.93187430335113        0.23227448427912       -0.01978561900737
C            0.11977345623762        1.36454412032508       -0.01898300071001
O            0.44496710433060        2.55750882462963       -0.01579278214906
N           -1.29033474413290        1.02179078052472       -0.02347179871312
C           -2.21820167155906        2.13224750725120       -0.01493346165988
C           -1.82473883149816       -0.21504104037418       -0.04455627526604
O           -3.02423186783515       -0.42350252577132       -0.06038847771042
N           -0.93656599061307       -1.29945276456343       -0.04454620279434
C           -1.48525029460490       -2.63125754278679       -0.07028449896194
H            3.55497510651288        1.42502151625478        1.13343625300530
H            4.18005023832493        0.97081485589051       -0.50533523744847
H            2.74272324470900        2.10067788737528       -0.32021770904971
H            3.60301890091664       -1.70708280225748        0.02435654664087
H           -1.60224751803726        3.02948776228151        0.01788775142907
H           -2.83590572251189        2.11724989984830       -0.91358107791135
H           -2.86961229402935        2.07575478495462        0.85724108160207
H           -1.19759344729767       -3.19409459985947        0.82081608002095
H           -1.17025024258742       -3.16898871890650       -0.96775029722430
H           -2.57004490314509       -2.51222477243568       -0.08536880095559
H            1.31019203621764       -2.93884538187881       -0.00348475640490
25
 energy: -3.236136077205 xtb: 6.6.1 (8d0f1dd)
C            3.25303862858344        1.20660090227623        0.07459500590884
N            2.33926931761712        0.11029020233652       -0.02111529628235
C            2.63963926913322       -1.27202939970052        0.03327238155953
N            1.41829818872367       -1.93670805658747        0.00223697763092
C            0.41639537964331       -1.06038252041969       -0.02960534998058
C            0.93572843526639        0.23204029909401       -0.03323992550263
C            0.12506950140784        1.36205403939225       -0.02656051873995
O            0.42957066078504        2.55590847321702       -0.02589282300794
N           -1.29581518992684        1.01696663053157       -0.02158769222125
C           -2.21643947213824        2.13060176836412        0.00112201337526
C           -1.82396825569662       -0.22043054805496       -0.04398933691193
O           -3.02185866664462       -0.43641816306993       -0.05642646888851
N           -0.93293425500015       -1.30125362549217       -0.04847290403571
C           -1.48880020720785       -2.63038693882469       -0.07540124236182
H            3.47004540380449        1.50199070776211        1.14895296168883
H            4.23493782006121        0.93858180812913       -0.42126609331883
H            2.77437782370228        2.08997094034455       -0.41979902654648
H            3.60688759411291       -1.71651146858830        0.01264622568089
H           -1.58951036058515        3.01975543248796        0.03815618904749
H           -2.83957951284584        2.12939366683033       -0.89400056900430
H           -2.86312258962799        2.07334529479280        0.87665172681335
H           -1.21016171252908       -3.19601737472882        0.81641183198966
H           -1.17972136356656       -3.17005833317902       -0.97330465666677
H           -2.57314342333451       -2.49984746773993       -0.09189852093525
H            1.30401165419889       -2.93842766700105        0.00554900685690
25
 energy: -3.064608997805 xtb: 6.6.1 (8d0f1dd)
C            3.24441547378452        1.20801336010175        0.07128295191918
N            2.34517628374650        0.10062470888877       -0.04189932411986
C            2.63921053906291       -1.26876975125605        0.03802910579543
N            1.43127409453519       -1.93670912035941        0.01010283245244
C            0.41832167356948       -1.06499551068933       -0.03560228340810
C            0.94398342147694        0.22714555719182       -0.04567964784045
C            0.13109883568897        1.36917896987397       -0.03724842688920
O            0.42033568908179        2.55378244388928       -0.04575729757763
N           -1.29505433928088        1.01735831023876       -0.02129991813101
C           -2.21342880657797        2.13223479192533        0.02161222884443
C           -1.82237809001942       -0.22610200473336       -0.04419848128804
O           -3.01604956963200       -0.44690637217446       -0.05330045615954
N           -0.92393744054971       -1.30632301026526       -0.05365510672166
C           -1.49249931427709       -2.63346022617568       -0.08278520909973
H            3.34992596926544        1.58662357121445        1.13873620191654
H            4.27281418152593        0.90267178648585       -0.29838226417995
H            2.83617814007536        2.06117085643323       -0.53306899002986
H            3.60855547114035       -1.71579849159117       -0.01122372072453
H           -1.58627810214866        3.01838653520227        0.06506975043308
H           -2.84301570038566        2.14705787658270       -0.86818917262562
H           -2.85267413745516        2.06718703804437        0.90168113612559
H           -1.22918246033988       -3.20041505086561        0.81160499578450
H           -1.18982293328659       -3.17524776527140       -0.98006155924360
H           -2.57584921658603       -2.48847046952327       -0.10376759974621
H            1.31109500552203       -2.93920943099550        0.02503415066120
25
 energy: -4.451188043925 xtb: 6.6.1 (8d0f1dd)
C            3.23197282474627        1.20466608379130        0.07010051349672
N            2.34581770659890        0.08912610269592       -0.05609688222159
C            2.63194022384185       -1.24984631066609        0.05011641792162
N            1.44976486283169       -1.93668240341474        0.02191960323279
C            0.41534143796105       -1.06788248915255       -0.03677126361065
C            0.95173136102393        0.21991888535639       -0.05013221081917
C            0.13583382143879        1.38294401697762       -0.05086035043085
O            0.43470696956657        2.55656754431545       -0.07302286019747
N           -1.28010374228160        1.02163486766276       -0.02483410182114
C           -2.20807192474707        2.13433182749192        0.03776458459824
C           -1.82064461631332       -0.22670183206071       -0.04569173004911
O           -3.01146697695854       -0.43973373173772       -0.05169687671002
N           -0.91530050649774       -1.31341046939677       -0.05697144445223
C           -1.49513871149823       -2.64067732000711       -0.08944400279738
H            3.23929042301832        1.62689855319995        1.08825831360959
H            4.25445737042822        0.88340356570984       -0.18413412040547
H            2.90916620921271        2.01125919052634       -0.59815557547297
H            3.60550355751137       -1.69438830762972       -0.04122025574004
H           -1.60012783164973        3.03151418974729        0.08805393134890
H           -2.84304972638198        2.16001844888207       -0.84694867251990
H           -2.84049443899114        2.05380054923567        0.92171050243079
H           -1.24525752469592       -3.20609071101447        0.80839239837965
H           -1.19097491743300       -3.18334733034153       -0.98397089809470
H           -2.57683617891315       -2.48906976377262       -0.11861657617399
H            1.33415499611815       -2.93922455422647        0.04928545264576
25
 energy: -0.417336659722 xtb: 6.6.1 (8d0f1dd)
C            3.22289278885522        1.20916918313636        0.06424915169756
N            2.35139100525778        0.08664058453533       -0.09016712912848
C            2.63624923100734       -1.23957335295187        0.07098269576242
N            1.46193339606004       -1.93694499641127        0.03302148210489
C            0.41699049643768       -1.07051950468464       -0.04451842159383
C            0.95649458559360        0.21674784004640       -0.07330478088120
C            0.14639506395109        1.38453039267072       -0.07550617723919
O            0.44326192356794        2.56127791493405       -0.11199641177979
N           -1.27001346145416        1.01621163238041       -0.02542545106218
C           -2.20031451558448        2.13026929352415        0.07255941908213
C           -1.81815881341436       -0.22844951921641       -0.04551571132772
O           -3.00964419263089       -0.43695437732315       -0.04233522525761
N           -0.91052459918492       -1.32049814130377       -0.06343688556985
C           -1.50225003837578       -2.64470226585544       -0.10144770683478
H            3.02936015030715        1.75241346389806        1.06431307359985
H            4.30825031666070        0.82215540770381        0.02185822559359
H            3.01154200921301        1.94918403114634       -0.78139934065961
H            3.60928393276551       -1.68299579488014       -0.08336762796009
H           -1.59925108332949        3.03271934831210        0.13479548189084
H           -2.84714743194730        2.17971117031992       -0.80375451920952
H           -2.82133918672579        2.03141189955432        0.96387479074791
H           -1.26892791427474       -3.21322487308348        0.79888382586581
H           -1.19593421808678       -3.19021479069359       -0.99304206949776
H           -2.58184977832765       -2.48144370386674       -0.14100470564090
H            1.34352500159576       -2.93789223971940        0.07871791344493
25
 energy: -3.582059379030 xtb: 6.6.1 (8d0f1dd)
C            3.22143718656268        1.21293149376848        0.06318147179699
N            2.34677021227825        0.09583706511519       -0.09873138140812
C            2.64156314980067       -1.23618237678168        0.09193740120488
N            1.45631142583389       -1.93983823990608        0.03673949058290
C            0.41734170192189       -1.06905343989097       -0.04376230270095
C            0.94946214404074        0.21813187769303       -0.08229032091387
C            0.14468623452603        1.37694992354329       -0.08916005111899
O            0.46599932061609        2.56420132674559       -0.13334010337635
N           -1.26067058151083        1.01456007729967       -0.02672043834012
C           -2.19558037305811        2.12630780388996        0.07945306046581
C           -1.81554555744737       -0.22132081090694       -0.04570956078799
O           -3.01243230095622       -0.41956657603064       -0.03801959594146
N           -0.91733242750068       -1.32104428310178       -0.06293767580411
C           -1.50443198932870       -2.64412023850353       -0.10446582574923
H            2.99295107880247        1.75649654817569        1.02945245781308
H            4.28653712916663        0.83002931812337        0.06000063186371
H            3.03900235893966        1.92336798236366       -0.78142536310521
H            3.60947515950221       -1.67356746546123       -0.09231105217967
H           -1.60054566336901        3.03665576001464        0.14670084248540
H           -2.84496208592967        2.17488109691945       -0.79507685689005
H           -2.81376105093925        2.01460787182808        0.97157734511911
H           -1.27052435966049       -3.21401878113706        0.79600638528548
H           -1.18521352375735       -3.19084130366335       -0.99281350221807
H           -2.58344738391066       -2.48770743655763       -0.15170902712320
H            1.34512486331359       -2.93866859136717        0.09045786718751
25
 energy: -4.699035928783 xtb: 6.6.1 (8d0f1dd)
C            3.21053527286323        1.22157535410240        0.06758966995971
N            2.33865922408055        0.10157993507535       -0.11419746473036
C            2.64921370341281       -1.23294663886740        0.13894241005776
N            1.45054088358345       -1.94468163460972        0.04844026145344
C            0.42032164667320       -1.07170987171343       -0.04711694507826
C            0.94190035439899        0.21359505209672       -0.10608874605814
C            0.13930727670328        1.36589888347224       -0.12336967715991
O            0.49792995631704        2.55303197547689       -0.17588106062589
N           -1.24716794922147        1.01773579213995       -0.03035131480887
C           -2.18655408743267        2.12367971764920        0.10203634618011
C           -1.80705847479297       -0.21227967106101       -0.04781955545446
O           -3.00849572138745       -0.39909173141453       -0.03051715484929
N           -0.92193789820434       -1.32231611826052       -0.06662878578782
C           -1.50819917063619       -2.64184441254778       -0.11456775788645
H            2.88555766196606        1.81575326775582        0.94739420855818
H            4.24488052192692        0.83496979212145        0.19239714877387
H            3.13067629710532        1.86644096274092       -0.83565758685571
H            3.60683754685525       -1.66108925899140       -0.13091666844131
H           -1.59690945000626        3.03934932584577        0.18085568725897
H           -2.84301338940199        2.17681187062694       -0.76622067300589
H           -2.79499404325878        1.98273454698889        0.99712129352847
H           -1.28502560784410       -3.21398417454537        0.78914738927170
H           -1.16856222138604       -3.19257241462424       -0.99530321832797
H           -2.58655872587028       -2.48969869288144       -0.18021058522175
H            1.35033106149292       -2.94191325440367        0.12795667539737
25
 energy: -4.199347995410 xtb: 6.6.1 (8d0f1dd)
C            3.19733705184040        1.22818054143400        0.06583691469332
N            2.33346860960388        0.09865046414029       -0.13010034957991
C            2.65562791370594       -1.23395982278819        0.18103886973185
N            1.44707361171405       -1.94970653233984        0.06234873364685
C            0.42473823334163       -1.07846989239127       -0.05471878056855
C            0.94127383607793        0.20365217707540       -0.13541200615400
C            0.13264035195890        1.35760984055746       -0.16048659332179
O            0.51258359994335        2.53578652863632       -0.21917351162515
N           -1.23837945124589        1.02347788680725       -0.03558573200417
C           -2.17716573953281        2.12464817299097        0.12676544613091
C           -1.79768135619022       -0.20941420638500       -0.05049596650456
O           -2.99992995530839       -0.39073474246200       -0.02312586672650
N           -0.92075697117232       -1.32208870638944       -0.07299950614612
C           -1.51010420598196       -2.63831886343977       -0.12531763789302
H            2.76452172134136        1.89791064264718        0.85225580179488
H            4.21311488089449        0.84597139428489        0.34436304897875
H            3.23371788604768        1.80229722557877       -0.88072145820488
H            3.59530379083037       -1.65491374425802       -0.18173948970303
H           -1.58777982035950        3.03800842450226        0.21737147635964
H           -2.84336740718787        2.18819321115761       -0.73318991128677
H           -2.77423527961889        1.95755116684458        1.02469888526270
H           -1.30472820555466       -3.20909607260604        0.78443033449748
H           -1.15265402325644       -3.19354259848467       -0.99672152289835
H           -2.58772886055786       -2.48657414789926       -0.21170934526945
H            1.35532445660334       -2.94608974504142        0.17942206293738
25
 energy: -4.340548140885 xtb: 6.6.1 (8d0f1dd)
C            3.18293939299594        1.23397093158322        0.07688576194786
N            2.32497088556539        0.09106964451535       -0.11865663662361
C            2.66109260641988       -1.24164742508507        0.21805627267917
N            1.43774398276016       -1.95429314773361        0.07498243688476
C            0.43038579116334       -1.08807914833229       -0.06425019872144
C            0.94337386746727        0.18900675681425       -0.16306954382417
C            0.11655086520611        1.34773274492497       -0.19653432705056
O            0.51037150937895        2.50545514999258       -0.25408710326777
N           -1.23693901569777        1.03502386446921       -0.04346689106093
C           -2.16913979441044        2.13013734625972        0.14287659434627
C           -1.78674180418109       -0.21148661383053       -0.05465790436697
O           -2.98702967102523       -0.39239451664190       -0.01899990610784
N           -0.91728195674582       -1.31556484325736       -0.08170742796248
C           -1.50577895558134       -2.63070379453827       -0.13563323462742
H            2.72606633487610        1.94931365568587        0.72907084600257
H            4.12662571206383        0.89156642777401        0.45128215018321
H            3.33634471612223        1.74792873235902       -0.86390362204039
H            3.56496497788454       -1.65526976017046       -0.23036360517622
H           -1.57264206348615        3.03151677757483        0.24339389425606
H           -2.84388851102235        2.20167190107841       -0.70899614250274
H           -2.75666058282185        1.94200322776512        1.03990698661061
H           -1.32090598939599       -3.19429769173973        0.78313307028627
H           -1.12702707226461       -3.19041586139967       -0.99416177226590
H           -2.58321043887835       -2.48406677994190       -0.24625878934740
H            1.35802988154376       -2.94914897595370        0.24219298789658
25
 energy: -2.466507629848 xtb: 6.6.1 (8d0f1dd)
C            3.17213958193641        1.23520786082590        0.08194734463569
N            2.32449738647503        0.08642429553690       -0.12376869828071
C            2.66439947348459       -1.23869079017740        0.23410425144937
N            1.44000664190856       -1.95658201292822        0.08816627845832
C            0.43127640907606       -1.09297430496557       -0.07296891939169
C            0.94833046761030        0.18142992680936       -0.18677528567391
C            0.11612716630795        1.34518493064118       -0.22196288304054
O            0.50654139180660        2.49906933208910       -0.29853498153871
N           -1.23264145962774        1.03444087638467       -0.04765718394641
C           -2.16077769419912        2.12963124448336        0.16657829361355
C           -1.78412868967185       -0.21724885761485       -0.05483102190203
O           -2.98436025299697       -0.39418234506312       -0.00993360791167
N           -0.91435713246857       -1.31488732945318       -0.09017165300273
C           -1.50491353719432       -2.63074655104278       -0.14740618240988
H            2.61160802289510        2.02921682445666        0.63858839957877
H            4.09680049178231        0.89499668728937        0.61478375374519
H            3.45590833558804        1.68132559201172       -0.93568955094899
H            3.54051686964712       -1.65004695615707       -0.27281042938835
H           -1.56401966374098        3.02880389936400        0.27895055180986
H           -2.84589562465368        2.22196316349918       -0.67675178108968
H           -2.73952619484559        1.92653883794665        1.06612852050682
H           -1.33827302979600       -3.18747363761500        0.77847335758305
H           -1.11081700753448       -3.19282228174399       -0.99625590331753
H           -2.58012325298604       -2.48367154842667       -0.27718241019059
H            1.36389596913381       -2.94587825397815        0.29201363680038
25
 energy: -4.333056332882 xtb: 6.6.1 (8d0f1dd)
C            3.17838635293736        1.23086924894147        0.07432790044838
N            2.32853557548962        0.08749634970160       -0.12377928638514
C            2.66177278365391       -1.23789922825316        0.20717901387121
N            1.44250212633991       -1.95538479825435        0.09252547584848
C            0.42789696269575       -1.09005020159600       -0.07029623311659
C            0.95057726537251        0.18524888376451       -0.18381553909261
C            0.12260104870922        1.34855370620703       -0.21754259071369
O            0.50042897540244        2.50960814537657       -0.30970341067748
N           -1.23513262790196        1.02914679812602       -0.04928215604289
C           -2.16073400684828        2.12879005086174        0.16254231091872
C           -1.79003777731767       -0.22067576888378       -0.05337379940991
O           -2.99079739795374       -0.39716435336546       -0.00704781975110
N           -0.91567046394022       -1.31471015400547       -0.08983421639100
C           -1.50297992969914       -2.63376680669881       -0.14540503759388
H            2.62740814905522        2.00969009090273        0.65163413469211
H            4.11418453623356        0.90488758241911        0.58987238225361
H            3.42418550843548        1.67849774153895       -0.89600664969963
H            3.53592953504141       -1.65448205154262       -0.26741520736563
H           -1.56261370243329        3.02908755330587        0.27435922963443
H           -2.84518390479823        2.22709732938112       -0.68120193250609
H           -2.74147675123000        1.93384545898648        1.06296591665348
H           -1.33602881882692       -3.18545002301954        0.78230571581595
H           -1.10631667721625       -3.19560838967774       -0.99238174817530
H           -2.57722656811121       -2.48814746785485       -0.27706853126243
H            1.36200447484704       -2.94045109418931        0.29347597419451
25