72
 energy: -99.335278218340 gnorm: 0.012021062642 xtb: 6.6.1 (8d0f1dd)
N           -1.86894745694737        2.82352905836723        2.23211364885522
C           -1.81594504353800        2.11889809587762        1.20170953788340
C           -2.95642461088946        1.91093470613968        0.24491566052816
C           -3.42085013059537        0.46368230453272        0.31661507037757
C           -4.34821052091521       -0.01052985229423       -0.61354593022728
C           -4.82162766145253       -1.31045524888801       -0.56643831792225
O           -5.72728399292193       -1.84041483408208       -1.41675238696721
C           -6.34589073966234       -1.00598106365502       -2.36723319198861
C           -4.34545374999520       -2.19219308538514        0.43986408211708
O           -4.85656287864136       -3.44094641405651        0.40729847117322
C           -4.50483621712446       -4.34985511070254        1.42358082747958
C           -3.42326440747252       -1.71709642807732        1.35769068067946
C           -2.97063025861725       -0.40446031047870        1.29797972133489
C           -2.39081743726273        2.21334911753704       -1.16782998395194
C           -1.44730828295919        1.13047474133090       -1.72140380528508
C           -0.11823476335127        1.11870890820259       -1.07036651467250
N            0.55285846064203        0.02694506632501       -0.70708292697453
C            1.92172201919797        0.12766943409807       -0.26061429515959
C            2.92267936098368       -0.24014409177050       -1.37204738465059
C            4.32821490683777       -0.03204317988010       -0.87267973898609
C            4.97650207544087        1.13027288722119       -1.10233518464930
C            6.32941198348494        1.40521752986849       -0.55348005670969
C            6.94392573054949        0.21879939166326        0.10203229895923
O            8.24528380850186        0.24708277276427        0.32349093848997
C            8.96733281193507        1.31568073889370        0.14192406280291
C            6.22543724005020       -0.97243399013262        0.34377636379165
O            6.91177601259457       -1.92813499282690        1.00671999949603
C            6.30396219961326       -3.18536203781376        1.21266522761786
C            4.92674298635065       -1.07812834647777       -0.11446972714182
C           -0.02786410592421       -1.29099269850355       -0.79589028011261
C           -4.17916042186983        2.83113968645372        0.53416767184156
C           -4.82598664487777        2.49549229447925        1.87603005086936
C           -3.83787629567610        4.31790994048372        0.48453366505291
H           -4.71688328942547        0.65416800918596       -1.37680328713879
H           -6.85786290915082       -0.16516935308166       -1.88942851635732
H           -7.07795411119663       -1.63232839353481       -2.87313065856350
H           -5.62680770220683       -0.62838171520732       -3.10172189123131
H           -4.77866159005359       -3.97114204371759        2.41284102858478
H           -5.07152331695692       -5.25503891007503        1.21445261548689
H           -3.43474364261906       -4.58072258376729        1.40400097008870
H           -3.05718697779122       -2.35840602729864        2.14306978755593
H           -2.27870466975847       -0.06249674289386        2.05212415653483
H           -3.22402144618603        2.32196807571436       -1.86125265429183
H           -1.86066180565592        3.16602733379890       -1.13845396153093
H           -1.93299097012991        0.15802794829073       -1.66114921564492
H           -1.29261374852573        1.36003255428174       -2.78412896390373
H           -0.89936093834901        1.60122537825472        0.85617514769160
H            0.42121561053740        2.05277371819317       -1.02040498503747
H            2.06890497655179       -0.53445851931682        0.59694577154244
H            2.11985618649114        1.15190385447547        0.06251463831626
H            2.73602540908683        0.39507504304579       -2.23881298538327
H            2.77837766235344       -1.27978184400103       -1.66789609602790
H            4.51687625860824        1.92123938891096       -1.67405692174148
H            6.26163400147789        2.25758949020481        0.14409228049570
H            8.56774324426799        2.29907494440525       -0.00828391760712
H            7.07257247963317        1.71622442229992       -1.31649535692941
H           10.01895607299565        1.15665429237487        0.12031179670141
H            7.05729264128750       -3.79622610996974        1.70509692922969
H            5.42528598309148       -3.10211579695886        1.86041129135888
H            6.02096883671279       -3.65072524582748        0.26384859154002
H            4.36195934222515       -1.97977130197350        0.04896217704948
H           -0.19231805713225       -1.58148747778800       -1.83579639359740
H           -0.98412939435019       -1.32370279714246       -0.26744941176339
H            0.64513349729137       -2.01104655314577       -0.33773755566150
H           -4.91389555100698        2.62749264567248       -0.25311834112139
H           -4.13426351770580        2.70583679826140        2.68513054850664
H           -5.11564728495152        1.44851283457762        1.92180893141833
H           -5.71643222463744        3.10336289909857        2.01325793856281
H           -3.09042826446304        4.55846349316402        1.23403952189081
H           -3.47523961525427        4.61916712104187       -0.49472109811057
H           -4.73285093533291        4.89579965482752        0.69976853377778
H           -1.02377861826620        2.90990604890273        2.78831614395898
72
 energy: -99.337308850773 gnorm: 0.008609632174 xtb: 6.6.1 (8d0f1dd)
N           -1.86914154766733        2.82423126326447        2.23181663688795
C           -1.81604399228020        2.11921964595153        1.20166591996425
C           -2.95661632403695        1.91110602532420        0.24490574690855
C           -3.42092990141204        0.46379657515694        0.31638106024710
C           -4.34812019668981       -0.01058160636141       -0.61386651642872
C           -4.82134414578499       -1.31058870605073       -0.56673510386318
O           -5.72687211673858       -1.84085125418999       -1.41695068293055
C           -6.34525543085558       -1.00705431239479       -2.36812624234212
C           -4.34516198516706       -2.19222322919053        0.43965886615874
O           -4.85596065832427       -3.44110600764550        0.40707478862285
C           -4.50433789207293       -4.34971399167747        1.42366623309347
C           -3.42320239746851       -1.71694827985995        1.35761132410298
C           -2.97074973843370       -0.40426304274689        1.29786192313626
C           -2.39126846812159        2.21397989921383       -1.16781792799405
C           -1.44812107508901        1.13107812641118       -1.72179671846435
C           -0.11965919065657        1.11848193816942       -1.06989793924961
N            0.54948093508426        0.02618365422864       -0.70485066373051
C            1.91782182023566        0.12550430978655       -0.25789520934518
C            2.91634799732410       -0.24411340568270       -1.37010978698258
C            4.31964696496424       -0.03327402285243       -0.86896445438176
C            4.95823889567384        1.13331069229906       -1.09543755324612
C            6.31648137706811        1.40884194052394       -0.56665490706478
C            6.95093005238242        0.22333032662321        0.08062361164485
O            8.25271996004069        0.24393367191545        0.31445194045285
C            9.00198109439392        1.29846384315955        0.15048738155530
C            6.22988514144279       -0.96643501900328        0.33366713740042
O            6.91679529353657       -1.92207872492616        0.99677350117694
C            6.30813624556749       -3.17723616150676        1.20976657478200
C            4.92784499674044       -1.07634816979193       -0.11551031264180
C           -0.03079753132505       -1.29167067603105       -0.79527616913307
C           -4.17935103909567        2.83119058452314        0.53435800800532
C           -4.82589726486609        2.49546847277108        1.87632284400601
C           -3.83814798691252        4.31797670838297        0.48455106387321
H           -4.71685795129540        0.65398824574621       -1.37721998644028
H           -6.85773992558473       -0.16615801817247       -1.89102108474656
H           -7.07688144134983       -1.63391941122423       -2.87402895279167
H           -5.62595776918407       -0.62960559102846       -3.10247026922972
H           -4.77857686333546       -3.97082736299745        2.41274471291538
H           -5.07071186333952       -5.25510185625617        1.21457582548775
H           -3.43417736943818       -4.58030884407956        1.40448124419194
H           -3.05716505990806       -2.35814496376647        2.14309302283409
H           -2.27896872273187       -0.06218372403474        2.05207927489232
H           -3.22450618654087        2.32282822213436       -1.86114244221722
H           -1.86093534185522        3.16655245522351       -1.13819281072992
H           -1.93398560951878        0.15870474812749       -1.66202770073819
H           -1.29272866111547        1.36105962015306       -2.78432526465427
H           -0.89961179957870        1.60101811443962        0.85671792518700
H            0.42064133535497        2.05204456807624       -1.01953097126770
H            2.06539972075331       -0.53657871217601        0.59953522017294
H            2.11746709546669        1.14974977410397        0.06447228166882
H            2.73055982797058        0.39250934246052       -2.23617177949034
H            2.77360306001482       -1.28347141382042       -1.66722987344608
H            4.49477882897927        1.92222204252339       -1.66692260049717
H            6.25973921923866        2.26031940450334        0.13263861722486
H            8.62010838882488        2.28968936451353       -0.00899488439407
H            7.00425139210442        1.73572009424757       -1.37182801496871
H           10.06044367446237        1.12777355029753        0.21587702261131
H            7.06124515511562       -3.78748840310234        1.70373573843999
H            5.43072337533081       -3.09204328401191        1.85828725934555
H            6.02306106617310       -3.64735685971902        0.26417781152174
H            4.36673348591529       -1.97969571350596        0.05259696456125
H           -0.19416568780518       -1.58137252272331       -1.83559123848834
H           -0.98728964827044       -1.32490247935403       -0.26737311048178
H            0.64237667877814       -2.01168693094338       -0.33723354099051
H           -4.91418828087977        2.62741380466636       -0.25279535989771
H           -4.13399768986135        2.70569099458627        2.68529712901345
H           -5.11557370824185        1.44849257487821        1.92202100132101
H           -5.71627352180558        3.10336860939505        2.01379927377605
H           -3.09047391820721        4.55860239121539        1.23381421275580
H           -3.47580550446768        4.61918640172880       -0.49482823262035
H           -4.73307951101751        4.89584205931093        0.70001590045337
H           -1.02429656361240        2.91059816328767        2.78847814809489
72
 energy: -99.338461624241 gnorm: 0.015651565256 xtb: 6.6.1 (8d0f1dd)
N           -1.86992554369352        2.82561186170459        2.23145057168851
C           -1.81684681646749        2.11964732542025        1.20190597870980
C           -2.95741836825456        1.91160958640062        0.24496768394251
C           -3.42135703982908        0.46416846089537        0.31608917349527
C           -4.34810416078870       -0.01062508708836       -0.61440010577512
C           -4.82082747058490       -1.31082314827836       -0.56728243734142
O           -5.72600971366044       -1.84172509287444       -1.41747880201387
C           -6.34388827047166       -1.00901344115369       -2.36990841442675
C           -4.34460764527025       -2.19221104651904        0.43927255843399
O           -4.85479683515737       -3.44140349114941        0.40658858370429
C           -4.50338284802336       -4.34944647225641        1.42375164159099
C           -3.42313566073272       -1.71654432121001        1.35747777369757
C           -2.97115553692482       -0.40369100767969        1.29773406586582
C           -2.39268931025089        2.21521426086431       -1.16781311251296
C           -1.45028915643347        1.13223707524569       -1.72266304237067
C           -0.12315095277343        1.11777240228988       -1.06863744272648
N            0.54219922812088        0.02443661546745       -0.69998237690697
C            1.91010664609693        0.12152577606408       -0.25278518092635
C            2.90701953495402       -0.24884902231603       -1.36524182823477
C            4.31054106420145       -0.03443727284401       -0.86796976806920
C            4.94025342679934        1.13748928237473       -1.08853358739616
C            6.30948744233961        1.41739175545412       -0.58438156938827
C            6.96098504553098        0.22872788107028        0.04797290602369
O            8.25608488166386        0.24368615408043        0.32035512250828
C            9.03988252951217        1.27535820218427        0.17643859320482
C            6.23836877456976       -0.96040406674770        0.31003411959553
O            6.92616524443933       -1.91344309408408        0.97663624143826
C            6.31628852443142       -3.16449075523617        1.20409293032716
C            4.93167922450821       -1.07567187394970       -0.12386399464833
C           -0.03762552774526       -1.29320498579635       -0.79381862514532
C           -4.18014313083238        2.83143241350006        0.53480010916261
C           -4.82605293190118        2.49554050683819        1.87699935337854
C           -3.83901250434856        4.31823136291491        0.48468636672670
H           -4.71694670575801        0.65368059411097       -1.37795900880507
H           -6.85734684951902       -0.16799681865968       -1.89405320556923
H           -7.07467185906283       -1.63676427863860       -2.87595535897326
H           -5.62410979528966       -0.63177300016154       -3.10387900992654
H           -4.77843178466191       -3.97026975142944        2.41249649205506
H           -5.06916912013673       -5.25520655550056        1.21468775357553
H           -3.43309166954745       -4.57952902080318        1.40534212909376
H           -3.05709420147156       -2.35753722302287        2.14311742818158
H           -2.27963720949938       -0.06134376851727        2.05206479438134
H           -3.22606208164683        2.32484487029970       -1.86083274150824
H           -1.86179679952438        3.16745768161317       -1.13771608410210
H           -1.93674576989936        0.16010659322588       -1.66423361982812
H           -1.29354431121880        1.36334421483579       -2.78473882660332
H           -0.90061659733695        1.60087885403214        0.85775417307126
H            0.41894194699531        2.05024932483161       -1.01752627526442
H            2.05771208068152       -0.54025122063236        0.60478205911431
H            2.11218052546197        1.14560463895050        0.06855260808087
H            2.72005214206648        0.38753356481444       -2.23124553386063
H            2.76430608817130       -1.28808388184180       -1.66229132348398
H            4.46874601333200        1.92709395911965       -1.65269815038666
H            6.26848914348450        2.26134613365224        0.12477772696372
H            8.67981771041951        2.26395943371738       -0.06648389945043
H            6.94264729911973        1.76389372171523       -1.42357548744736
H           10.09796667744405        1.08751465343778        0.35774429614253
H            7.06986391318364       -3.77157064681494        1.70181948818171
H            5.44113397725971       -3.07292930135425        1.85446776700933
H            6.02768444314373       -3.64409284897701        0.26431314898184
H            4.37407568616280       -1.97924470476045        0.05560077166514
H           -0.19903256326162       -1.58116338578365       -1.83493530318315
H           -0.99474769194794       -1.32771498609875       -0.26728072303206
H            0.63550387033496       -2.01349655279496       -0.33609777461143
H           -4.91520213270912        2.62744339840379       -0.25208916835839
H           -4.13372756777946        2.70553270552911        2.68566034815726
H           -5.11569579884014        1.44855027955589        1.92253816829898
H           -5.71631905158514        3.10345719868900        2.01501558802270
H           -3.09085560056034        4.55889829590104        1.23345402243233
H           -3.47722975912790        4.61932807699158       -0.49493764935848
H           -4.73381182150878        4.89610941743821        0.70062472847569
H           -1.02536132139795        2.91218311383711        2.78848700885555
72
 energy: -99.338934323263 gnorm: 0.009259102664 xtb: 6.6.1 (8d0f1dd)
N           -1.87107415991716        2.82731856943773        2.23088233579404
C           -1.81802888285980        2.12053715049906        1.20187064150855
C           -2.95853089581693        1.91225962223577        0.24482357331684
C           -3.42206349074541        0.46468218506625        0.31578234178990
C           -4.34824622783990       -0.01059555275560       -0.61504785879868
C           -4.82038966375376       -1.31101071343963       -0.56799688447862
O           -5.72500930189487       -1.84256791638835       -1.41842028770162
C           -6.34232476229868       -1.01075375461939       -2.37197685034273
C           -4.34419970557901       -2.19209244585617        0.43881072153339
O           -4.85379829564125       -3.44157400253184        0.40602247149968
C           -4.50266372603022       -4.34909662953345        1.42373510330637
C           -3.42329717594470       -1.71598240767381        1.35732970734427
C           -2.97185900990045       -0.40293187775970        1.29763388066659
C           -2.39399176208476        2.21620851257288       -1.16793254134570
C           -1.45204404018919        1.13309032632368       -1.72329085900414
C           -0.12584028156618        1.11688398637492       -1.06755247206722
N            0.53676657148137        0.02283137827350       -0.69589604115374
C            1.90427515177298        0.11895312605322       -0.24750887757260
C            2.90151855848605       -0.25063939035370       -1.35982278415705
C            4.30633612711452       -0.03364115998311       -0.86680461200211
C            4.93276631431561        1.14050570883775       -1.08461206249064
C            6.31005882403568        1.42187155257466       -0.59621312398923
C            6.96673527068901        0.23261420494293        0.03185233301543
O            8.25542994661737        0.24427880621881        0.33120330803326
C            9.05751308545342        1.26286717763819        0.20916984889409
C            6.24405947870750       -0.95703448277942        0.29498605007181
O            6.93492832937652       -1.90843552906092        0.96092502349066
C            6.32435866031966       -3.15647615342356        1.19950720645183
C            4.93549945343600       -1.07576648438321       -0.13081611604942
C           -0.04339862384186       -1.29448663830401       -0.79235275595189
C           -4.18129478273193        2.83185331626003        0.53484892154545
C           -4.82667596222517        2.49591383367467        1.87727254174488
C           -3.84020062571736        4.31865760821863        0.48441596234994
H           -4.71709851608967        0.65344753917972       -1.37884616884801
H           -6.85667652032594       -0.16965665815851       -1.89722046472852
H           -7.07231439333453       -1.63921842723616       -2.87829949882493
H           -5.62201056405121       -0.63366750150362       -3.10550024963754
H           -4.77851470304523       -3.96965380269412        2.41215738184730
H           -5.06792846547946       -5.25517601414835        1.21465002085832
H           -3.43226021960218       -4.57874009294289        1.40611507806355
H           -3.05724523450028       -2.35675535096393        2.14314205294963
H           -2.28068324275424       -0.06027995856264        2.05213735774701
H           -3.22745627396391        2.32656679700384       -1.86072800053014
H           -1.86263353694412        3.16818372826819       -1.13749969238127
H           -1.93924455203414        0.16124699499418       -1.66642423360600
H           -1.29413249966951        1.36542647477144       -2.78491260704349
H           -0.90203068986765        1.60107211670469        0.85854507698785
H            0.41751742054778        2.04855191138813       -1.01567304348906
H            2.05091704966564       -0.54317933902478        0.60994537603656
H            2.10670203220962        1.14279000468841        0.07436831726782
H            2.71201929078404        0.38413486879810       -2.22653789438524
H            2.75968018016488       -1.29038472294413       -1.65566969655588
H            4.45523613464409        1.93179752388901       -1.64175708637903
H            6.27967900234310        2.26177486166341        0.11806625351902
H            8.71539298831996        2.24527912614321       -0.09203887969163
H            6.92153736682190        1.77371682633017       -1.44522091480669
H           10.10120430480662        1.06152635583733        0.40121974751597
H            7.07894519759527       -3.76055339413683        1.69945106345090
H            5.45160665986347       -3.05870492510498        1.85236445837244
H            6.03175285434935       -3.64299094013945        0.26437763322306
H            4.38080426068605       -1.98005881761607        0.05352324869359
H           -0.20338183218801       -1.58112623021105       -1.83407035826265
H           -1.00133359504427       -1.32953156665902       -0.26732361873943
H            0.62886629750266       -2.01549227602168       -0.33451371353398
H           -4.91653849198245        2.62765053094088       -0.25181247275055
H           -4.13399319386688        2.70580099000125        2.68565060190614
H           -5.11626328175662        1.44890524044412        1.92277671436937
H           -5.71686825823407        3.10382198705822        2.01571727182798
H           -3.09163613679145        4.55935854321245        1.23276316339268
H           -3.47886753450542        4.61961164576583       -0.49541977205395
H           -4.73486060024260        4.89659371311362        0.70072921276768
H           -1.02668750226380        2.91380983401192        2.78820533279850
