      -----------------------------------------------------------      
     |                   =====================                   |     
     |                           x T B                           |     
     |                   =====================                   |     
     |                         S. Grimme                         |     
     |          Mulliken Center for Theoretical Chemistry        |     
     |                    University of Bonn                     |     
      -----------------------------------------------------------      

   * xtb version 6.6.1 (8d0f1dd) compiled by 'conda@1efc2f54142f' on 2023-08-01

   xtb is free software: you can redistribute it and/or modify it under
   the terms of the GNU Lesser General Public License as published by
   the Free Software Foundation, either version 3 of the License, or
   (at your option) any later version.
   
   xtb is distributed in the hope that it will be useful,
   but WITHOUT ANY WARRANTY; without even the implied warranty of
   MERCHANTABILITY or FITNESS FOR A PARTICULAR PURPOSE.  See the
   GNU Lesser General Public License for more details.
   
   Cite this work as:
   * C. Bannwarth, E. Caldeweyher, S. Ehlert, A. Hansen, P. Pracht,
     J. Seibert, S. Spicher, S. Grimme, WIREs Comput. Mol. Sci., 2020, 11,
     e01493. DOI: 10.1002/wcms.1493
   
   for GFN2-xTB:
   * C. Bannwarth, S. Ehlert and S. Grimme., J. Chem. Theory Comput., 2019,
     15, 1652-1671. DOI: 10.1021/acs.jctc.8b01176
   for GFN1-xTB:
   * S. Grimme, C. Bannwarth, P. Shushkov, J. Chem. Theory Comput., 2017,
     13, 1989-2009. DOI: 10.1021/acs.jctc.7b00118
   for GFN0-xTB:
   * P. Pracht, E. Caldeweyher, S. Ehlert, S. Grimme, ChemRxiv, 2019, preprint.
     DOI: 10.26434/chemrxiv.8326202.v1
   for GFN-FF:
   * S. Spicher and S. Grimme, Angew. Chem. Int. Ed., 2020, 59, 15665-15673.
     DOI: 10.1002/anie.202004239
   
   for ALPB and GBSA implicit solvation:
   * S. Ehlert, M. Stahn, S. Spicher, S. Grimme, J. Chem. Theory Comput.,
     2021, 17, 4250-4261. DOI: 10.1021/acs.jctc.1c00471
   
   for DFT-D4:
   * E. Caldeweyher, C. Bannwarth and S. Grimme, J. Chem. Phys., 2017,
     147, 034112. DOI: 10.1063/1.4993215
   * E. Caldeweyher, S. Ehlert, A. Hansen, H. Neugebauer, S. Spicher,
     C. Bannwarth and S. Grimme, J. Chem. Phys., 2019, 150, 154122.
     DOI: 10.1063/1.5090222
   * E. Caldeweyher, J.-M. Mewes, S. Ehlert and S. Grimme, Phys. Chem. Chem. Phys.
     2020, 22, 8499-8512. DOI: 10.1039/D0CP00502A
   
   for sTDA-xTB:
   * S. Grimme and C. Bannwarth, J. Chem. Phys., 2016, 145, 054103.
     DOI: 10.1063/1.4959605
   
   in the mass-spec context:
   * V. Asgeirsson, C. Bauer and S. Grimme, Chem. Sci., 2017, 8, 4879.
     DOI: 10.1039/c7sc00601b
   * J. Koopman and S. Grimme, ACS Omega 2019, 4, 12, 15120-15133.
     DOI: 10.1021/acsomega.9b02011
   
   for metadynamics refer to:
   * S. Grimme, J. Chem. Theory Comput., 2019, 155, 2847-2862
     DOI: 10.1021/acs.jctc.9b00143
   
   for SPH calculations refer to:
   * S. Spicher and S. Grimme, J. Chem. Theory Comput., 2021, 17, 1701-1714
     DOI: 10.1021/acs.jctc.0c01306
   
   with help from (in alphabetical order)
   P. Atkinson, C. Bannwarth, F. Bohle, G. Brandenburg, E. Caldeweyher
   M. Checinski, S. Dohm, S. Ehlert, S. Ehrlich, I. Gerasimov, C. Hölzer
   A. Katbashev, J. Koopman, C. Lavigne, S. Lehtola, F. März, M. Müller,
   F. Musil, H. Neugebauer, J. Pisarek, C. Plett, P. Pracht, F. Pultar,
   J. Seibert, P. Shushkov, S. Spicher, M. Stahn, M. Steiner, T. Strunk,
   J. Stückrath, T. Rose, and J. Unsleber
   
 * started run on 2024/04/06 at 11:13:37.713     

           -------------------------------------------------
          |                Calculation Setup                |
           -------------------------------------------------

          program call               : xtb struc.xyz --opt loose --input .xc1 --gfn2
          hostname                   : n-62-30-23
          coordinate file            : struc.xyz
          omp threads                :                     1

   ID    Z sym.   atoms
    1    7 N      1, 17
    2    6 C      2-6, 8, 9, 11-16, 18-23, 25, 26, 28-33
    3    8 O      7, 10, 24, 27
    4    1 H      34-72
constraining bond 18 51 to    4.1400000 Å, actual value:    2.1570989 Å

           -------------------------------------------------
          |                 G F N 2 - x T B                 |
           -------------------------------------------------

        Reference                      10.1021/acs.jctc.8b01176
      * Hamiltonian:
        H0-scaling (s, p, d)           1.850000    2.230000    2.230000
        zeta-weighting                 0.500000
      * Dispersion:
        s8                             2.700000
        a1                             0.520000
        a2                             5.000000
        s9                             5.000000
      * Repulsion:
        kExp                           1.500000    1.000000
        rExp                           1.000000
      * Coulomb:
        alpha                          2.000000
        third order                    shell-resolved
        anisotropic                    true
        a3                             3.000000
        a5                             4.000000
        cn-shift                       1.200000
        cn-exp                         4.000000
        max-rad                        5.000000


          ...................................................
          :                      SETUP                      :
          :.................................................:
          :  # basis functions                 171          :
          :  # atomic orbitals                 171          :
          :  # shells                          105          :
          :  # electrons                       180          :
          :  max. iterations                   250          :
          :  Hamiltonian                  GFN2-xTB          :
          :  restarted?                      false          :
          :  GBSA solvation                  false          :
          :  PC potential                    false          :
          :  electronic temp.         5000.0000000     K    :
          :  accuracy                    1.0000000          :
          :  -> integral cutoff          0.2500000E+02      :
          :  -> integral neglect         0.1000000E-07      :
          :  -> SCF convergence          0.1000000E-05 Eh   :
          :  -> wf. convergence          0.1000000E-03 e    :
          :  Broyden damping             0.4000000          :
          ...................................................

 iter      E             dE          RMSdq      gap      omega  full diag
   1   -100.5973919 -0.100597E+03  0.374E+00    3.20       0.0  T
   2   -100.7362642 -0.138872E+00  0.221E+00    1.08       1.0  T
   3   -100.7049001  0.313641E-01  0.141E+00    3.29       1.0  T
   4   -100.7721690 -0.672689E-01  0.526E-01    1.50       1.0  T
   5   -100.7894292 -0.172602E-01  0.190E-01    1.98       1.0  T
   6   -100.7911978 -0.176856E-02  0.792E-02    1.77       1.0  T
   7   -100.7914750 -0.277198E-03  0.375E-02    1.83       1.0  T
   8   -100.7914914 -0.164582E-04  0.140E-02    1.83       1.0  T
   9   -100.7914976 -0.616739E-05  0.474E-03    1.82       2.5  T
  10   -100.7914988 -0.118227E-05  0.172E-03    1.82       6.8  T
  11   -100.7914989 -0.139928E-06  0.766E-04    1.82      15.4  T
  12   -100.7914989 -0.773143E-08  0.318E-04    1.82      37.0  T

   *** convergence criteria satisfied after 12 iterations ***

         #    Occupation            Energy/Eh            Energy/eV
      -------------------------------------------------------------
         1        2.0000           -0.8078051             -21.9815
       ...           ...                  ...                  ...
        84        1.9966           -0.5157491             -14.0342
        85        1.9959           -0.5128261             -13.9547
        86        1.9840           -0.4911498             -13.3649
        87        1.9795           -0.4872543             -13.2589
        88        1.9640           -0.4782114             -13.0128
        89        1.8920           -0.4602041             -12.5228
        90        1.8557           -0.4553147             -12.3897 (HOMO)
        91        0.3166           -0.3884132             -10.5693 (LUMO)
        92        0.0218           -0.3434697              -9.3463
        93        0.0041           -0.3169887              -8.6257
        94        0.0034           -0.3139726              -8.5436
        95        0.0029           -0.3112618              -8.4699
       ...           ...                  ...                  ...
       171                          0.5822580              15.8440
      -------------------------------------------------------------
                  HL-Gap            0.0669015 Eh            1.8205 eV
             Fermi-level           -0.4148687 Eh          -11.2892 eV

 SCC (total)                   0 d,  0 h,  0 min,  0.191 sec
 SCC setup                      ...        0 min,  0.001 sec (  0.784%)
 Dispersion                     ...        0 min,  0.002 sec (  1.091%)
 classical contributions        ...        0 min,  0.001 sec (  0.355%)
 integral evaluation            ...        0 min,  0.018 sec (  9.569%)
 iterations                     ...        0 min,  0.097 sec ( 51.163%)
 molecular gradient             ...        0 min,  0.070 sec ( 36.691%)
 printout                       ...        0 min,  0.001 sec (  0.338%)

         :::::::::::::::::::::::::::::::::::::::::::::::::::::
         ::                     SUMMARY                     ::
         :::::::::::::::::::::::::::::::::::::::::::::::::::::
         :: total energy             -98.702078101866 Eh    ::
         :: gradient norm              0.530074189322 Eh/a0 ::
         :: HOMO-LUMO gap              1.820481192090 eV    ::
         ::.................................................::
         :: SCC energy              -100.791498925389 Eh    ::
         :: -> isotropic ES            0.109302908418 Eh    ::
         :: -> anisotropic ES          0.005415138735 Eh    ::
         :: -> anisotropic XC          0.042392697176 Eh    ::
         :: -> dispersion             -0.075527661009 Eh    ::
         :: repulsion energy           1.386151658689 Eh    ::
         :: add. restraining           0.702052812328 Eh    ::
         :: total charge               1.000000000108 e     ::
         :::::::::::::::::::::::::::::::::::::::::::::::::::::

      ----------------------------------------------------------- 
     |                   =====================                   |
     |                        A N C O P T                        |
     |                   =====================                   |
     |               Approximate Normal Coordinate               |
     |                Rational Function Optimizer                |
      ----------------------------------------------------------- 

          ...................................................
          :                      SETUP                      :
          :.................................................:
          :   optimization level             loose          :
          :   max. optcycles                   200          :
          :   ANC micro-cycles                  20          :
          :   degrees of freedom               210          :
          :.................................................:
          :   RF solver                   davidson          :
          :   write xtbopt.log                true          :
          :   linear?                        false          :
          :   energy convergence         0.5000000E-04 Eh   :
          :   grad. convergence          0.4000000E-02 Eh/α :
          :   maxmium RF displ.          1.0000000          :
          :   Hlow (freq-cutoff)         0.1000000E-01      :
          :   Hmax (freq-cutoff)         5.0000000          :
          :   S6 in model hess.         20.0000000          :
          ...................................................

generating ANC from model Hessian ...
Using Lindh-Hessian (1995)
 Shifting diagonal of input Hessian by    8.5079668839245573E-002
 Lowest  eigenvalues of input Hessian
    0.010000    0.035358    0.000000    0.000000    0.000000    0.000000
    0.000000    0.000000    0.085142    0.085179    0.085295    0.085369
    0.085415    0.085735    0.086126    0.086387    0.086522    0.087122
 Highest eigenvalues
    2.108308    2.121038    2.126658    2.254523    2.259584    2.262135


........................................................................
.............................. CYCLE    1 ..............................
........................................................................

 iter      E             dE          RMSdq      gap      omega  full diag
   1   -100.7914989 -0.100791E+03  0.114E-04    1.82       0.0  T
   2   -100.7914989 -0.678995E-10  0.713E-05    1.82     165.2  T
   3   -100.7914989  0.665210E-10  0.496E-05    1.82     237.5  T
     SCC iter.                  ...        0 min,  0.026 sec
     gradient                   ...        0 min,  0.070 sec
 * total energy  :   -98.7020781 Eh     change       -0.4035485E-08 Eh
   gradient norm :     0.5300744 Eh/α   predicted     0.0000000E+00 (-100.00%)
   displ. norm   :     0.6377418 α      lambda       -0.3071158E+00
   maximum displ.:     0.2118731 α      in ANC's #114, #131, #184, ...

........................................................................
.............................. CYCLE    2 ..............................
........................................................................

 iter      E             dE          RMSdq      gap      omega  full diag
   1   -100.7418693 -0.100742E+03  0.399E-01    1.76       0.0  T
   2   -100.7418885 -0.192120E-04  0.239E-01    1.82       1.0  T
   3   -100.7404183  0.147022E-02  0.117E-01    1.65       1.0  T
   4   -100.7419600 -0.154173E-02  0.183E-02    1.81       1.0  T
   5   -100.7419877 -0.277075E-04  0.561E-03    1.79       2.1  T
   6   -100.7419881 -0.357415E-06  0.256E-03    1.79       4.6  T
   7   -100.7419883 -0.204218E-06  0.725E-04    1.79      16.3  T
   8   -100.7419883 -0.155310E-07  0.319E-04    1.79      36.9  T
     SCC iter.                  ...        0 min,  0.065 sec
     gradient                   ...        0 min,  0.069 sec
 * total energy  :   -98.9460091 Eh     change       -0.2439310E+00 Eh
   gradient norm :     0.3075768 Eh/α   predicted    -0.2160141E+00 ( -11.44%)
   displ. norm   :     0.6546516 α      lambda       -0.1837544E+00
   maximum displ.:     0.2146113 α      in ANC's #2, #114, #131, ...

........................................................................
.............................. CYCLE    3 ..............................
........................................................................

 iter      E             dE          RMSdq      gap      omega  full diag
   1   -100.6725972 -0.100673E+03  0.277E-01    1.67       0.0  T
   2   -100.6725320  0.652392E-04  0.171E-01    1.78       1.0  T
   3   -100.6701967  0.233525E-02  0.156E-01    1.54       1.0  T
   4   -100.6727811 -0.258443E-02  0.161E-02    1.74       1.0  T
   5   -100.6727978 -0.166689E-04  0.584E-03    1.72       2.0  T
   6   -100.6727983 -0.455705E-06  0.291E-03    1.72       4.0  T
   7   -100.6727986 -0.339137E-06  0.122E-03    1.72       9.7  T
   8   -100.6727986 -0.255108E-07  0.450E-04    1.72      26.2  T
   9   -100.6727986 -0.933241E-08  0.174E-04    1.72      67.9  T
     SCC iter.                  ...        0 min,  0.072 sec
     gradient                   ...        0 min,  0.069 sec
 * total energy  :   -99.0886764 Eh     change       -0.1426673E+00 Eh
   gradient norm :     0.1767131 Eh/α   predicted    -0.1312532E+00 (  -8.00%)
   displ. norm   :     0.6211354 α      lambda       -0.9957559E-01
   maximum displ.:     0.2428841 α      in ANC's #2, #114, #184, ...

........................................................................
.............................. CYCLE    4 ..............................
........................................................................

 iter      E             dE          RMSdq      gap      omega  full diag
   1   -100.6187472 -0.100619E+03  0.257E-01    1.42       0.0  T
   2   -100.6189268 -0.179663E-03  0.187E-01    1.63       1.0  T
   3   -100.6193201 -0.393244E-03  0.124E-01    1.45       1.0  T
   4   -100.6205018 -0.118175E-02  0.378E-02    1.55       1.0  T
   5   -100.6205206 -0.187998E-04  0.228E-02    1.53       1.0  T
   6   -100.6205402 -0.196004E-04  0.104E-02    1.54       1.1  T
   7   -100.6205490 -0.877573E-05  0.359E-03    1.54       3.3  T
   8   -100.6205494 -0.410712E-06  0.185E-03    1.54       6.4  T
   9   -100.6205495 -0.129137E-06  0.623E-04    1.54      18.9  T
  10   -100.6205495 -0.116829E-07  0.271E-04    1.54      43.6  T
     SCC iter.                  ...        0 min,  0.080 sec
     gradient                   ...        0 min,  0.069 sec
 * total energy  :   -99.1641396 Eh     change       -0.7546315E-01 Eh
   gradient norm :     0.1014682 Eh/α   predicted    -0.6899695E-01 (  -8.57%)
   displ. norm   :     0.5516557 α      lambda       -0.4903175E-01
   maximum displ.:     0.2110956 α      in ANC's #2, #184, #55, ...

........................................................................
.............................. CYCLE    5 ..............................
........................................................................

 iter      E             dE          RMSdq      gap      omega  full diag
   1   -100.5909523 -0.100591E+03  0.335E-01    1.11       0.0  T
   2   -100.5885761  0.237620E-02  0.257E-01    1.43       1.0  T
   3   -100.5911450 -0.256894E-02  0.201E-01    1.19       1.0  T
   4   -100.5947803 -0.363530E-02  0.785E-02    1.26       1.0  T
   5   -100.5949139 -0.133541E-03  0.521E-02    1.30       1.0  T
   6   -100.5951466 -0.232725E-03  0.168E-02    1.27       1.0  T
   7   -100.5951681 -0.214823E-04  0.462E-03    1.28       2.6  T
   8   -100.5951685 -0.445555E-06  0.231E-03    1.28       5.1  T
   9   -100.5951688 -0.270093E-06  0.863E-04    1.28      13.7  T
  10   -100.5951688 -0.260904E-07  0.359E-04    1.28      32.8  T
     SCC iter.                  ...        0 min,  0.080 sec
     gradient                   ...        0 min,  0.069 sec
 * total energy  :   -99.1987103 Eh     change       -0.3457070E-01 Eh
   gradient norm :     0.0531294 Eh/α   predicted    -0.3197667E-01 (  -7.50%)
   displ. norm   :     0.3749700 α      lambda       -0.1504098E-01
   maximum displ.:     0.1043431 α      in ANC's #104, #2, #55, ...

........................................................................
.............................. CYCLE    6 ..............................
........................................................................

 iter      E             dE          RMSdq      gap      omega  full diag
   1   -100.5885970 -0.100589E+03  0.206E-01    1.04       0.0  T
   2   -100.5882440  0.353005E-03  0.142E-01    1.16       1.0  T
   3   -100.5889842 -0.740165E-03  0.102E-01    1.06       1.0  T
   4   -100.5897231 -0.738929E-03  0.332E-02    1.11       1.0  T
   5   -100.5897609 -0.377644E-04  0.182E-02    1.10       1.0  T
   6   -100.5897838 -0.229748E-04  0.355E-03    1.10       3.3  T
   7   -100.5897835  0.346043E-06  0.335E-03    1.11       3.5  T
   8   -100.5897846 -0.115090E-05  0.153E-03    1.10       7.7  T
   9   -100.5897848 -0.150557E-06  0.355E-04    1.10      33.2  T
  10   -100.5897848 -0.205262E-08  0.199E-04    1.10      59.2  T
     SCC iter.                  ...        0 min,  0.081 sec
     gradient                   ...        0 min,  0.069 sec
 * total energy  :   -99.2084995 Eh     change       -0.9789249E-02 Eh
   gradient norm :     0.0414999 Eh/α   predicted    -0.8577894E-02 ( -12.37%)
   displ. norm   :     0.2504644 α      lambda       -0.5381033E-02
   maximum displ.:     0.0728317 α      in ANC's #68, #66, #184, ...

........................................................................
.............................. CYCLE    7 ..............................
........................................................................

 iter      E             dE          RMSdq      gap      omega  full diag
   1   -100.5913234 -0.100591E+03  0.129E-01    1.01       0.0  T
   2   -100.5900140  0.130940E-02  0.142E-01    1.01       1.0  T
   3   -100.5914986 -0.148466E-02  0.777E-02    1.03       1.0  T
   4   -100.5914516  0.470177E-04  0.609E-02    0.99       1.0  T
   5   -100.5919100 -0.458378E-03  0.126E-02    1.02       1.0  T
   6   -100.5919272 -0.171996E-04  0.480E-03    1.01       2.5  T
   7   -100.5919284 -0.125927E-05  0.184E-03    1.01       6.4  T
   8   -100.5919287 -0.262203E-06  0.761E-04    1.01      15.5  T
   9   -100.5919287 -0.195173E-07  0.229E-04    1.01      51.4  T
     SCC iter.                  ...        0 min,  0.073 sec
     gradient                   ...        0 min,  0.069 sec
 * total energy  :   -99.2130629 Eh     change       -0.4563322E-02 Eh
   gradient norm :     0.0489030 Eh/α   predicted    -0.2859303E-02 ( -37.34%)
   displ. norm   :     0.5915401 α      lambda       -0.1309391E-01
   maximum displ.:     0.1629609 α      in ANC's #68, #2, #184, ...

........................................................................
.............................. CYCLE    8 ..............................
........................................................................

 iter      E             dE          RMSdq      gap      omega  full diag
   1   -100.5967628 -0.100597E+03  0.347E-01    0.96       0.0  T
   2   -100.5809675  0.157953E-01  0.450E-01    0.71       1.0  T
   3   -100.5982625 -0.172950E-01  0.209E-01    0.91       1.0  T
   4   -100.5988813 -0.618875E-03  0.133E-01    0.82       1.0  T
   5   -100.6010590 -0.217770E-02  0.339E-02    0.84       1.0  T
   6   -100.6011873 -0.128275E-03  0.748E-03    0.84       1.6  T
   7   -100.6011900 -0.272850E-05  0.400E-03    0.84       2.9  T
   8   -100.6011908 -0.738143E-06  0.228E-03    0.84       5.2  T
   9   -100.6011910 -0.244734E-06  0.940E-04    0.84      12.5  T
  10   -100.6011911 -0.621987E-07  0.331E-04    0.84      35.7  T
     SCC iter.                  ...        0 min,  0.080 sec
     gradient                   ...        0 min,  0.069 sec
 * total energy  :   -99.2255019 Eh     change       -0.1243905E-01 Eh
   gradient norm :     0.0802664 Eh/α   predicted    -0.8837892E-02 ( -28.95%)
   displ. norm   :     0.8527446 α      lambda       -0.2402905E-01
   maximum displ.:     0.2423283 α      in ANC's #184, #68, #66, ...

........................................................................
.............................. CYCLE    9 ..............................
........................................................................

 iter      E             dE          RMSdq      gap      omega  full diag
   1   -100.6054110 -0.100605E+03  0.511E-01    1.01       0.0  T
   2   -100.5733625  0.320485E-01  0.657E-01    0.36       1.0  T
   3   -100.6086212 -0.352587E-01  0.298E-01    0.91       1.0  T
   4   -100.6105005 -0.187934E-02  0.170E-01    0.74       1.0  T
   5   -100.6137464 -0.324590E-02  0.402E-02    0.73       1.0  T
   6   -100.6138558 -0.109395E-03  0.956E-03    0.73       1.2  T
   7   -100.6138599 -0.408292E-05  0.379E-03    0.73       3.1  T
   8   -100.6138603 -0.418945E-06  0.215E-03    0.73       5.5  T
   9   -100.6138605 -0.111733E-06  0.128E-03    0.73       9.2  T
  10   -100.6138606 -0.122947E-06  0.507E-04    0.73      23.3  T
  11   -100.6138606 -0.162248E-07  0.154E-04    0.73      76.7  T
     SCC iter.                  ...        0 min,  0.088 sec
     gradient                   ...        0 min,  0.069 sec
 * total energy  :   -99.2477349 Eh     change       -0.2223301E-01 Eh
   gradient norm :     0.1210159 Eh/α   predicted    -0.2075117E-01 (  -6.67%)
   displ. norm   :     0.6976011 α      lambda       -0.3529528E-01
   maximum displ.:     0.2288426 α      in ANC's #184, #154, #157, ...

........................................................................
.............................. CYCLE   10 ..............................
........................................................................

 iter      E             dE          RMSdq      gap      omega  full diag
   1   -100.6336859 -0.100634E+03  0.392E-01    0.92       0.0  T
   2   -100.6267083  0.697764E-02  0.393E-01    0.52       1.0  T
   3   -100.6339839 -0.727559E-02  0.228E-01    0.92       1.0  T
   4   -100.6340906 -0.106742E-03  0.151E-01    0.69       1.0  T
   5   -100.6364798 -0.238916E-02  0.267E-02    0.76       1.0  T
   6   -100.6365050 -0.252052E-04  0.159E-02    0.76       1.0  T
   7   -100.6365213 -0.163474E-04  0.533E-03    0.76       2.2  T
   8   -100.6365228 -0.145560E-05  0.282E-03    0.77       4.2  T
   9   -100.6365234 -0.616005E-06  0.125E-03    0.77       9.4  T
  10   -100.6365235 -0.967115E-07  0.520E-04    0.77      22.7  T
  11   -100.6365235 -0.822808E-08  0.154E-04    0.77      76.8  T
     SCC iter.                  ...        0 min,  0.088 sec
     gradient                   ...        0 min,  0.069 sec
 * total energy  :   -99.2713330 Eh     change       -0.2359813E-01 Eh
   gradient norm :     0.1332766 Eh/α   predicted    -0.2623588E-01 (  11.18%)
   displ. norm   :     0.3282311 α      lambda       -0.2207170E-01
   maximum displ.:     0.1152407 α      in ANC's #1, #184, #2, ...

........................................................................
.............................. CYCLE   11 ..............................
........................................................................

 iter      E             dE          RMSdq      gap      omega  full diag
   1   -100.6705383 -0.100671E+03  0.178E-01    0.74       0.0  T
   2   -100.6702711  0.267226E-03  0.105E-01    0.81       1.0  T
   3   -100.6691210  0.115007E-02  0.161E-01    0.66       1.0  T
   4   -100.6705626 -0.144156E-02  0.352E-02    0.79       1.0  T
   5   -100.6706870 -0.124444E-03  0.141E-02    0.75       1.0  T
   6   -100.6706978 -0.107426E-04  0.612E-03    0.76       1.9  T
   7   -100.6706995 -0.174550E-05  0.350E-03    0.76       3.4  T
   8   -100.6707003 -0.829264E-06  0.127E-03    0.76       9.3  T
   9   -100.6707004 -0.623513E-07  0.630E-04    0.76      18.7  T
  10   -100.6707004 -0.214655E-07  0.198E-04    0.76      59.6  T
     SCC iter.                  ...        0 min,  0.082 sec
     gradient                   ...        0 min,  0.070 sec
 * total energy  :   -99.2869523 Eh     change       -0.1561924E-01 Eh
   gradient norm :     0.1079905 Eh/α   predicted    -0.1222492E-01 ( -21.73%)
   displ. norm   :     0.3831875 α      lambda       -0.2931251E-01
   maximum displ.:     0.1324861 α      in ANC's #55, #184, #114, ...

........................................................................
.............................. CYCLE   12 ..............................
........................................................................

 iter      E             dE          RMSdq      gap      omega  full diag
   1   -100.6989554 -0.100699E+03  0.252E-01    0.69       0.0  T
   2   -100.6967035  0.225187E-02  0.243E-01    0.80       1.0  T
   3   -100.6999511 -0.324766E-02  0.128E-01    0.69       1.0  T
   4   -100.7003702 -0.419077E-03  0.347E-02    0.75       1.0  T
   5   -100.7004324 -0.622192E-04  0.246E-02    0.70       1.0  T
   6   -100.7004781 -0.456644E-04  0.913E-03    0.73       1.3  T
   7   -100.7004845 -0.643656E-05  0.522E-03    0.72       2.3  T
   8   -100.7004860 -0.147859E-05  0.195E-03    0.72       6.1  T
   9   -100.7004864 -0.394748E-06  0.710E-04    0.72      16.6  T
  10   -100.7004864 -0.198327E-07  0.358E-04    0.72      33.0  T
     SCC iter.                  ...        0 min,  0.081 sec
     gradient                   ...        0 min,  0.070 sec
 * total energy  :   -99.3017177 Eh     change       -0.1476541E-01 Eh
   gradient norm :     0.0773129 Eh/α   predicted    -0.1680827E-01 (  13.84%)
   displ. norm   :     0.2500783 α      lambda       -0.9738254E-02
   maximum displ.:     0.1108609 α      in ANC's #184, #1, #51, ...

........................................................................
.............................. CYCLE   13 ..............................
........................................................................

 iter      E             dE          RMSdq      gap      omega  full diag
   1   -100.7035580 -0.100704E+03  0.107E-01    0.71       0.0  T
   2   -100.7035098  0.481947E-04  0.716E-02    0.72       1.0  T
   3   -100.7032173  0.292483E-03  0.738E-02    0.72       1.0  T
   4   -100.7035907 -0.373373E-03  0.114E-02    0.71       1.0  T
   5   -100.7035990 -0.826648E-05  0.105E-02    0.73       1.1  T
   6   -100.7036078 -0.887283E-05  0.281E-03    0.72       4.2  T
   7   -100.7036080 -0.192672E-06  0.161E-03    0.72       7.3  T
   8   -100.7036082 -0.180737E-06  0.458E-04    0.72      25.7  T
   9   -100.7036082 -0.107914E-07  0.204E-04    0.72      57.9  T
     SCC iter.                  ...        0 min,  0.072 sec
     gradient                   ...        0 min,  0.070 sec
 * total energy  :   -99.3067323 Eh     change       -0.5014589E-02 Eh
   gradient norm :     0.0353014 Eh/α   predicted    -0.5173643E-02 (   3.17%)
   displ. norm   :     0.2681413 α      lambda       -0.4660631E-02
   maximum displ.:     0.0946156 α      in ANC's #55, #66, #68, ...

........................................................................
.............................. CYCLE   14 ..............................
........................................................................

 iter      E             dE          RMSdq      gap      omega  full diag
   1   -100.7108901 -0.100711E+03  0.109E-01    0.67       0.0  T
   2   -100.7105230  0.367146E-03  0.905E-02    0.76       1.0  T
   3   -100.7105654 -0.424180E-04  0.784E-02    0.64       1.0  T
   4   -100.7109027 -0.337332E-03  0.402E-02    0.73       1.0  T
   5   -100.7110422 -0.139453E-03  0.550E-03    0.70       2.1  T
   6   -100.7110443 -0.208574E-05  0.232E-03    0.70       5.1  T
   7   -100.7110446 -0.303724E-06  0.148E-03    0.70       8.0  T
   8   -100.7110446 -0.586438E-07  0.773E-04    0.70      15.3  T
   9   -100.7110447 -0.562653E-07  0.176E-04    0.70      67.0  T
     SCC iter.                  ...        0 min,  0.072 sec
     gradient                   ...        0 min,  0.069 sec
 * total energy  :   -99.3099300 Eh     change       -0.3197663E-02 Eh
   gradient norm :     0.0317945 Eh/α   predicted    -0.2497866E-02 ( -21.88%)
   displ. norm   :     0.3312980 α      lambda       -0.5312957E-02
   maximum displ.:     0.1682616 α      in ANC's #2, #55, #10, ...

........................................................................
.............................. CYCLE   15 ..............................
........................................................................

 iter      E             dE          RMSdq      gap      omega  full diag
   1   -100.7088232 -0.100709E+03  0.150E-01    0.65       0.0  T
   2   -100.7081539  0.669338E-03  0.124E-01    0.77       1.0  T
   3   -100.7080112  0.142671E-03  0.118E-01    0.60       1.0  T
   4   -100.7089453 -0.934118E-03  0.342E-02    0.70       1.0  T
   5   -100.7090470 -0.101707E-03  0.680E-03    0.68       1.7  T
   6   -100.7090520 -0.502344E-05  0.274E-03    0.69       4.3  T
   7   -100.7090522 -0.202594E-06  0.141E-03    0.69       8.4  T
   8   -100.7090523 -0.109113E-06  0.873E-04    0.69      13.5  T
   9   -100.7090524 -0.524675E-07  0.168E-04    0.69      70.1  T
     SCC iter.                  ...        0 min,  0.072 sec
     gradient                   ...        0 min,  0.069 sec
 * total energy  :   -99.3135466 Eh     change       -0.3616664E-02 Eh
   gradient norm :     0.0248024 Eh/α   predicted    -0.2948058E-02 ( -18.49%)
   displ. norm   :     0.3132868 α      lambda       -0.2985295E-02
   maximum displ.:     0.1812047 α      in ANC's #2, #10, #34, ...

........................................................................
.............................. CYCLE   16 ..............................
........................................................................

 iter      E             dE          RMSdq      gap      omega  full diag
   1   -100.7083535 -0.100708E+03  0.139E-01    0.67       0.0  T
   2   -100.7082487  0.104836E-03  0.904E-02    0.71       1.0  T
   3   -100.7075623  0.686333E-03  0.108E-01    0.62       1.0  T
   4   -100.7083272 -0.764902E-03  0.312E-02    0.71       1.0  T
   5   -100.7084232 -0.959314E-04  0.565E-03    0.68       2.1  T
   6   -100.7084271 -0.388443E-05  0.183E-03    0.68       6.4  T
   7   -100.7084271 -0.663748E-07  0.116E-03    0.68      10.1  T
   8   -100.7084272 -0.939440E-07  0.531E-04    0.68      22.2  T
   9   -100.7084272 -0.173074E-07  0.138E-04    0.68      85.5  T
     SCC iter.                  ...        0 min,  0.072 sec
     gradient                   ...        0 min,  0.069 sec
 * total energy  :   -99.3157975 Eh     change       -0.2250907E-02 Eh
   gradient norm :     0.0224271 Eh/α   predicted    -0.1639161E-02 ( -27.18%)
   displ. norm   :     0.3931070 α      lambda       -0.3011225E-02
   maximum displ.:     0.2139151 α      in ANC's #2, #10, #34, ...

........................................................................
.............................. CYCLE   17 ..............................
........................................................................

 iter      E             dE          RMSdq      gap      omega  full diag
   1   -100.7111336 -0.100711E+03  0.163E-01    0.69       0.0  T
   2   -100.7111209  0.126729E-04  0.979E-02    0.69       1.0  T
   3   -100.7105735  0.547408E-03  0.861E-02    0.67       1.0  T
   4   -100.7111541 -0.580629E-03  0.106E-02    0.70       1.1  T
   5   -100.7111609 -0.673310E-05  0.442E-03    0.68       2.7  T
   6   -100.7111625 -0.166775E-05  0.252E-03    0.69       4.7  T
   7   -100.7111630 -0.517103E-06  0.120E-03    0.69       9.8  T
   8   -100.7111631 -0.648100E-07  0.551E-04    0.69      21.4  T
   9   -100.7111631 -0.197528E-07  0.185E-04    0.69      63.7  T
     SCC iter.                  ...        0 min,  0.072 sec
     gradient                   ...        0 min,  0.069 sec
 * total energy  :   -99.3180185 Eh     change       -0.2221011E-02 Eh
   gradient norm :     0.0212015 Eh/α   predicted    -0.1738292E-02 ( -21.73%)
   displ. norm   :     0.4237584 α      lambda       -0.2314750E-02
   maximum displ.:     0.1794377 α      in ANC's #2, #1, #10, ...

........................................................................
.............................. CYCLE   18 ..............................
........................................................................

 iter      E             dE          RMSdq      gap      omega  full diag
   1   -100.7147462 -0.100715E+03  0.167E-01    0.71       0.0  T
   2   -100.7146924  0.537972E-04  0.100E-01    0.68       1.0  T
   3   -100.7130722  0.162022E-02  0.125E-01    0.82       1.0  T
   4   -100.7147603 -0.168813E-02  0.128E-02    0.69       1.0  T
   5   -100.7147756 -0.153321E-04  0.571E-03    0.70       2.1  T
   6   -100.7147774 -0.178296E-05  0.210E-03    0.70       5.6  T
   7   -100.7147776 -0.190711E-06  0.105E-03    0.70      11.2  T
   8   -100.7147776 -0.340261E-07  0.443E-04    0.70      26.6  T
   9   -100.7147777 -0.148933E-07  0.172E-04    0.70      68.6  T
     SCC iter.                  ...        0 min,  0.071 sec
     gradient                   ...        0 min,  0.069 sec
 * total energy  :   -99.3195467 Eh     change       -0.1528213E-02 Eh
   gradient norm :     0.0275659 Eh/α   predicted    -0.1365221E-02 ( -10.67%)
   displ. norm   :     0.4227413 α      lambda       -0.2679710E-02
   maximum displ.:     0.1310925 α      in ANC's #10, #2, #34, ...

........................................................................
.............................. CYCLE   19 ..............................
........................................................................

 iter      E             dE          RMSdq      gap      omega  full diag
   1   -100.7228401 -0.100723E+03  0.155E-01    0.73       0.0  T
   2   -100.7226552  0.184948E-03  0.108E-01    0.68       1.0  T
   3   -100.7221518  0.503420E-03  0.111E-01    0.78       1.0  T
   4   -100.7228707 -0.718953E-03  0.314E-02    0.68       1.0  T
   5   -100.7229651 -0.944337E-04  0.757E-03    0.72       1.6  T
   6   -100.7229714 -0.624030E-05  0.288E-03    0.71       4.1  T
   7   -100.7229719 -0.491183E-06  0.139E-03    0.71       8.5  T
   8   -100.7229719 -0.486954E-07  0.886E-04    0.71      13.3  T
   9   -100.7229720 -0.572728E-07  0.217E-04    0.71      54.4  T
     SCC iter.                  ...        0 min,  0.072 sec
     gradient                   ...        0 min,  0.075 sec
 * total energy  :   -99.3203882 Eh     change       -0.8414081E-03 Eh
   gradient norm :     0.0303545 Eh/α   predicted    -0.1579325E-02 (  87.70%)
   displ. norm   :     0.2197175 α      lambda       -0.1607582E-02
   maximum displ.:     0.1298551 α      in ANC's #1, #2, #10, ...

........................................................................
.............................. CYCLE   20 ..............................
........................................................................

 iter      E             dE          RMSdq      gap      omega  full diag
   1   -100.7227254 -0.100723E+03  0.708E-02    0.72       0.0  T
   2   -100.7227022  0.231895E-04  0.438E-02    0.70       1.0  T
   3   -100.7224180  0.284194E-03  0.584E-02    0.77       1.0  T
   4   -100.7227276 -0.309609E-03  0.120E-02    0.71       1.0  T
   5   -100.7227414 -0.138045E-04  0.479E-03    0.72       2.5  T
   6   -100.7227429 -0.143661E-05  0.135E-03    0.72       8.8  T
   7   -100.7227429 -0.584637E-07  0.866E-04    0.72      13.6  T
   8   -100.7227430 -0.313849E-07  0.299E-04    0.72      39.4  T
     SCC iter.                  ...        0 min,  0.064 sec
     gradient                   ...        0 min,  0.069 sec
 * total energy  :   -99.3215039 Eh     change       -0.1115763E-02 Eh
   gradient norm :     0.0173043 Eh/α   predicted    -0.8426042E-03 ( -24.48%)
   displ. norm   :     0.1869981 α      lambda       -0.1048997E-02
   maximum displ.:     0.0712468 α      in ANC's #1, #10, #23, ...
 * RMSD in coord.:     0.5967251 α      energy gain  -0.6194258E+00 Eh

generating ANC from model Hessian ...
Using Lindh-Hessian (1995)
 Shifting diagonal of input Hessian by    1.0112282779266249E-002
 Lowest  eigenvalues of input Hessian
    0.010000    0.010073    0.000000    0.000000    0.000000    0.000000
    0.000000    0.000000    0.010144    0.010161    0.010234    0.010286
    0.010432    0.010595    0.010869    0.010994    0.011161    0.011678
 Highest eigenvalues
    2.017296    2.040744    2.106315    2.182456    2.186209    2.195591


........................................................................
.............................. CYCLE   21 ..............................
........................................................................

 iter      E             dE          RMSdq      gap      omega  full diag
   1   -100.7247093 -0.100725E+03  0.545E-02    0.72       0.0  T
   2   -100.7247123 -0.295027E-05  0.330E-02    0.72       1.0  T
   3   -100.7246306  0.816321E-04  0.317E-02    0.74       1.0  T
   4   -100.7247111 -0.805023E-04  0.102E-02    0.71       1.2  T
   5   -100.7247194 -0.823982E-05  0.512E-03    0.73       2.3  T
   6   -100.7247216 -0.228434E-05  0.146E-03    0.72       8.1  T
   7   -100.7247218 -0.152080E-06  0.542E-04    0.72      21.7  T
   8   -100.7247218 -0.519249E-08  0.202E-04    0.72      58.2  T
     SCC iter.                  ...        0 min,  0.065 sec
     gradient                   ...        0 min,  0.072 sec
 * total energy  :   -99.3222148 Eh     change       -0.7109156E-03 Eh
   gradient norm :     0.0119119 Eh/α   predicted     0.0000000E+00 (-100.00%)
   displ. norm   :     0.2093967 α      lambda       -0.1012029E-02
   maximum displ.:     0.1428400 α      in ANC's #9, #40, #13, ...

........................................................................
.............................. CYCLE   22 ..............................
........................................................................

 iter      E             dE          RMSdq      gap      omega  full diag
   1   -100.7242319 -0.100724E+03  0.557E-02    0.71       0.0  T
   2   -100.7242085  0.234395E-04  0.364E-02    0.74       1.0  T
   3   -100.7240029  0.205599E-03  0.503E-02    0.67       1.0  T
   4   -100.7242369 -0.234017E-03  0.580E-03    0.72       2.0  T
   5   -100.7242413 -0.441404E-05  0.205E-03    0.72       5.8  T
   6   -100.7242416 -0.257433E-06  0.102E-03    0.72      11.5  T
   7   -100.7242416 -0.467210E-07  0.469E-04    0.72      25.1  T
   8   -100.7242416 -0.101248E-07  0.193E-04    0.72      61.0  T
     SCC iter.                  ...        0 min,  0.065 sec
     gradient                   ...        0 min,  0.069 sec
 * total energy  :   -99.3230233 Eh     change       -0.8085134E-03 Eh
   gradient norm :     0.0058658 Eh/α   predicted    -0.5282082E-03 ( -34.67%)
   displ. norm   :     0.4291986 α      lambda       -0.1241577E-02
   maximum displ.:     0.2978008 α      in ANC's #9, #13, #19, ...

........................................................................
.............................. CYCLE   23 ..............................
........................................................................

 iter      E             dE          RMSdq      gap      omega  full diag
   1   -100.7229314 -0.100723E+03  0.883E-02    0.71       0.0  T
   2   -100.7229189  0.124966E-04  0.532E-02    0.73       1.0  T
   3   -100.7225057  0.413179E-03  0.638E-02    0.65       1.0  T
   4   -100.7229305 -0.424812E-03  0.107E-02    0.72       1.1  T
   5   -100.7229436 -0.130694E-04  0.283E-03    0.72       4.2  T
   6   -100.7229439 -0.286781E-06  0.149E-03    0.72       7.9  T
   7   -100.7229439 -0.776938E-07  0.836E-04    0.72      14.1  T
   8   -100.7229440 -0.369099E-07  0.341E-04    0.72      34.6  T
     SCC iter.                  ...        0 min,  0.065 sec
     gradient                   ...        0 min,  0.069 sec
 * total energy  :   -99.3239475 Eh     change       -0.9241991E-03 Eh
   gradient norm :     0.0055903 Eh/α   predicted    -0.7351453E-03 ( -20.46%)
   displ. norm   :     0.4242469 α      lambda       -0.7806521E-03
   maximum displ.:     0.2945748 α      in ANC's #9, #13, #19, ...

........................................................................
.............................. CYCLE   24 ..............................
........................................................................

 iter      E             dE          RMSdq      gap      omega  full diag
   1   -100.7226487 -0.100723E+03  0.760E-02    0.71       0.0  T
   2   -100.7226486  0.676050E-07  0.448E-02    0.72       1.0  T
   3   -100.7225386  0.110022E-03  0.318E-02    0.70       1.0  T
   4   -100.7226568 -0.118176E-03  0.329E-03    0.72       3.6  T
   5   -100.7226569 -0.928420E-07  0.242E-03    0.71       4.9  T
   6   -100.7226571 -0.196070E-06  0.157E-03    0.72       7.5  T
   7   -100.7226572 -0.112869E-06  0.725E-04    0.72      16.3  T
   8   -100.7226572 -0.242122E-07  0.420E-04    0.72      28.1  T
     SCC iter.                  ...        0 min,  0.065 sec
     gradient                   ...        0 min,  0.069 sec
 * total energy  :   -99.3245980 Eh     change       -0.6504347E-03 Eh
   gradient norm :     0.0082485 Eh/α   predicted    -0.4605807E-03 ( -29.19%)
   displ. norm   :     0.4572966 α      lambda       -0.7781889E-03
   maximum displ.:     0.3077773 α      in ANC's #9, #13, #7, ...

........................................................................
.............................. CYCLE   25 ..............................
........................................................................

 iter      E             dE          RMSdq      gap      omega  full diag
   1   -100.7238800 -0.100724E+03  0.847E-02    0.72       0.0  T
   2   -100.7238760  0.398779E-05  0.501E-02    0.71       1.0  T
   3   -100.7236115  0.264537E-03  0.505E-02    0.75       1.0  T
   4   -100.7238824 -0.270912E-03  0.788E-03    0.71       1.5  T
   5   -100.7238882 -0.584943E-05  0.353E-03    0.72       3.3  T
   6   -100.7238891 -0.896403E-06  0.127E-03    0.72       9.3  T
   7   -100.7238891  0.206910E-09  0.921E-04    0.72      12.8  T
   8   -100.7238892 -0.490831E-07  0.329E-04    0.72      35.8  T
     SCC iter.                  ...        0 min,  0.065 sec
     gradient                   ...        0 min,  0.069 sec
 * total energy  :   -99.3252672 Eh     change       -0.6692492E-03 Eh
   gradient norm :     0.0083269 Eh/α   predicted    -0.4704643E-03 ( -29.70%)
   displ. norm   :     0.5294379 α      lambda       -0.8365278E-03
   maximum displ.:     0.3542632 α      in ANC's #9, #13, #7, ...

........................................................................
.............................. CYCLE   26 ..............................
........................................................................

 iter      E             dE          RMSdq      gap      omega  full diag
   1   -100.7258092 -0.100726E+03  0.103E-01    0.73       0.0  T
   2   -100.7257953  0.138809E-04  0.614E-02    0.71       1.0  T
   3   -100.7252033  0.591956E-03  0.743E-02    0.79       1.0  T
   4   -100.7258175 -0.614196E-03  0.595E-03    0.72       2.0  T
   5   -100.7258199 -0.242179E-05  0.333E-03    0.72       3.5  T
   6   -100.7258205 -0.584020E-06  0.156E-03    0.72       7.5  T
   7   -100.7258206 -0.922732E-07  0.867E-04    0.72      13.6  T
   8   -100.7258207 -0.536762E-07  0.256E-04    0.72      46.1  T
     SCC iter.                  ...        0 min,  0.066 sec
     gradient                   ...        0 min,  0.069 sec
 * total energy  :   -99.3259613 Eh     change       -0.6940346E-03 Eh
   gradient norm :     0.0064779 Eh/α   predicted    -0.5355241E-03 ( -22.84%)
   displ. norm   :     0.5598109 α      lambda       -0.7001473E-03
   maximum displ.:     0.3763880 α      in ANC's #9, #7, #13, ...

........................................................................
.............................. CYCLE   27 ..............................
........................................................................

 iter      E             dE          RMSdq      gap      omega  full diag
   1   -100.7269346 -0.100727E+03  0.108E-01    0.73       0.0  T
   2   -100.7269177  0.168357E-04  0.642E-02    0.71       1.0  T
   3   -100.7262302  0.687530E-03  0.790E-02    0.81       1.0  T
   4   -100.7269438 -0.713624E-03  0.574E-03    0.72       2.1  T
   5   -100.7269464 -0.253478E-05  0.243E-03    0.73       4.8  T
   6   -100.7269465 -0.967498E-07  0.139E-03    0.73       8.5  T
   7   -100.7269466 -0.134902E-06  0.689E-04    0.73      17.1  T
   8   -100.7269466 -0.306811E-07  0.183E-04    0.73      64.4  T
     SCC iter.                  ...        0 min,  0.065 sec
     gradient                   ...        0 min,  0.069 sec
 * total energy  :   -99.3265192 Eh     change       -0.5579646E-03 Eh
   gradient norm :     0.0046217 Eh/α   predicted    -0.4597854E-03 ( -17.60%)
   displ. norm   :     0.5298720 α      lambda       -0.4804900E-03
   maximum displ.:     0.3570305 α      in ANC's #9, #7, #11, ...

........................................................................
.............................. CYCLE   28 ..............................
........................................................................

 iter      E             dE          RMSdq      gap      omega  full diag
   1   -100.7278442 -0.100728E+03  0.948E-02    0.74       0.0  T
   2   -100.7278317  0.125237E-04  0.567E-02    0.72       1.0  T
   3   -100.7273015  0.530140E-03  0.688E-02    0.80       1.0  T
   4   -100.7278511 -0.549540E-03  0.547E-03    0.73       2.2  T
   5   -100.7278535 -0.238141E-05  0.215E-03    0.73       5.5  T
   6   -100.7278535 -0.678533E-07  0.121E-03    0.73       9.8  T
   7   -100.7278536 -0.100891E-06  0.578E-04    0.73      20.4  T
   8   -100.7278537 -0.202832E-07  0.183E-04    0.73      64.4  T
     SCC iter.                  ...        0 min,  0.065 sec
     gradient                   ...        0 min,  0.069 sec
 * total energy  :   -99.3268904 Eh     change       -0.3711499E-03 Eh
   gradient norm :     0.0039494 Eh/α   predicted    -0.3077026E-03 ( -17.09%)
   displ. norm   :     0.4758600 α      lambda       -0.3086047E-03
   maximum displ.:     0.3174827 α      in ANC's #9, #7, #11, ...

........................................................................
.............................. CYCLE   29 ..............................
........................................................................

 iter      E             dE          RMSdq      gap      omega  full diag
   1   -100.7286169 -0.100729E+03  0.794E-02    0.74       0.0  T
   2   -100.7286100  0.693854E-05  0.474E-02    0.72       1.0  T
   3   -100.7282773  0.332651E-03  0.544E-02    0.79       1.0  T
   4   -100.7286215 -0.344170E-03  0.460E-03    0.73       2.6  T
   5   -100.7286229 -0.140799E-05  0.221E-03    0.73       5.3  T
   6   -100.7286230 -0.458747E-07  0.156E-03    0.73       7.5  T
   7   -100.7286231 -0.160321E-06  0.410E-04    0.73      28.7  T
   8   -100.7286231 -0.919958E-08  0.152E-04    0.73      77.8  T
     SCC iter.                  ...        0 min,  0.065 sec
     gradient                   ...        0 min,  0.075 sec
 * total energy  :   -99.3271245 Eh     change       -0.2341669E-03 Eh
   gradient norm :     0.0038856 Eh/α   predicted    -0.1892507E-03 ( -19.18%)
   displ. norm   :     0.4055618 α      lambda       -0.2062425E-03
   maximum displ.:     0.2629577 α      in ANC's #9, #7, #11, ...

........................................................................
.............................. CYCLE   30 ..............................
........................................................................

 iter      E             dE          RMSdq      gap      omega  full diag
   1   -100.7301641 -0.100730E+03  0.636E-02    0.74       0.0  T
   2   -100.7301611  0.294049E-05  0.378E-02    0.73       1.0  T
   3   -100.7299991  0.161991E-03  0.385E-02    0.77       1.0  T
   4   -100.7301657 -0.166583E-03  0.512E-03    0.73       2.3  T
   5   -100.7301676 -0.193959E-05  0.227E-03    0.73       5.2  T
   6   -100.7301678 -0.172781E-06  0.118E-03    0.73      10.0  T
   7   -100.7301679 -0.676863E-07  0.366E-04    0.73      32.2  T
   8   -100.7301679 -0.759630E-08  0.122E-04    0.73      96.8  T
     SCC iter.                  ...        0 min,  0.065 sec
     gradient                   ...        0 min,  0.068 sec
 * total energy  :   -99.3272758 Eh     change       -0.1512460E-03 Eh
   gradient norm :     0.0036311 Eh/α   predicted    -0.1200828E-03 ( -20.60%)
   displ. norm   :     0.3424779 α      lambda       -0.1353250E-03
   maximum displ.:     0.2096844 α      in ANC's #9, #7, #8, ...

........................................................................
.............................. CYCLE   31 ..............................
........................................................................

 iter      E             dE          RMSdq      gap      omega  full diag
   1   -100.7296201 -0.100730E+03  0.538E-02    0.73       0.0  T
   2   -100.7296196  0.526247E-06  0.317E-02    0.73       1.0  T
   3   -100.7295567  0.628556E-04  0.255E-02    0.74       1.0  T
   4   -100.7296210 -0.642468E-04  0.424E-03    0.73       2.8  T
   5   -100.7296224 -0.139185E-05  0.251E-03    0.73       4.7  T
   6   -100.7296228 -0.400420E-06  0.930E-04    0.73      12.7  T
   7   -100.7296228 -0.301649E-07  0.375E-04    0.73      31.5  T
     SCC iter.                  ...        0 min,  0.057 sec
     gradient                   ...        0 min,  0.068 sec
 * total energy  :   -99.3273659 Eh     change       -0.9006198E-04 Eh
   gradient norm :     0.0029627 Eh/α   predicted    -0.7559964E-04 ( -16.06%)
   displ. norm   :     0.2639638 α      lambda       -0.1290053E-03
   maximum displ.:     0.1350879 α      in ANC's #7, #9, #8, ...

........................................................................
.............................. CYCLE   32 ..............................
........................................................................

 iter      E             dE          RMSdq      gap      omega  full diag
   1   -100.7335083 -0.100734E+03  0.446E-02    0.73       0.0  T
   2   -100.7335089 -0.631223E-06  0.263E-02    0.73       1.0  T
   3   -100.7334785  0.304536E-04  0.212E-02    0.73       1.0  T
   4   -100.7335108 -0.323197E-04  0.317E-03    0.73       3.7  T
   5   -100.7335113 -0.457730E-06  0.157E-03    0.73       7.5  T
   6   -100.7335113 -0.377316E-07  0.124E-03    0.73       9.5  T
   7   -100.7335114 -0.110431E-06  0.532E-04    0.73      22.2  T
   8   -100.7335114 -0.205365E-07  0.154E-04    0.73      76.4  T
     SCC iter.                  ...        0 min,  0.066 sec
     gradient                   ...        0 min,  0.069 sec
 * total energy  :   -99.3274207 Eh     change       -0.5481475E-04 Eh
   gradient norm :     0.0049941 Eh/α   predicted    -0.6900482E-04 (  25.89%)
   displ. norm   :     0.1338044 α      lambda       -0.7225535E-04
   maximum displ.:     0.0738199 α      in ANC's #7, #8, #9, ...

........................................................................
.............................. CYCLE   33 ..............................
........................................................................

 iter      E             dE          RMSdq      gap      omega  full diag
   1   -100.7315402 -0.100732E+03  0.219E-02    0.73       0.0  T
   2   -100.7315403 -0.951273E-07  0.130E-02    0.73       1.0  T
   3   -100.7315307  0.954330E-05  0.101E-02    0.73       1.2  T
   4   -100.7315408 -0.101185E-04  0.175E-03    0.73       6.7  T
   5   -100.7315410 -0.113404E-06  0.112E-03    0.73      10.5  T
   6   -100.7315410 -0.845532E-07  0.538E-04    0.73      21.9  T
   7   -100.7315411 -0.131368E-07  0.288E-04    0.73      40.9  T
     SCC iter.                  ...        0 min,  0.057 sec
     gradient                   ...        0 min,  0.069 sec
 * total energy  :   -99.3274721 Eh     change       -0.5140775E-04 Eh
   gradient norm :     0.0028703 Eh/α   predicted    -0.3677747E-04 ( -28.46%)
   displ. norm   :     0.1328347 α      lambda       -0.7840140E-04
   maximum displ.:     0.0683144 α      in ANC's #8, #7, #13, ...

........................................................................
.............................. CYCLE   34 ..............................
........................................................................

 iter      E             dE          RMSdq      gap      omega  full diag
   1   -100.7306597 -0.100731E+03  0.265E-02    0.73       0.0  T
   2   -100.7306595  0.242455E-06  0.157E-02    0.73       1.0  T
   3   -100.7306356  0.239198E-04  0.148E-02    0.71       1.0  T
   4   -100.7306599 -0.243237E-04  0.290E-03    0.73       4.1  T
   5   -100.7306606 -0.658339E-06  0.102E-03    0.73      11.6  T
   6   -100.7306606 -0.635477E-07  0.500E-04    0.73      23.6  T
   7   -100.7306606 -0.112991E-07  0.271E-04    0.73      43.4  T
     SCC iter.                  ...        0 min,  0.057 sec
     gradient                   ...        0 min,  0.072 sec
 * total energy  :   -99.3275256 Eh     change       -0.5351544E-04 Eh
   gradient norm :     0.0025270 Eh/α   predicted    -0.3989347E-04 ( -25.45%)
   displ. norm   :     0.1987529 α      lambda       -0.8241560E-04
   maximum displ.:     0.0998977 α      in ANC's #8, #7, #13, ...

........................................................................
.............................. CYCLE   35 ..............................
........................................................................

 iter      E             dE          RMSdq      gap      omega  full diag
   1   -100.7291473 -0.100729E+03  0.380E-02    0.73       0.0  T
   2   -100.7291473 -0.825330E-07  0.224E-02    0.73       1.0  T
   3   -100.7291210  0.263163E-04  0.147E-02    0.71       1.0  T
   4   -100.7291470 -0.259381E-04  0.437E-03    0.73       2.7  T
   5   -100.7291486 -0.165386E-05  0.130E-03    0.73       9.1  T
   6   -100.7291487 -0.101734E-06  0.638E-04    0.73      18.5  T
   7   -100.7291487 -0.175084E-07  0.306E-04    0.73      38.5  T
     SCC iter.                  ...        0 min,  0.057 sec
     gradient                   ...        0 min,  0.069 sec
 * total energy  :   -99.3275787 Eh     change       -0.5309887E-04 Eh
   gradient norm :     0.0033903 Eh/α   predicted    -0.4283796E-04 ( -19.32%)
   displ. norm   :     0.1875134 α      lambda       -0.6566462E-04
   maximum displ.:     0.0903912 α      in ANC's #8, #7, #13, ...

........................................................................
.............................. CYCLE   36 ..............................
........................................................................

 iter      E             dE          RMSdq      gap      omega  full diag
   1   -100.7297921 -0.100730E+03  0.388E-02    0.73       0.0  T
   2   -100.7297927 -0.631750E-06  0.225E-02    0.73       1.0  T
   3   -100.7297906  0.212755E-05  0.472E-03    0.72       2.5  T
   4   -100.7297927 -0.210349E-05  0.198E-03    0.73       6.0  T
   5   -100.7297930 -0.227066E-06  0.124E-03    0.73       9.5  T
   6   -100.7297930 -0.676967E-07  0.680E-04    0.73      17.3  T
   7   -100.7297931 -0.327199E-07  0.275E-04    0.73      42.9  T
     SCC iter.                  ...        0 min,  0.057 sec
     gradient                   ...        0 min,  0.069 sec
 * total energy  :   -99.3276203 Eh     change       -0.4162874E-04 Eh
   gradient norm :     0.0030062 Eh/α   predicted    -0.3398968E-04 ( -18.35%)
   displ. norm   :     0.1555257 α      lambda       -0.5096785E-04
   maximum displ.:     0.0833167 α      in ANC's #7, #8, #2, ...

   *** GEOMETRY OPTIMIZATION CONVERGED AFTER 36 ITERATIONS ***

------------------------------------------------------------------------
 total energy gain   :        -0.6255422 Eh     -392.5337 kcal/mol
 total RMSD          :         0.9236703 a0        0.4888 Å
 total power (kW/mol):       -45.6211353 (step) -277.3479 (real)
------------------------------------------------------------------------

 ANCopt (total)                0 d,  0 h,  0 min,  5.922 sec
 optimizer setup                ...        0 min,  0.000 sec (  0.006%)
 model hessian                  ...        0 min,  0.105 sec (  1.780%)
 ANC generation                 ...        0 min,  0.013 sec (  0.219%)
 coordinate transformation      ...        0 min,  0.002 sec (  0.041%)
 single point calculation       ...        0 min,  5.757 sec ( 97.221%)
 optimization log               ...        0 min,  0.009 sec (  0.154%)
 hessian update                 ...        0 min,  0.002 sec (  0.041%)
 rational function              ...        0 min,  0.014 sec (  0.235%)

================
 final structure:
================
72
 xtb: 6.6.1 (8d0f1dd)
N           -2.13737395019954        2.97570655675188        2.40903302206967
C           -1.98522236680573        2.17857137519139        1.45903226993326
C           -3.00723305160151        1.93949657561432        0.38029706083792
C           -3.48283682723614        0.49712747645904        0.44141906577323
C           -4.31593652627323        0.00001537543638       -0.56310831734907
C           -4.79050009403836       -1.30093663451401       -0.53391988557181
O           -5.61650038319814       -1.84955723897329       -1.44777376076204
C           -6.18102730452368       -1.03111990367189       -2.44597833895013
C           -4.40132653899835       -2.16466794744781        0.52670167639824
O           -4.88863130890333       -3.41899779374597        0.46066965076020
C           -4.60621974068932       -4.32194026703845        1.50417198154327
C           -3.57985043845537       -1.66335788137613        1.52429085846550
C           -3.13487356350942       -0.34767937959520        1.48509127595703
C           -2.27962032928590        2.20807204001998       -0.96609815075158
C           -1.33575657902520        1.08795131491733       -1.43998823878715
C           -0.09982770317249        0.97161830632195       -0.62457834288938
N            0.44096219945395       -0.15961623247032       -0.18607451257816
C            1.58279160210818       -0.20491854686121        0.48759044159164
C            3.50141952972550       -0.43829102919963       -2.55637908368744
C            4.59449346186636       -0.18067884436489       -1.76336447461675
C            5.31051019192116        1.04503016254687       -1.86656428905192
C            6.42586684579386        1.28453303202732       -1.10696174245482
C            6.89768509753685        0.33050824889082       -0.19899496200447
O            7.98468637783549        0.45563908793435        0.57103704685064
C            8.76463184890247        1.62773420061911        0.49866549975415
C            6.18593224172069       -0.90500937722747       -0.05699114700461
O            6.71658762079211       -1.75129539972023        0.85029704104636
C            6.13654476394670       -3.02214014230099        1.02399035868618
C            5.06859584347535       -1.13773698331595       -0.81734495180884
C           -0.24905962028934       -1.41672433606625       -0.42552024749051
C           -4.25193361012510        2.86844544413641        0.50020966558649
C           -5.03087888477616        2.59656182041858        1.78480387646417
C           -3.90830292640996        4.35250878309915        0.40873430292028
H           -4.60720920851541        0.64632752106019       -1.37452592779081
H           -6.72830372829887       -0.18987506355746       -2.00992413512470
H           -6.87507326081229       -1.66987634204551       -2.98901711582461
H           -5.42037368917014       -0.65570466878913       -3.13838434649819
H           -4.97854623957282       -3.95409275883398        2.46489615680470
H           -5.12721643956110       -5.24104567817932        1.24327759479018
H           -3.53284874802530       -4.52382928174669        1.58113130012875
H           -3.28899175768625       -2.28699755119334        2.35411262299186
H           -2.52588728098989        0.01370822620997        2.29901823344156
H           -3.03156383476777        2.35994115657051       -1.74035122576016
H           -1.71023031504529        3.13380324409563       -0.87446862690751
H           -1.88541747242882        0.14966539748378       -1.47872816246808
H           -1.04468110254550        1.34359637410794       -2.46732866534123
H           -1.06062806540261        1.60308632955796        1.28506564276697
H            0.48318737294069        1.86757503815043       -0.47475046892880
H            1.96691573062750       -1.13964485948725        0.83624675984598
H            2.13380446611972        0.69864541002433        0.66280074538278
H            3.17584505843310        0.26750652295818       -3.29961175514061
H            2.96986277036553       -1.37040197117951       -2.48947383472410
H            4.96454109594943        1.78981330428927       -2.56725041933526
H            6.95111888002827        2.21892259780217       -1.22169398970799
H            8.18432938974827        2.51180835785426        0.77587172223830
H            9.18559020212447        1.76613265840407       -0.50136573257467
H            9.57236348221446        1.48590157029620        1.21339737280724
H            6.73947419995716       -3.51796139774265        1.78397712999461
H            5.10159936680571       -2.94637436312684        1.37568574798158
H            6.16791761026213       -3.60490389044750        0.09790269054883
H            4.53107874996215       -2.06858967580926       -0.73269023468985
H           -0.34779687649383       -1.58990441046011       -1.49644379867332
H           -1.24170249216192       -1.39849017954501        0.02819863441129
H            0.31980074953423       -2.23421057594702        0.01034759202241
H           -4.90494856319896        2.62295191525219       -0.34535152148646
H           -4.43077530991227        2.86664841198683        2.64809538635087
H           -5.30917808500365        1.54800838253040        1.86213237244073
H           -5.93901369010945        3.19383369518735        1.79430218332766
H           -3.23767116209457        4.63449771909580        1.21455630154734
H           -3.45048620894074        4.60497449257679       -0.54386191900715
H           -4.82051312867098        4.93577517988659        0.50545347995996
H           -1.36965274623333        3.08806682273139        3.06362240391837

 Bond Distances (Angstroems)
 ---------------------------
N1-C2=1.2494         N1-H72=1.0151        C2-N1=1.2494         C2-C3=1.5051         C2-H47=1.1029        C3-C2=1.5051         
C3-C4=1.5200         C3-C14=1.5538        C3-C31=1.5578        C4-C3=1.5200         C4-C5=1.3965         C4-C13=1.3871        
C5-C4=1.3965         C5-C6=1.3851         C5-H34=1.0775        C6-C5=1.3851         C6-O7=1.3485         C6-C9=1.4221         
O7-C6=1.3485         O7-C8=1.4089         C8-O7=1.4089         C8-H35=1.0942        C8-H36=1.0884        C8-H37=1.0950        
C9-C6=1.4221         C9-O10=1.3473        C9-C12=1.3861        O10-C9=1.3473        O10-C11=1.4085       C11-O10=1.4085       
C11-H38=1.0940       C11-H39=1.0882       C11-H40=1.0949       C12-C9=1.3861        C12-C13=1.3894       C12-H41=1.0780       
C13-C4=1.3871        C13-C12=1.3894       C13-H42=1.0789       C14-C3=1.5538        C14-C15=1.5395       C14-H43=1.0899       
C14-H44=1.0907       C15-C14=1.5395       C15-C16=1.4852       C15-H45=1.0881       C15-H46=1.0980       C16-C15=1.4852       
C16-N17=1.3283       C16-H48=1.0794       N17-C16=1.3283       N17-C18=1.3265       N17-C30=1.4539       C18-N17=1.3265       
C18-H49=1.0690       C18-H50=1.0727       C19-C20=1.3748       C19-H51=1.0754       C19-H52=1.0751       C20-C19=1.3748       
C20-C21=1.4233       C20-C29=1.4268       C21-C20=1.4233       C21-C22=1.3705       C21-H53=1.0795       C22-C21=1.3705       
C22-C23=1.3990       C22-H54=1.0780       C23-C22=1.3990       C23-O24=1.3380       C23-C26=1.4329       O24-C23=1.3380       
O24-C25=1.4097       C25-O24=1.4097       C25-H55=1.0932       C25-H56=1.0938       C25-H57=1.0878       C26-C23=1.4329       
C26-O27=1.3494       C26-C29=1.3714       O27-C26=1.3494       O27-C28=1.4077       C28-O27=1.4077       C28-H58=1.0895       
C28-H59=1.0957       C28-H60=1.0946       C29-C20=1.4268       C29-C26=1.3714       C29-H61=1.0782       C30-N17=1.4539       
C30-H62=1.0893       C30-H63=1.0916       C30-H64=1.0871       C31-C3=1.5578        C31-C32=1.5267       C31-C33=1.5261       
C31-H65=1.0962       C32-C31=1.5267       C32-H66=1.0855       C32-H67=1.0876       C32-H68=1.0870       C33-C31=1.5261       
C33-H69=1.0856       C33-H70=1.0866       C33-H71=1.0871       H34-C5=1.0775        H35-C8=1.0942        H36-C8=1.0884        
H37-C8=1.0950        H38-C11=1.0940       H39-C11=1.0882       H40-C11=1.0949       H41-C12=1.0780       H42-C13=1.0789       
H43-C14=1.0899       H44-C14=1.0907       H45-C15=1.0881       H46-C15=1.0980       H47-C2=1.1029        H48-C16=1.0794       
H49-C18=1.0690       H50-C18=1.0727       H51-C19=1.0754       H52-C19=1.0751       H53-C21=1.0795       H54-C22=1.0780       
H55-C25=1.0932       H56-C25=1.0938       H57-C25=1.0878       H58-C28=1.0895       H59-C28=1.0957       H60-C28=1.0946       
H61-C29=1.0782       H62-C30=1.0893       H63-C30=1.0916       H64-C30=1.0871       H65-C31=1.0962       H66-C32=1.0855       
H67-C32=1.0876       H68-C32=1.0870       H69-C33=1.0856       H70-C33=1.0866       H71-C33=1.0871       H72-N1=1.0151        
 C  H  Rav=1.0870 sigma=0.0077  Rmin=1.0690  Rmax=1.1029    38
 C  C  Rav=1.4466 sigma=0.0665  Rmin=1.3705  Rmax=1.5578    21
 N  H  Rav=1.0151 sigma=0.0000  Rmin=1.0151  Rmax=1.0151     1
 N  C  Rav=1.3395 sigma=0.0733  Rmin=1.2494  Rmax=1.4539     4
 O  C  Rav=1.3773 sigma=0.0316  Rmin=1.3380  Rmax=1.4097     8

 selected bond angles (degree)
 --------------------
H72-N1-C2=117.96               C3-C2-N1=124.31                H47-C2-N1=123.71               H47-C2-C3=111.92               
C4-C3-C2=109.53                C14-C3-C2=106.00               C14-C3-C4=110.21               C31-C3-C2=113.12               
C31-C3-C4=108.23               C31-C3-C14=109.74              C5-C4-C3=119.70                C13-C4-C3=121.99               
C13-C4-C5=118.30               C6-C5-C4=121.57                H34-C5-C4=119.30               H34-C5-C6=119.12               
O7-C6-C5=125.29                C9-C6-C5=119.50                C9-C6-O7=115.21                C8-O7-C6=119.29                
H35-C8-O7=111.39               H36-C8-O7=105.55               H36-C8-H35=109.33              H37-C8-O7=111.64               
H37-C8-H35=109.62              H37-C8-H36=109.19              O10-C9-C6=115.46               C12-C9-C6=118.64               
C12-C9-O10=125.90              C11-O10-C9=119.21              

 selected dihedral angles (degree)
 ---------------------------------
C3-C2-N1-H72=182.31           H47-C2-N1-H72=359.10          C4-C3-C2-N1=243.42            C4-C3-C2-H47= 66.31           
C14-C3-C2-N1=124.54           C14-C3-C2-H47=307.43          C31-C3-C2-N1=  4.24           C31-C3-C2-H47=187.13          
C5-C4-C3-C2=187.56            C5-C4-C3-C14=303.81           C5-C4-C3-C31= 63.82           C13-C4-C3-C2=  8.78           
C13-C4-C3-C14=125.02          C13-C4-C3-C31=245.03          C6-C5-C4-C3=181.12            C6-C5-C4-C13=359.95           
H34-C5-C4-C3=  0.35           H34-C5-C4-C13=179.18          O7-C6-C5-C4=178.68            O7-C6-C5-H34=359.45           
C9-C6-C5-C4=358.66            C9-C6-C5-H34=179.42           C8-O7-C6-C5=352.57            C8-O7-C6-C9=172.60            
H35-C8-O7-C6=304.07           H36-C8-O7-C6=185.51           H37-C8-O7-C6= 66.99           O10-C9-C6-C5=181.26           
O10-C9-C6-O7=  1.24           C12-C9-C6-C5=  1.63           C12-C9-C6-O7=181.61           C11-O10-C9-C6=183.05          
C11-O10-C9-C12=  2.66         
           -------------------------------------------------
          |                Final Singlepoint                |
           -------------------------------------------------

          ...................................................
          :                      SETUP                      :
          :.................................................:
          :  # basis functions                 171          :
          :  # atomic orbitals                 171          :
          :  # shells                          105          :
          :  # electrons                       180          :
          :  max. iterations                   250          :
          :  Hamiltonian                  GFN2-xTB          :
          :  restarted?                      false          :
          :  GBSA solvation                  false          :
          :  PC potential                    false          :
          :  electronic temp.         5000.0000000     K    :
          :  accuracy                    1.0000000          :
          :  -> integral cutoff          0.2500000E+02      :
          :  -> integral neglect         0.1000000E-07      :
          :  -> SCF convergence          0.1000000E-05 Eh   :
          :  -> wf. convergence          0.1000000E-03 e    :
          :  Broyden damping             0.4000000          :
          ...................................................

 iter      E             dE          RMSdq      gap      omega  full diag
   1   -100.7297931 -0.100730E+03  0.969E-05    0.73       0.0  T
   2   -100.7297931  0.109955E-08  0.135E-04    0.73      87.6  T
   3   -100.7297931 -0.177523E-08  0.328E-05    0.73     359.5  T

   *** convergence criteria satisfied after 3 iterations ***

         #    Occupation            Energy/Eh            Energy/eV
      -------------------------------------------------------------
         1        2.0000           -0.8162502             -22.2113
       ...           ...                  ...                  ...
        84        1.9921           -0.5084053             -13.8344
        85        1.9884           -0.5022591             -13.6672
        86        1.9767           -0.4911490             -13.3648
        87        1.9297           -0.4732783             -12.8786
        88        1.9183           -0.4707979             -12.8111
        89        1.8498           -0.4605863             -12.5332
        90        1.5589           -0.4408184             -11.9953 (HOMO)
        91        0.7902           -0.4140865             -11.2679 (LUMO)
        92        0.0138           -0.3421007              -9.3090
        93        0.0090           -0.3352660              -9.1231
        94        0.0030           -0.3176533              -8.6438
        95        0.0024           -0.3145771              -8.5601
       ...           ...                  ...                  ...
       171                          0.5879231              15.9982
      -------------------------------------------------------------
                  HL-Gap            0.0267320 Eh            0.7274 eV
             Fermi-level           -0.4208291 Eh          -11.4513 eV

 SCC (total)                   0 d,  0 h,  0 min,  0.117 sec
 SCC setup                      ...        0 min,  0.001 sec (  0.743%)
 Dispersion                     ...        0 min,  0.002 sec (  1.330%)
 classical contributions        ...        0 min,  0.000 sec (  0.374%)
 integral evaluation            ...        0 min,  0.018 sec ( 15.163%)
 iterations                     ...        0 min,  0.026 sec ( 22.512%)
 molecular gradient             ...        0 min,  0.070 sec ( 59.330%)
 printout                       ...        0 min,  0.001 sec (  0.533%)

         :::::::::::::::::::::::::::::::::::::::::::::::::::::
         ::                     SUMMARY                     ::
         :::::::::::::::::::::::::::::::::::::::::::::::::::::
         :: total energy             -99.327620330660 Eh    ::
         :: gradient norm              0.003006776009 Eh/a0 ::
         :: HOMO-LUMO gap              0.727413672861 eV    ::
         ::.................................................::
         :: SCC energy              -100.729793061692 Eh    ::
         :: -> isotropic ES            0.104843948078 Eh    ::
         :: -> anisotropic ES          0.004945239948 Eh    ::
         :: -> anisotropic XC          0.048223451957 Eh    ::
         :: -> dispersion             -0.073459267290 Eh    ::
         :: repulsion energy           1.400382587352 Eh    ::
         :: add. restraining           0.000003321171 Eh    ::
         :: total charge               1.000000000000 e     ::
         :::::::::::::::::::::::::::::::::::::::::::::::::::::

           -------------------------------------------------
          |                Property Printout                |
           -------------------------------------------------

    * Orbital Energies and Occupations

         #    Occupation            Energy/Eh            Energy/eV
      -------------------------------------------------------------
         1        2.0000           -0.8162502             -22.2113
       ...           ...                  ...                  ...
        78        1.9977           -0.5278499             -14.3635
        79        1.9976           -0.5271552             -14.3446
        80        1.9968           -0.5225276             -14.2187
        81        1.9963           -0.5204851             -14.1631
        82        1.9944           -0.5138671             -13.9830
        83        1.9936           -0.5116866             -13.9237
        84        1.9921           -0.5084053             -13.8344
        85        1.9884           -0.5022591             -13.6672
        86        1.9767           -0.4911490             -13.3648
        87        1.9297           -0.4732783             -12.8786
        88        1.9183           -0.4707979             -12.8111
        89        1.8498           -0.4605863             -12.5332
        90        1.5589           -0.4408184             -11.9953 (HOMO)
        91        0.7902           -0.4140865             -11.2679 (LUMO)
        92        0.0138           -0.3421007              -9.3090
        93        0.0090           -0.3352660              -9.1231
        94        0.0030           -0.3176533              -8.6438
        95        0.0024           -0.3145771              -8.5601
        96        0.0020           -0.3112814              -8.4704
        97        0.0004           -0.2874815              -7.8228
        98        0.0000           -0.1922414              -5.2312
        99        0.0000           -0.1803348              -4.9072
       100                         -0.1037549              -2.8233
       101                         -0.0668462              -1.8190
       ...                                ...                  ...
       171                          0.5879231              15.9982
      -------------------------------------------------------------
                  HL-Gap            0.0267320 Eh            0.7274 eV
             Fermi-level           -0.4208291 Eh          -11.4513 eV

     #   Z          covCN         q      C6AA      α(0)
     1   7 N        1.774    -0.264    27.684     7.791
     2   6 C        2.827     0.101    25.754     8.316
     3   6 C        3.907     0.007    20.404     6.421
     4   6 C        2.974     0.005    27.903     8.665
     5   6 C        2.920    -0.078    29.960     8.976
     6   6 C        2.862     0.130    25.155     8.221
     7   8 O        1.706    -0.229    17.790     5.695
     8   6 C        3.644     0.027    20.460     6.501
     9   6 C        2.864     0.129    25.180     8.225
    10   8 O        1.706    -0.227    17.759     5.690
    11   6 C        3.645     0.026    20.467     6.502
    12   6 C        2.913    -0.075    29.859     8.960
    13   6 C        2.921    -0.052    29.296     8.876
    14   6 C        3.811    -0.064    21.725     6.634
    15   6 C        3.801    -0.067    21.776     6.644
    16   6 C        2.869    -0.041    29.004     8.828
    17   7 N        2.729     0.101    19.504     6.559
    18   6 C        2.822    -0.106    30.662     9.073
    19   6 C        2.852    -0.095    30.379     9.034
    20   6 C        2.959     0.023    27.498     8.601
    21   6 C        2.921    -0.037    28.931     8.820
    22   6 C        2.907    -0.062    29.552     8.914
    23   6 C        2.864     0.141    24.934     8.185
    24   8 O        1.706    -0.204    17.390     5.630
    25   6 C        3.645     0.022    20.546     6.515
    26   6 C        2.856     0.135    25.048     8.203
    27   8 O        1.706    -0.231    17.825     5.700
    28   6 C        3.645     0.028    20.446     6.499
    29   6 C        2.918    -0.079    29.975     8.978
    30   6 C        3.719    -0.077    22.098     6.714
    31   6 C        3.853    -0.008    20.676     6.467
    32   6 C        3.756    -0.118    22.811     6.810
    33   6 C        3.755    -0.119    22.837     6.814
    34   1 H        0.926     0.054     2.269     2.355
    35   1 H        0.924     0.055     2.261     2.351
    36   1 H        0.925     0.082     1.960     2.189
    37   1 H        0.924     0.049     2.329     2.386
    38   1 H        0.924     0.056     2.243     2.342
    39   1 H        0.925     0.082     1.959     2.189
    40   1 H        0.924     0.049     2.335     2.389
    41   1 H        0.926     0.053     2.281     2.362
    42   1 H        0.926     0.041     2.431     2.438
    43   1 H        0.925     0.057     2.236     2.338
    44   1 H        0.924     0.053     2.286     2.364
    45   1 H        0.925     0.057     2.236     2.338
    46   1 H        0.923     0.066     2.128     2.281
    47   1 H        0.923     0.016     2.789     2.612
    48   1 H        0.926     0.057     2.234     2.338
    49   1 H        0.927     0.060     2.199     2.319
    50   1 H        0.926     0.058     2.227     2.333
    51   1 H        0.926     0.052     2.296     2.370
    52   1 H        0.926     0.046     2.375     2.410
    53   1 H        0.926     0.058     2.221     2.331
    54   1 H        0.926     0.060     2.195     2.317
    55   1 H        0.924     0.059     2.205     2.322
    56   1 H        0.924     0.062     2.173     2.305
    57   1 H        0.925     0.086     1.915     2.164
    58   1 H        0.925     0.081     1.964     2.191
    59   1 H        0.924     0.046     2.371     2.408
    60   1 H        0.924     0.054     2.267     2.354
    61   1 H        0.926     0.052     2.294     2.369
    62   1 H        0.925     0.082     1.954     2.186
    63   1 H        0.924     0.083     1.945     2.181
    64   1 H        0.925     0.084     1.942     2.179
    65   1 H        0.924     0.038     2.477     2.461
    66   1 H        0.925     0.069     2.096     2.264
    67   1 H        0.925     0.035     2.520     2.483
    68   1 H        0.925     0.051     2.304     2.374
    69   1 H        0.925     0.063     2.159     2.298
    70   1 H        0.925     0.037     2.494     2.469
    71   1 H        0.925     0.054     2.267     2.354
    72   1 H        0.860     0.159     1.340     1.814

 Mol. C6AA /au·bohr⁶  :      48143.974369
 Mol. C8AA /au·bohr⁸  :    1099967.450776
 Mol. α(0) /au        :        338.995779


Wiberg/Mayer (AO) data.
largest (>0.10) Wiberg bond orders for each atom

 ---------------------------------------------------------------------------
     #   Z sym  total        # sym  WBO       # sym  WBO       # sym  WBO
 ---------------------------------------------------------------------------
     1   7 N    3.021 --     2 C    1.957    72 H    0.940
     2   6 C    3.932 --     1 N    1.957     3 C    0.993    47 H    0.909
     3   6 C    3.970 --     2 C    0.993     4 C    0.973    14 C    0.953
                            31 C    0.943
     4   6 C    3.944 --    13 C    1.410     5 C    1.369     3 C    0.973
     5   6 C    3.959 --     6 C    1.400     4 C    1.369    34 H    0.957
     6   6 C    3.901 --     5 C    1.400     9 C    1.219     7 O    1.101
     7   8 O    2.252 --     6 C    1.101     8 C    0.977
     8   6 C    3.930 --     7 O    0.977    36 H    0.976    35 H    0.974
                            37 H    0.973
     9   6 C    3.896 --    12 C    1.389     6 C    1.219    10 O    1.104
    10   8 O    2.251 --     9 C    1.104    11 C    0.977
    11   6 C    3.930 --    10 O    0.977    39 H    0.977    40 H    0.973
                            38 H    0.973
    12   6 C    3.960 --    13 C    1.404     9 C    1.389    41 H    0.963
    13   6 C    3.949 --     4 C    1.410    12 C    1.404    42 H    0.962
    14   6 C    3.974 --    15 C    0.985    44 H    0.972    43 H    0.969
                             3 C    0.953
    15   6 C    3.986 --    16 C    1.051    14 C    0.985    45 H    0.963
                            46 H    0.938
    16   6 C    3.671 --    17 N    1.349    15 C    1.051    48 H    0.960
                            18 C    0.214
    17   7 N    3.745 --    18 C    1.366    16 C    1.349    30 C    0.984
    18   6 C    3.595 --    17 N    1.366    49 H    0.975    50 H    0.974
                            16 C    0.214
    19   6 C    3.540 --    20 C    1.497    52 H    0.979    51 H    0.979
    20   6 C    3.979 --    19 C    1.497    21 C    1.208    29 C    1.200
    21   6 C    3.808 --    22 C    1.522    20 C    1.208    53 H    0.967
    22   6 C    3.969 --    21 C    1.522    23 C    1.316    54 H    0.961
    23   6 C    3.768 --    22 C    1.316    26 C    1.173    24 O    1.142
    24   8 O    2.257 --    23 C    1.142    25 C    0.972
    25   6 C    3.924 --    57 H    0.976    24 O    0.972    55 H    0.971
                            56 H    0.971
    26   6 C    3.914 --    29 C    1.483    23 C    1.173    27 O    1.097
    27   8 O    2.254 --    26 C    1.097    28 C    0.978
    28   6 C    3.932 --    27 O    0.978    58 H    0.977    59 H    0.974
                            60 H    0.973
    29   6 C    3.854 --    26 C    1.483    20 C    1.200    61 H    0.962
    30   6 C    3.955 --    17 N    0.984    64 H    0.977    62 H    0.970
                            63 H    0.962
    31   6 C    3.969 --    33 C    1.009    32 C    1.008    65 H    0.958
                             3 C    0.943
    32   6 C    3.975 --    31 C    1.008    67 H    0.981    68 H    0.981
                            66 H    0.972
    33   6 C    3.978 --    31 C    1.009    70 H    0.982    71 H    0.979
                            69 H    0.974
    34   1 H    0.996 --     5 C    0.957
    35   1 H    0.993 --     8 C    0.974
    36   1 H    0.992 --     8 C    0.976
    37   1 H    0.993 --     8 C    0.973
    38   1 H    0.992 --    11 C    0.973
    39   1 H    0.993 --    11 C    0.977
    40   1 H    0.993 --    11 C    0.973
    41   1 H    0.995 --    12 C    0.963
    42   1 H    0.997 --    13 C    0.962
    43   1 H    0.995 --    14 C    0.969
    44   1 H    0.996 --    14 C    0.972
    45   1 H    0.996 --    15 C    0.963
    46   1 H    0.975 --    15 C    0.938
    47   1 H    0.978 --     2 C    0.909
    48   1 H    0.996 --    16 C    0.960
    49   1 H    0.996 --    18 C    0.975
    50   1 H    0.997 --    18 C    0.974
    51   1 H    0.996 --    19 C    0.979
    52   1 H    0.997 --    19 C    0.979
    53   1 H    0.996 --    21 C    0.967
    54   1 H    0.994 --    22 C    0.961
    55   1 H    0.989 --    25 C    0.971
    56   1 H    0.989 --    25 C    0.971
    57   1 H    0.992 --    25 C    0.976
    58   1 H    0.993 --    28 C    0.977
    59   1 H    0.994 --    28 C    0.974
    60   1 H    0.993 --    28 C    0.973
    61   1 H    0.996 --    29 C    0.962
    62   1 H    0.993 --    30 C    0.970
    63   1 H    0.993 --    30 C    0.962
    64   1 H    0.993 --    30 C    0.977
    65   1 H    0.990 --    31 C    0.958
    66   1 H    0.990 --    32 C    0.972
    67   1 H    0.996 --    32 C    0.981
    68   1 H    0.993 --    32 C    0.981
    69   1 H    0.991 --    33 C    0.974
    70   1 H    0.996 --    33 C    0.982
    71   1 H    0.993 --    33 C    0.979
    72   1 H    0.967 --     1 N    0.940
 ---------------------------------------------------------------------------

Topologies differ in total number of bonds
Writing topology from bond orders to xtbtopo.mol

molecular dipole:
                 x           y           z       tot (Debye)
 q only:        1.056      -0.133      -0.458
   full:        1.447      -0.240      -0.580       4.011
molecular quadrupole (traceless):
                xx          xy          yy          xz          yz          zz
 q only:       61.762       9.007     -20.110       4.140      -9.339     -41.651
  q+dip:       58.332      13.703     -20.580       6.141     -12.581     -37.752
   full:       58.390      12.781     -20.924       2.809     -12.324     -37.467

           -------------------------------------------------
          |                Geometry Summary                 |
           -------------------------------------------------

      molecular mass/u    :      455.6105846
   center of mass at/Å    :        0.0060409       0.0082411      -0.0059083
  moments of inertia/u·Å² :        0.2591085E+04   0.1109712E+05   0.1224274E+05
rotational constants/cm⁻¹ :        0.6506014E-02   0.1519100E-02   0.1376949E-02

 * 67 selected distances

     #   Z          #   Z                                           value/Å
     1   7 N        2   6 C                                       1.2494304
     4   6 C        5   6 C                                       1.3965139
     5   6 C        6   6 C                                       1.3851134
     6   6 C        7   8 O                                       1.3484770
     7   8 O        8   6 C                                       1.4088801
     6   6 C        9   6 C                                       1.4221133
     9   6 C       10   8 O                                       1.3472824
    10   8 O       11   6 C                                       1.4085308
     9   6 C       12   6 C                                       1.3861166
     4   6 C       13   6 C                                       1.3870938
    12   6 C       13   6 C                                       1.3894428
    14   6 C       15   6 C                                       1.5395199 (max)
    15   6 C       16   6 C                                       1.4852432
    16   6 C       17   7 N                                       1.3283190
    17   7 N       18   6 C                                       1.3265186
    19   6 C       20   6 C                                       1.3747899
    20   6 C       21   6 C                                       1.4232685
    21   6 C       22   6 C                                       1.3705395
    22   6 C       23   6 C                                       1.3989924
    23   6 C       24   8 O                                       1.3379758
    24   8 O       25   6 C                                       1.4097375
    23   6 C       26   6 C                                       1.4329206
    26   6 C       27   8 O                                       1.3494322
    27   8 O       28   6 C                                       1.4077165
    20   6 C       29   6 C                                       1.4267749
    26   6 C       29   6 C                                       1.3714011
    17   7 N       30   6 C                                       1.4538864
    31   6 C       32   6 C                                       1.5267152
    31   6 C       33   6 C                                       1.5260715
     5   6 C       34   1 H                                       1.0774776
     8   6 C       35   1 H                                       1.0942339
     8   6 C       36   1 H                                       1.0883937
     8   6 C       37   1 H                                       1.0949689
    11   6 C       38   1 H                                       1.0940429
    11   6 C       39   1 H                                       1.0882364
    11   6 C       40   1 H                                       1.0949006
    12   6 C       41   1 H                                       1.0780211
    13   6 C       42   1 H                                       1.0788617
    14   6 C       43   1 H                                       1.0899318
    14   6 C       44   1 H                                       1.0906784
    15   6 C       45   1 H                                       1.0881216
    15   6 C       46   1 H                                       1.0979562
     2   6 C       47   1 H                                       1.1028700
    16   6 C       48   1 H                                       1.0793950
    18   6 C       49   1 H                                       1.0690304 (min)
    18   6 C       50   1 H                                       1.0727264
    19   6 C       51   1 H                                       1.0754273
    19   6 C       52   1 H                                       1.0751093
    21   6 C       53   1 H                                       1.0795174
    22   6 C       54   1 H                                       1.0780247
    25   6 C       55   1 H                                       1.0932436
    25   6 C       56   1 H                                       1.0938111
    25   6 C       57   1 H                                       1.0878367
    28   6 C       58   1 H                                       1.0894690
    28   6 C       59   1 H                                       1.0956926
    28   6 C       60   1 H                                       1.0946399
    29   6 C       61   1 H                                       1.0782291
    30   6 C       62   1 H                                       1.0893199
    30   6 C       63   1 H                                       1.0915738
    30   6 C       64   1 H                                       1.0871370
    31   6 C       65   1 H                                       1.0962069
    32   6 C       66   1 H                                       1.0855153
    32   6 C       67   1 H                                       1.0876096
    32   6 C       68   1 H                                       1.0869834
    33   6 C       69   1 H                                       1.0856399
    33   6 C       70   1 H                                       1.0866346
    33   6 C       71   1 H                                       1.0870520

 * 4 distinct bonds (by element types)

   Z      Z             #   av. dist./Å        max./Å        min./Å
   1 H    6 C          38     1.0869611     1.1028700     1.0690304
   6 C    6 C          17     1.4260371     1.5395199     1.3705395
   6 C    7 N           4     1.3395386     1.4538864     1.2494304
   6 C    8 O           8     1.3772540     1.4097375     1.3379758


optimized geometry written to: xtbopt.xyz


           -------------------------------------------------
          | TOTAL ENERGY              -99.327620330660 Eh   |
          | GRADIENT NORM               0.003006776009 Eh/α |
          | HOMO-LUMO GAP               0.727413672861 eV   |
           -------------------------------------------------

------------------------------------------------------------------------
 * finished run on 2024/04/06 at 11:13:43.991     
------------------------------------------------------------------------
 total:
 * wall-time:     0 d,  0 h,  0 min,  6.278 sec
 *  cpu-time:     0 d,  0 h,  0 min,  6.256 sec
 * ratio c/w:     0.996 speedup
 SCF:
 * wall-time:     0 d,  0 h,  0 min,  0.191 sec
 *  cpu-time:     0 d,  0 h,  0 min,  0.191 sec
 * ratio c/w:     1.000 speedup
 ANC optimizer:
 * wall-time:     0 d,  0 h,  0 min,  6.044 sec
 *  cpu-time:     0 d,  0 h,  0 min,  6.040 sec
 * ratio c/w:     0.999 speedup

