      -----------------------------------------------------------      
     |                   =====================                   |     
     |                           x T B                           |     
     |                   =====================                   |     
     |                         S. Grimme                         |     
     |          Mulliken Center for Theoretical Chemistry        |     
     |                    University of Bonn                     |     
      -----------------------------------------------------------      

   * xtb version 6.6.1 (8d0f1dd) compiled by 'conda@1efc2f54142f' on 2023-08-01

   xtb is free software: you can redistribute it and/or modify it under
   the terms of the GNU Lesser General Public License as published by
   the Free Software Foundation, either version 3 of the License, or
   (at your option) any later version.
   
   xtb is distributed in the hope that it will be useful,
   but WITHOUT ANY WARRANTY; without even the implied warranty of
   MERCHANTABILITY or FITNESS FOR A PARTICULAR PURPOSE.  See the
   GNU Lesser General Public License for more details.
   
   Cite this work as:
   * C. Bannwarth, E. Caldeweyher, S. Ehlert, A. Hansen, P. Pracht,
     J. Seibert, S. Spicher, S. Grimme, WIREs Comput. Mol. Sci., 2020, 11,
     e01493. DOI: 10.1002/wcms.1493
   
   for GFN2-xTB:
   * C. Bannwarth, S. Ehlert and S. Grimme., J. Chem. Theory Comput., 2019,
     15, 1652-1671. DOI: 10.1021/acs.jctc.8b01176
   for GFN1-xTB:
   * S. Grimme, C. Bannwarth, P. Shushkov, J. Chem. Theory Comput., 2017,
     13, 1989-2009. DOI: 10.1021/acs.jctc.7b00118
   for GFN0-xTB:
   * P. Pracht, E. Caldeweyher, S. Ehlert, S. Grimme, ChemRxiv, 2019, preprint.
     DOI: 10.26434/chemrxiv.8326202.v1
   for GFN-FF:
   * S. Spicher and S. Grimme, Angew. Chem. Int. Ed., 2020, 59, 15665-15673.
     DOI: 10.1002/anie.202004239
   
   for ALPB and GBSA implicit solvation:
   * S. Ehlert, M. Stahn, S. Spicher, S. Grimme, J. Chem. Theory Comput.,
     2021, 17, 4250-4261. DOI: 10.1021/acs.jctc.1c00471
   
   for DFT-D4:
   * E. Caldeweyher, C. Bannwarth and S. Grimme, J. Chem. Phys., 2017,
     147, 034112. DOI: 10.1063/1.4993215
   * E. Caldeweyher, S. Ehlert, A. Hansen, H. Neugebauer, S. Spicher,
     C. Bannwarth and S. Grimme, J. Chem. Phys., 2019, 150, 154122.
     DOI: 10.1063/1.5090222
   * E. Caldeweyher, J.-M. Mewes, S. Ehlert and S. Grimme, Phys. Chem. Chem. Phys.
     2020, 22, 8499-8512. DOI: 10.1039/D0CP00502A
   
   for sTDA-xTB:
   * S. Grimme and C. Bannwarth, J. Chem. Phys., 2016, 145, 054103.
     DOI: 10.1063/1.4959605
   
   in the mass-spec context:
   * V. Asgeirsson, C. Bauer and S. Grimme, Chem. Sci., 2017, 8, 4879.
     DOI: 10.1039/c7sc00601b
   * J. Koopman and S. Grimme, ACS Omega 2019, 4, 12, 15120-15133.
     DOI: 10.1021/acsomega.9b02011
   
   for metadynamics refer to:
   * S. Grimme, J. Chem. Theory Comput., 2019, 155, 2847-2862
     DOI: 10.1021/acs.jctc.9b00143
   
   for SPH calculations refer to:
   * S. Spicher and S. Grimme, J. Chem. Theory Comput., 2021, 17, 1701-1714
     DOI: 10.1021/acs.jctc.0c01306
   
   with help from (in alphabetical order)
   P. Atkinson, C. Bannwarth, F. Bohle, G. Brandenburg, E. Caldeweyher
   M. Checinski, S. Dohm, S. Ehlert, S. Ehrlich, I. Gerasimov, C. Hölzer
   A. Katbashev, J. Koopman, C. Lavigne, S. Lehtola, F. März, M. Müller,
   F. Musil, H. Neugebauer, J. Pisarek, C. Plett, P. Pracht, F. Pultar,
   J. Seibert, P. Shushkov, S. Spicher, M. Stahn, M. Steiner, T. Strunk,
   J. Stückrath, T. Rose, and J. Unsleber
   
 * started run on 2024/04/06 at 11:13:44.010     

           -------------------------------------------------
          |                Calculation Setup                |
           -------------------------------------------------

          program call               : xtb xtbopt.xyz --opt crude --input .xc2 --gfn2
          hostname                   : n-62-30-23
          coordinate file            : xtbopt.xyz
          omp threads                :                     1

   ID    Z sym.   atoms
    1    7 N      1, 17
    2    6 C      2-6, 8, 9, 11-16, 18-23, 25, 26, 28-33
    3    8 O      7, 10, 24, 27
    4    1 H      34-72

molecular fragmentation (1/2 indicates fragments):
111111111111111111222222222221111111111111111111112222222222211111111111
# atoms in fragment 1/2:    50    22
 fragment masses (1/2) :      304.43      151.18
CMA distance (Bohr)    :  17.598
constraining FC (au)   :  0.0500
########################################################################
[WARNING] Please study the warnings concerning your input carefully
-1- readin_getIntValue: could not parse ''
########################################################################

           -------------------------------------------------
          |                 G F N 2 - x T B                 |
           -------------------------------------------------

        Reference                      10.1021/acs.jctc.8b01176
      * Hamiltonian:
        H0-scaling (s, p, d)           1.850000    2.230000    2.230000
        zeta-weighting                 0.500000
      * Dispersion:
        s8                             2.700000
        a1                             0.520000
        a2                             5.000000
        s9                             5.000000
      * Repulsion:
        kExp                           1.500000    1.000000
        rExp                           1.000000
      * Coulomb:
        alpha                          2.000000
        third order                    shell-resolved
        anisotropic                    true
        a3                             3.000000
        a5                             4.000000
        cn-shift                       1.200000
        cn-exp                         4.000000
        max-rad                        5.000000

q/qsh data taken from xtbrestart
CAMM data taken from xtbrestart

          ...................................................
          :                      SETUP                      :
          :.................................................:
          :  # basis functions                 171          :
          :  # atomic orbitals                 171          :
          :  # shells                          105          :
          :  # electrons                       180          :
          :  max. iterations                   250          :
          :  Hamiltonian                  GFN2-xTB          :
          :  restarted?                       true          :
          :  GBSA solvation                  false          :
          :  PC potential                    false          :
          :  electronic temp.         5000.0000000     K    :
          :  accuracy                    1.0000000          :
          :  -> integral cutoff          0.2500000E+02      :
          :  -> integral neglect         0.1000000E-07      :
          :  -> SCF convergence          0.1000000E-05 Eh   :
          :  -> wf. convergence          0.1000000E-03 e    :
          :  Broyden damping             0.4000000          :
          ...................................................

 iter      E             dE          RMSdq      gap      omega  full diag
   1   -100.7297931 -0.100730E+03  0.304E-05    0.73       0.0  T
   2   -100.7297931  0.201155E-09  0.528E-05    0.73     223.1  T
   3   -100.7297931 -0.262233E-09  0.991E-06    0.73    1189.0  T

   *** convergence criteria satisfied after 3 iterations ***

         #    Occupation            Energy/Eh            Energy/eV
      -------------------------------------------------------------
         1        2.0000           -0.8162503             -22.2113
       ...           ...                  ...                  ...
        84        1.9921           -0.5084052             -13.8344
        85        1.9884           -0.5022594             -13.6672
        86        1.9767           -0.4911488             -13.3648
        87        1.9297           -0.4732786             -12.8786
        88        1.9183           -0.4707977             -12.8111
        89        1.8498           -0.4605861             -12.5332
        90        1.5589           -0.4408180             -11.9953 (HOMO)
        91        0.7903           -0.4140869             -11.2679 (LUMO)
        92        0.0138           -0.3421003              -9.3090
        93        0.0090           -0.3352658              -9.1230
        94        0.0030           -0.3176531              -8.6438
        95        0.0024           -0.3145768              -8.5601
       ...           ...                  ...                  ...
       171                          0.5879228              15.9982
      -------------------------------------------------------------
                  HL-Gap            0.0267311 Eh            0.7274 eV
             Fermi-level           -0.4208291 Eh          -11.4513 eV

 SCC (total)                   0 d,  0 h,  0 min,  0.119 sec
 SCC setup                      ...        0 min,  0.001 sec (  0.848%)
 Dispersion                     ...        0 min,  0.002 sec (  1.481%)
 classical contributions        ...        0 min,  0.000 sec (  0.380%)
 integral evaluation            ...        0 min,  0.018 sec ( 15.378%)
 iterations                     ...        0 min,  0.028 sec ( 23.315%)
 molecular gradient             ...        0 min,  0.069 sec ( 58.032%)
 printout                       ...        0 min,  0.001 sec (  0.555%)

         :::::::::::::::::::::::::::::::::::::::::::::::::::::
         ::                     SUMMARY                     ::
         :::::::::::::::::::::::::::::::::::::::::::::::::::::
         :: total energy             -99.327623651879 Eh    ::
         :: gradient norm              0.003290778738 Eh/a0 ::
         :: HOMO-LUMO gap              0.727389818944 eV    ::
         ::.................................................::
         :: SCC energy              -100.729793061742 Eh    ::
         :: -> isotropic ES            0.104844281432 Eh    ::
         :: -> anisotropic ES          0.004945228125 Eh    ::
         :: -> anisotropic XC          0.048223415284 Eh    ::
         :: -> dispersion             -0.073459262307 Eh    ::
         :: repulsion energy           1.400382587352 Eh    ::
         :: add. restraining           0.000000000000 Eh    ::
         :: total charge               1.000000000000 e     ::
         :::::::::::::::::::::::::::::::::::::::::::::::::::::

      ----------------------------------------------------------- 
     |                   =====================                   |
     |                        A N C O P T                        |
     |                   =====================                   |
     |               Approximate Normal Coordinate               |
     |                Rational Function Optimizer                |
      ----------------------------------------------------------- 

          ...................................................
          :                      SETUP                      :
          :.................................................:
          :   optimization level             crude          :
          :   max. optcycles                   200          :
          :   ANC micro-cycles                  20          :
          :   degrees of freedom               210          :
          :.................................................:
          :   RF solver                   davidson          :
          :   write xtbopt.log                true          :
          :   linear?                        false          :
          :   energy convergence         0.5000000E-03 Eh   :
          :   grad. convergence          0.1000000E-01 Eh/α :
          :   maxmium RF displ.          1.0000000          :
          :   Hlow (freq-cutoff)         0.1000000E-01      :
          :   Hmax (freq-cutoff)         5.0000000          :
          :   S6 in model hess.         20.0000000          :
          ...................................................

generating ANC from model Hessian ...
Using Lindh-Hessian (1995)
 Shifting diagonal of input Hessian by    1.0051187962685629E-002
 Lowest  eigenvalues of input Hessian
    0.010000    0.010010    0.000000    0.000000    0.000000    0.000000
    0.000000    0.000000    0.010089    0.010103    0.010176    0.010228
    0.010309    0.010434    0.010556    0.010915    0.011075    0.011203
 Highest eigenvalues
    2.019786    2.040449    2.106943    2.180789    2.184115    2.196474


........................................................................
.............................. CYCLE    1 ..............................
........................................................................

 iter      E             dE          RMSdq      gap      omega  full diag
   1   -100.7297931 -0.100730E+03  0.947E-06    0.73       0.0  T
   2   -100.7297931  0.197531E-10  0.152E-05    0.73     777.8  T
   3   -100.7297931 -0.280238E-10  0.349E-06    0.73    3379.6  T
     SCC iter.                  ...        0 min,  0.026 sec
     gradient                   ...        0 min,  0.069 sec
 * total energy  :   -99.3276237 Eh     change       -0.2927436E-11 Eh
   gradient norm :     0.0032908 Eh/α   predicted     0.0000000E+00 (-100.00%)
   displ. norm   :     0.0714557 α      lambda       -0.9323428E-04
   maximum displ.:     0.0296856 α      in ANC's #8, #34, #11, ...

   *** GEOMETRY OPTIMIZATION CONVERGED AFTER 1 ITERATIONS ***

------------------------------------------------------------------------
 total energy gain   :        -0.0000000 Eh       -0.0000 kcal/mol
 total RMSD          :         0.0000000 a0        0.0000 Å
 total power (kW/mol):        -0.0000000 (step)   -0.0000 (real)
------------------------------------------------------------------------

 ANCopt (total)                0 d,  0 h,  0 min,  0.180 sec
 optimizer setup                ...        0 min,  0.000 sec (  0.166%)
 model hessian                  ...        0 min,  0.051 sec ( 28.621%)
 ANC generation                 ...        0 min,  0.006 sec (  3.597%)
 coordinate transformation      ...        0 min,  0.000 sec (  0.027%)
 single point calculation       ...        0 min,  0.119 sec ( 66.064%)
 optimization log               ...        0 min,  0.002 sec (  1.008%)
 hessian update                 ...        0 min,  0.000 sec (  0.001%)
 rational function              ...        0 min,  0.000 sec (  0.117%)

================
 final structure:
================
72
 xtb: 6.6.1 (8d0f1dd)
N           -2.13737395019954        2.97570655675188        2.40903302206967
C           -1.98522236680573        2.17857137519139        1.45903226993326
C           -3.00723305160151        1.93949657561432        0.38029706083792
C           -3.48283682723614        0.49712747645904        0.44141906577323
C           -4.31593652627323        0.00001537543638       -0.56310831734907
C           -4.79050009403836       -1.30093663451401       -0.53391988557181
O           -5.61650038319814       -1.84955723897329       -1.44777376076204
C           -6.18102730452368       -1.03111990367189       -2.44597833895013
C           -4.40132653899835       -2.16466794744781        0.52670167639824
O           -4.88863130890333       -3.41899779374597        0.46066965076020
C           -4.60621974068932       -4.32194026703845        1.50417198154327
C           -3.57985043845537       -1.66335788137613        1.52429085846550
C           -3.13487356350942       -0.34767937959520        1.48509127595703
C           -2.27962032928590        2.20807204001998       -0.96609815075158
C           -1.33575657902520        1.08795131491733       -1.43998823878715
C           -0.09982770317249        0.97161830632195       -0.62457834288938
N            0.44096219945395       -0.15961623247032       -0.18607451257816
C            1.58279160210818       -0.20491854686121        0.48759044159164
C            3.50141952972550       -0.43829102919963       -2.55637908368744
C            4.59449346186636       -0.18067884436489       -1.76336447461675
C            5.31051019192116        1.04503016254687       -1.86656428905192
C            6.42586684579386        1.28453303202732       -1.10696174245482
C            6.89768509753685        0.33050824889082       -0.19899496200447
O            7.98468637783549        0.45563908793435        0.57103704685064
C            8.76463184890247        1.62773420061911        0.49866549975415
C            6.18593224172069       -0.90500937722747       -0.05699114700461
O            6.71658762079211       -1.75129539972023        0.85029704104636
C            6.13654476394670       -3.02214014230099        1.02399035868618
C            5.06859584347535       -1.13773698331595       -0.81734495180884
C           -0.24905962028934       -1.41672433606625       -0.42552024749051
C           -4.25193361012510        2.86844544413641        0.50020966558649
C           -5.03087888477616        2.59656182041858        1.78480387646417
C           -3.90830292640996        4.35250878309915        0.40873430292028
H           -4.60720920851541        0.64632752106019       -1.37452592779081
H           -6.72830372829887       -0.18987506355746       -2.00992413512470
H           -6.87507326081229       -1.66987634204551       -2.98901711582461
H           -5.42037368917014       -0.65570466878913       -3.13838434649819
H           -4.97854623957282       -3.95409275883398        2.46489615680470
H           -5.12721643956110       -5.24104567817932        1.24327759479018
H           -3.53284874802530       -4.52382928174669        1.58113130012875
H           -3.28899175768625       -2.28699755119334        2.35411262299186
H           -2.52588728098989        0.01370822620997        2.29901823344156
H           -3.03156383476777        2.35994115657051       -1.74035122576016
H           -1.71023031504529        3.13380324409563       -0.87446862690751
H           -1.88541747242882        0.14966539748378       -1.47872816246808
H           -1.04468110254550        1.34359637410794       -2.46732866534123
H           -1.06062806540261        1.60308632955796        1.28506564276697
H            0.48318737294069        1.86757503815043       -0.47475046892880
H            1.96691573062750       -1.13964485948725        0.83624675984598
H            2.13380446611972        0.69864541002433        0.66280074538278
H            3.17584505843310        0.26750652295818       -3.29961175514061
H            2.96986277036553       -1.37040197117951       -2.48947383472410
H            4.96454109594943        1.78981330428927       -2.56725041933526
H            6.95111888002827        2.21892259780217       -1.22169398970799
H            8.18432938974827        2.51180835785426        0.77587172223830
H            9.18559020212447        1.76613265840407       -0.50136573257467
H            9.57236348221446        1.48590157029620        1.21339737280724
H            6.73947419995716       -3.51796139774265        1.78397712999461
H            5.10159936680571       -2.94637436312684        1.37568574798158
H            6.16791761026213       -3.60490389044750        0.09790269054883
H            4.53107874996215       -2.06858967580926       -0.73269023468985
H           -0.34779687649383       -1.58990441046011       -1.49644379867332
H           -1.24170249216192       -1.39849017954501        0.02819863441129
H            0.31980074953423       -2.23421057594702        0.01034759202241
H           -4.90494856319896        2.62295191525219       -0.34535152148646
H           -4.43077530991227        2.86664841198683        2.64809538635087
H           -5.30917808500365        1.54800838253040        1.86213237244073
H           -5.93901369010945        3.19383369518735        1.79430218332766
H           -3.23767116209457        4.63449771909580        1.21455630154734
H           -3.45048620894074        4.60497449257679       -0.54386191900715
H           -4.82051312867098        4.93577517988659        0.50545347995996
H           -1.36965274623333        3.08806682273139        3.06362240391837

 Bond Distances (Angstroems)
 ---------------------------
N1-C2=1.2494         N1-H72=1.0151        C2-N1=1.2494         C2-C3=1.5051         C2-H47=1.1029        C3-C2=1.5051         
C3-C4=1.5200         C3-C14=1.5538        C3-C31=1.5578        C4-C3=1.5200         C4-C5=1.3965         C4-C13=1.3871        
C5-C4=1.3965         C5-C6=1.3851         C5-H34=1.0775        C6-C5=1.3851         C6-O7=1.3485         C6-C9=1.4221         
O7-C6=1.3485         O7-C8=1.4089         C8-O7=1.4089         C8-H35=1.0942        C8-H36=1.0884        C8-H37=1.0950        
C9-C6=1.4221         C9-O10=1.3473        C9-C12=1.3861        O10-C9=1.3473        O10-C11=1.4085       C11-O10=1.4085       
C11-H38=1.0940       C11-H39=1.0882       C11-H40=1.0949       C12-C9=1.3861        C12-C13=1.3894       C12-H41=1.0780       
C13-C4=1.3871        C13-C12=1.3894       C13-H42=1.0789       C14-C3=1.5538        C14-C15=1.5395       C14-H43=1.0899       
C14-H44=1.0907       C15-C14=1.5395       C15-C16=1.4852       C15-H45=1.0881       C15-H46=1.0980       C16-C15=1.4852       
C16-N17=1.3283       C16-H48=1.0794       N17-C16=1.3283       N17-C18=1.3265       N17-C30=1.4539       C18-N17=1.3265       
C18-H49=1.0690       C18-H50=1.0727       C19-C20=1.3748       C19-H51=1.0754       C19-H52=1.0751       C20-C19=1.3748       
C20-C21=1.4233       C20-C29=1.4268       C21-C20=1.4233       C21-C22=1.3705       C21-H53=1.0795       C22-C21=1.3705       
C22-C23=1.3990       C22-H54=1.0780       C23-C22=1.3990       C23-O24=1.3380       C23-C26=1.4329       O24-C23=1.3380       
O24-C25=1.4097       C25-O24=1.4097       C25-H55=1.0932       C25-H56=1.0938       C25-H57=1.0878       C26-C23=1.4329       
C26-O27=1.3494       C26-C29=1.3714       O27-C26=1.3494       O27-C28=1.4077       C28-O27=1.4077       C28-H58=1.0895       
C28-H59=1.0957       C28-H60=1.0946       C29-C20=1.4268       C29-C26=1.3714       C29-H61=1.0782       C30-N17=1.4539       
C30-H62=1.0893       C30-H63=1.0916       C30-H64=1.0871       C31-C3=1.5578        C31-C32=1.5267       C31-C33=1.5261       
C31-H65=1.0962       C32-C31=1.5267       C32-H66=1.0855       C32-H67=1.0876       C32-H68=1.0870       C33-C31=1.5261       
C33-H69=1.0856       C33-H70=1.0866       C33-H71=1.0871       H34-C5=1.0775        H35-C8=1.0942        H36-C8=1.0884        
H37-C8=1.0950        H38-C11=1.0940       H39-C11=1.0882       H40-C11=1.0949       H41-C12=1.0780       H42-C13=1.0789       
H43-C14=1.0899       H44-C14=1.0907       H45-C15=1.0881       H46-C15=1.0980       H47-C2=1.1029        H48-C16=1.0794       
H49-C18=1.0690       H50-C18=1.0727       H51-C19=1.0754       H52-C19=1.0751       H53-C21=1.0795       H54-C22=1.0780       
H55-C25=1.0932       H56-C25=1.0938       H57-C25=1.0878       H58-C28=1.0895       H59-C28=1.0957       H60-C28=1.0946       
H61-C29=1.0782       H62-C30=1.0893       H63-C30=1.0916       H64-C30=1.0871       H65-C31=1.0962       H66-C32=1.0855       
H67-C32=1.0876       H68-C32=1.0870       H69-C33=1.0856       H70-C33=1.0866       H71-C33=1.0871       H72-N1=1.0151        
 C  H  Rav=1.0870 sigma=0.0077  Rmin=1.0690  Rmax=1.1029    38
 C  C  Rav=1.4466 sigma=0.0665  Rmin=1.3705  Rmax=1.5578    21
 N  H  Rav=1.0151 sigma=0.0000  Rmin=1.0151  Rmax=1.0151     1
 N  C  Rav=1.3395 sigma=0.0733  Rmin=1.2494  Rmax=1.4539     4
 O  C  Rav=1.3773 sigma=0.0316  Rmin=1.3380  Rmax=1.4097     8

 selected bond angles (degree)
 --------------------
H72-N1-C2=117.96               C3-C2-N1=124.31                H47-C2-N1=123.71               H47-C2-C3=111.92               
C4-C3-C2=109.53                C14-C3-C2=106.00               C14-C3-C4=110.21               C31-C3-C2=113.12               
C31-C3-C4=108.23               C31-C3-C14=109.74              C5-C4-C3=119.70                C13-C4-C3=121.99               
C13-C4-C5=118.30               C6-C5-C4=121.57                H34-C5-C4=119.30               H34-C5-C6=119.12               
O7-C6-C5=125.29                C9-C6-C5=119.50                C9-C6-O7=115.21                C8-O7-C6=119.29                
H35-C8-O7=111.39               H36-C8-O7=105.55               H36-C8-H35=109.33              H37-C8-O7=111.64               
H37-C8-H35=109.62              H37-C8-H36=109.19              O10-C9-C6=115.46               C12-C9-C6=118.64               
C12-C9-O10=125.90              C11-O10-C9=119.21              

 selected dihedral angles (degree)
 ---------------------------------
C3-C2-N1-H72=182.31           H47-C2-N1-H72=359.10          C4-C3-C2-N1=243.42            C4-C3-C2-H47= 66.31           
C14-C3-C2-N1=124.54           C14-C3-C2-H47=307.43          C31-C3-C2-N1=  4.24           C31-C3-C2-H47=187.13          
C5-C4-C3-C2=187.56            C5-C4-C3-C14=303.81           C5-C4-C3-C31= 63.82           C13-C4-C3-C2=  8.78           
C13-C4-C3-C14=125.02          C13-C4-C3-C31=245.03          C6-C5-C4-C3=181.12            C6-C5-C4-C13=359.95           
H34-C5-C4-C3=  0.35           H34-C5-C4-C13=179.18          O7-C6-C5-C4=178.68            O7-C6-C5-H34=359.45           
C9-C6-C5-C4=358.66            C9-C6-C5-H34=179.42           C8-O7-C6-C5=352.57            C8-O7-C6-C9=172.60            
H35-C8-O7-C6=304.07           H36-C8-O7-C6=185.51           H37-C8-O7-C6= 66.99           O10-C9-C6-C5=181.26           
O10-C9-C6-O7=  1.24           C12-C9-C6-C5=  1.63           C12-C9-C6-O7=181.61           C11-O10-C9-C6=183.05          
C11-O10-C9-C12=  2.66         

 CMA Distance (Angstroems)
 ---------------------------
R(CMA):  9.3125
           -------------------------------------------------
          |                Final Singlepoint                |
           -------------------------------------------------

          ...................................................
          :                      SETUP                      :
          :.................................................:
          :  # basis functions                 171          :
          :  # atomic orbitals                 171          :
          :  # shells                          105          :
          :  # electrons                       180          :
          :  max. iterations                   250          :
          :  Hamiltonian                  GFN2-xTB          :
          :  restarted?                      false          :
          :  GBSA solvation                  false          :
          :  PC potential                    false          :
          :  electronic temp.         5000.0000000     K    :
          :  accuracy                    1.0000000          :
          :  -> integral cutoff          0.2500000E+02      :
          :  -> integral neglect         0.1000000E-07      :
          :  -> SCF convergence          0.1000000E-05 Eh   :
          :  -> wf. convergence          0.1000000E-03 e    :
          :  Broyden damping             0.4000000          :
          ...................................................

 iter      E             dE          RMSdq      gap      omega  full diag
   1   -100.7297931 -0.100730E+03  0.226E-06    0.73       0.0  T
   2   -100.7297931 -0.568434E-13  0.282E-06    0.73    4175.3  T
   3   -100.7297931  0.113687E-12  0.116E-06    0.73   10174.5  T

   *** convergence criteria satisfied after 3 iterations ***

         #    Occupation            Energy/Eh            Energy/eV
      -------------------------------------------------------------
         1        2.0000           -0.8162502             -22.2113
       ...           ...                  ...                  ...
        84        1.9921           -0.5084053             -13.8344
        85        1.9884           -0.5022593             -13.6672
        86        1.9767           -0.4911489             -13.3648
        87        1.9297           -0.4732785             -12.8786
        88        1.9183           -0.4707978             -12.8111
        89        1.8498           -0.4605861             -12.5332
        90        1.5589           -0.4408181             -11.9953 (HOMO)
        91        0.7903           -0.4140868             -11.2679 (LUMO)
        92        0.0138           -0.3421004              -9.3090
        93        0.0090           -0.3352659              -9.1230
        94        0.0030           -0.3176531              -8.6438
        95        0.0024           -0.3145769              -8.5601
       ...           ...                  ...                  ...
       171                          0.5879229              15.9982
      -------------------------------------------------------------
                  HL-Gap            0.0267312 Eh            0.7274 eV
             Fermi-level           -0.4208291 Eh          -11.4513 eV

 SCC (total)                   0 d,  0 h,  0 min,  0.116 sec
 SCC setup                      ...        0 min,  0.001 sec (  0.773%)
 Dispersion                     ...        0 min,  0.002 sec (  1.358%)
 classical contributions        ...        0 min,  0.000 sec (  0.375%)
 integral evaluation            ...        0 min,  0.018 sec ( 15.210%)
 iterations                     ...        0 min,  0.026 sec ( 22.521%)
 molecular gradient             ...        0 min,  0.069 sec ( 59.273%)
 printout                       ...        0 min,  0.001 sec (  0.476%)

         :::::::::::::::::::::::::::::::::::::::::::::::::::::
         ::                     SUMMARY                     ::
         :::::::::::::::::::::::::::::::::::::::::::::::::::::
         :: total energy             -99.327623651883 Eh    ::
         :: gradient norm              0.003290795351 Eh/a0 ::
         :: HOMO-LUMO gap              0.727394159576 eV    ::
         ::.................................................::
         :: SCC energy              -100.729793061745 Eh    ::
         :: -> isotropic ES            0.104844248773 Eh    ::
         :: -> anisotropic ES          0.004945233409 Eh    ::
         :: -> anisotropic XC          0.048223423435 Eh    ::
         :: -> dispersion             -0.073459263811 Eh    ::
         :: repulsion energy           1.400382587352 Eh    ::
         :: add. restraining           0.000000000000 Eh    ::
         :: total charge               1.000000000000 e     ::
         :::::::::::::::::::::::::::::::::::::::::::::::::::::

           -------------------------------------------------
          |                Property Printout                |
           -------------------------------------------------

    * Orbital Energies and Occupations

         #    Occupation            Energy/Eh            Energy/eV
      -------------------------------------------------------------
         1        2.0000           -0.8162502             -22.2113
       ...           ...                  ...                  ...
        78        1.9977           -0.5278497             -14.3635
        79        1.9976           -0.5271552             -14.3446
        80        1.9968           -0.5225274             -14.2187
        81        1.9963           -0.5204852             -14.1631
        82        1.9944           -0.5138670             -13.9830
        83        1.9936           -0.5116865             -13.9237
        84        1.9921           -0.5084053             -13.8344
        85        1.9884           -0.5022593             -13.6672
        86        1.9767           -0.4911489             -13.3648
        87        1.9297           -0.4732785             -12.8786
        88        1.9183           -0.4707978             -12.8111
        89        1.8498           -0.4605861             -12.5332
        90        1.5589           -0.4408181             -11.9953 (HOMO)
        91        0.7903           -0.4140868             -11.2679 (LUMO)
        92        0.0138           -0.3421004              -9.3090
        93        0.0090           -0.3352659              -9.1230
        94        0.0030           -0.3176531              -8.6438
        95        0.0024           -0.3145769              -8.5601
        96        0.0020           -0.3112815              -8.4704
        97        0.0004           -0.2874817              -7.8228
        98        0.0000           -0.1922412              -5.2311
        99        0.0000           -0.1803350              -4.9072
       100                         -0.1037547              -2.8233
       101                         -0.0668462              -1.8190
       ...                                ...                  ...
       171                          0.5879229              15.9982
      -------------------------------------------------------------
                  HL-Gap            0.0267312 Eh            0.7274 eV
             Fermi-level           -0.4208291 Eh          -11.4513 eV

     #   Z          covCN         q      C6AA      α(0)
     1   7 N        1.774    -0.264    27.684     7.791
     2   6 C        2.827     0.101    25.754     8.316
     3   6 C        3.907     0.007    20.404     6.421
     4   6 C        2.974     0.005    27.903     8.665
     5   6 C        2.920    -0.078    29.960     8.976
     6   6 C        2.862     0.130    25.155     8.221
     7   8 O        1.706    -0.229    17.790     5.695
     8   6 C        3.644     0.027    20.460     6.501
     9   6 C        2.864     0.129    25.180     8.225
    10   8 O        1.706    -0.227    17.759     5.690
    11   6 C        3.645     0.026    20.467     6.502
    12   6 C        2.913    -0.075    29.859     8.960
    13   6 C        2.921    -0.052    29.296     8.876
    14   6 C        3.811    -0.064    21.725     6.634
    15   6 C        3.801    -0.067    21.776     6.644
    16   6 C        2.869    -0.041    29.004     8.828
    17   7 N        2.729     0.101    19.504     6.559
    18   6 C        2.822    -0.106    30.662     9.073
    19   6 C        2.852    -0.095    30.379     9.034
    20   6 C        2.959     0.023    27.498     8.601
    21   6 C        2.921    -0.037    28.931     8.820
    22   6 C        2.907    -0.062    29.552     8.914
    23   6 C        2.864     0.141    24.934     8.185
    24   8 O        1.706    -0.204    17.390     5.630
    25   6 C        3.645     0.022    20.546     6.515
    26   6 C        2.856     0.135    25.048     8.203
    27   8 O        1.706    -0.231    17.825     5.700
    28   6 C        3.645     0.028    20.446     6.499
    29   6 C        2.918    -0.079    29.975     8.978
    30   6 C        3.719    -0.077    22.098     6.714
    31   6 C        3.853    -0.008    20.676     6.467
    32   6 C        3.756    -0.118    22.811     6.810
    33   6 C        3.755    -0.119    22.837     6.814
    34   1 H        0.926     0.054     2.269     2.355
    35   1 H        0.924     0.055     2.261     2.351
    36   1 H        0.925     0.082     1.960     2.189
    37   1 H        0.924     0.049     2.329     2.386
    38   1 H        0.924     0.056     2.243     2.342
    39   1 H        0.925     0.082     1.959     2.189
    40   1 H        0.924     0.049     2.335     2.389
    41   1 H        0.926     0.053     2.281     2.362
    42   1 H        0.926     0.041     2.431     2.438
    43   1 H        0.925     0.057     2.236     2.338
    44   1 H        0.924     0.053     2.286     2.364
    45   1 H        0.925     0.057     2.236     2.338
    46   1 H        0.923     0.066     2.128     2.281
    47   1 H        0.923     0.016     2.789     2.612
    48   1 H        0.926     0.057     2.234     2.338
    49   1 H        0.927     0.060     2.199     2.319
    50   1 H        0.926     0.058     2.227     2.333
    51   1 H        0.926     0.052     2.296     2.370
    52   1 H        0.926     0.046     2.375     2.410
    53   1 H        0.926     0.058     2.221     2.331
    54   1 H        0.926     0.060     2.195     2.317
    55   1 H        0.924     0.059     2.205     2.322
    56   1 H        0.924     0.062     2.173     2.305
    57   1 H        0.925     0.086     1.915     2.164
    58   1 H        0.925     0.081     1.964     2.191
    59   1 H        0.924     0.046     2.371     2.408
    60   1 H        0.924     0.054     2.267     2.354
    61   1 H        0.926     0.052     2.294     2.369
    62   1 H        0.925     0.082     1.954     2.186
    63   1 H        0.924     0.083     1.945     2.181
    64   1 H        0.925     0.084     1.942     2.179
    65   1 H        0.924     0.038     2.477     2.461
    66   1 H        0.925     0.069     2.096     2.264
    67   1 H        0.925     0.035     2.520     2.483
    68   1 H        0.925     0.051     2.304     2.374
    69   1 H        0.925     0.063     2.159     2.298
    70   1 H        0.925     0.037     2.494     2.469
    71   1 H        0.925     0.054     2.267     2.354
    72   1 H        0.860     0.159     1.340     1.814

 Mol. C6AA /au·bohr⁶  :      48143.974019
 Mol. C8AA /au·bohr⁸  :    1099967.448249
 Mol. α(0) /au        :        338.995778


Wiberg/Mayer (AO) data.
largest (>0.10) Wiberg bond orders for each atom

 ---------------------------------------------------------------------------
     #   Z sym  total        # sym  WBO       # sym  WBO       # sym  WBO
 ---------------------------------------------------------------------------
     1   7 N    3.021 --     2 C    1.957    72 H    0.940
     2   6 C    3.932 --     1 N    1.957     3 C    0.993    47 H    0.909
     3   6 C    3.970 --     2 C    0.993     4 C    0.973    14 C    0.953
                            31 C    0.943
     4   6 C    3.944 --    13 C    1.410     5 C    1.369     3 C    0.973
     5   6 C    3.959 --     6 C    1.400     4 C    1.369    34 H    0.957
     6   6 C    3.901 --     5 C    1.400     9 C    1.219     7 O    1.101
     7   8 O    2.252 --     6 C    1.101     8 C    0.977
     8   6 C    3.930 --     7 O    0.977    36 H    0.976    35 H    0.974
                            37 H    0.973
     9   6 C    3.896 --    12 C    1.389     6 C    1.219    10 O    1.104
    10   8 O    2.251 --     9 C    1.104    11 C    0.977
    11   6 C    3.930 --    10 O    0.977    39 H    0.977    40 H    0.973
                            38 H    0.973
    12   6 C    3.960 --    13 C    1.404     9 C    1.389    41 H    0.963
    13   6 C    3.949 --     4 C    1.410    12 C    1.404    42 H    0.962
    14   6 C    3.974 --    15 C    0.985    44 H    0.972    43 H    0.969
                             3 C    0.953
    15   6 C    3.986 --    16 C    1.051    14 C    0.985    45 H    0.963
                            46 H    0.938
    16   6 C    3.671 --    17 N    1.349    15 C    1.051    48 H    0.960
                            18 C    0.214
    17   7 N    3.745 --    18 C    1.366    16 C    1.349    30 C    0.984
    18   6 C    3.595 --    17 N    1.366    49 H    0.975    50 H    0.974
                            16 C    0.214
    19   6 C    3.540 --    20 C    1.497    52 H    0.979    51 H    0.979
    20   6 C    3.979 --    19 C    1.497    21 C    1.208    29 C    1.200
    21   6 C    3.808 --    22 C    1.522    20 C    1.208    53 H    0.967
    22   6 C    3.969 --    21 C    1.522    23 C    1.316    54 H    0.961
    23   6 C    3.768 --    22 C    1.316    26 C    1.173    24 O    1.142
    24   8 O    2.257 --    23 C    1.142    25 C    0.972
    25   6 C    3.924 --    57 H    0.976    24 O    0.972    55 H    0.971
                            56 H    0.971
    26   6 C    3.914 --    29 C    1.483    23 C    1.173    27 O    1.097
    27   8 O    2.254 --    26 C    1.097    28 C    0.978
    28   6 C    3.932 --    27 O    0.978    58 H    0.977    59 H    0.974
                            60 H    0.973
    29   6 C    3.854 --    26 C    1.483    20 C    1.200    61 H    0.962
    30   6 C    3.955 --    17 N    0.984    64 H    0.977    62 H    0.970
                            63 H    0.962
    31   6 C    3.969 --    33 C    1.009    32 C    1.008    65 H    0.958
                             3 C    0.943
    32   6 C    3.975 --    31 C    1.008    67 H    0.981    68 H    0.981
                            66 H    0.972
    33   6 C    3.978 --    31 C    1.009    70 H    0.982    71 H    0.979
                            69 H    0.974
    34   1 H    0.996 --     5 C    0.957
    35   1 H    0.993 --     8 C    0.974
    36   1 H    0.992 --     8 C    0.976
    37   1 H    0.993 --     8 C    0.973
    38   1 H    0.992 --    11 C    0.973
    39   1 H    0.993 --    11 C    0.977
    40   1 H    0.993 --    11 C    0.973
    41   1 H    0.995 --    12 C    0.963
    42   1 H    0.997 --    13 C    0.962
    43   1 H    0.995 --    14 C    0.969
    44   1 H    0.996 --    14 C    0.972
    45   1 H    0.996 --    15 C    0.963
    46   1 H    0.975 --    15 C    0.938
    47   1 H    0.978 --     2 C    0.909
    48   1 H    0.996 --    16 C    0.960
    49   1 H    0.996 --    18 C    0.975
    50   1 H    0.997 --    18 C    0.974
    51   1 H    0.996 --    19 C    0.979
    52   1 H    0.997 --    19 C    0.979
    53   1 H    0.996 --    21 C    0.967
    54   1 H    0.994 --    22 C    0.961
    55   1 H    0.989 --    25 C    0.971
    56   1 H    0.989 --    25 C    0.971
    57   1 H    0.992 --    25 C    0.976
    58   1 H    0.993 --    28 C    0.977
    59   1 H    0.994 --    28 C    0.974
    60   1 H    0.993 --    28 C    0.973
    61   1 H    0.996 --    29 C    0.962
    62   1 H    0.993 --    30 C    0.970
    63   1 H    0.993 --    30 C    0.962
    64   1 H    0.993 --    30 C    0.977
    65   1 H    0.990 --    31 C    0.958
    66   1 H    0.990 --    32 C    0.972
    67   1 H    0.996 --    32 C    0.981
    68   1 H    0.993 --    32 C    0.981
    69   1 H    0.991 --    33 C    0.974
    70   1 H    0.996 --    33 C    0.982
    71   1 H    0.993 --    33 C    0.979
    72   1 H    0.967 --     1 N    0.940
 ---------------------------------------------------------------------------

Topologies differ in total number of bonds
Writing topology from bond orders to xtbtopo.mol

molecular dipole:
                 x           y           z       tot (Debye)
 q only:        1.056      -0.133      -0.458
   full:        1.447      -0.240      -0.580       4.010
molecular quadrupole (traceless):
                xx          xy          yy          xz          yz          zz
 q only:       61.761       9.007     -20.110       4.140      -9.339     -41.651
  q+dip:       58.332      13.703     -20.580       6.141     -12.581     -37.752
   full:       58.390      12.781     -20.923       2.810     -12.324     -37.467

           -------------------------------------------------
          |                Geometry Summary                 |
           -------------------------------------------------

      molecular mass/u    :      455.6105846
   center of mass at/Å    :        0.0060409       0.0082411      -0.0059083
  moments of inertia/u·Å² :        0.2591085E+04   0.1109712E+05   0.1224274E+05
rotational constants/cm⁻¹ :        0.6506014E-02   0.1519100E-02   0.1376949E-02

 * 67 selected distances

     #   Z          #   Z                                           value/Å
     1   7 N        2   6 C                                       1.2494304
     4   6 C        5   6 C                                       1.3965139
     5   6 C        6   6 C                                       1.3851134
     6   6 C        7   8 O                                       1.3484770
     7   8 O        8   6 C                                       1.4088801
     6   6 C        9   6 C                                       1.4221133
     9   6 C       10   8 O                                       1.3472824
    10   8 O       11   6 C                                       1.4085308
     9   6 C       12   6 C                                       1.3861166
     4   6 C       13   6 C                                       1.3870938
    12   6 C       13   6 C                                       1.3894428
    14   6 C       15   6 C                                       1.5395199 (max)
    15   6 C       16   6 C                                       1.4852432
    16   6 C       17   7 N                                       1.3283190
    17   7 N       18   6 C                                       1.3265186
    19   6 C       20   6 C                                       1.3747899
    20   6 C       21   6 C                                       1.4232685
    21   6 C       22   6 C                                       1.3705395
    22   6 C       23   6 C                                       1.3989924
    23   6 C       24   8 O                                       1.3379758
    24   8 O       25   6 C                                       1.4097375
    23   6 C       26   6 C                                       1.4329206
    26   6 C       27   8 O                                       1.3494322
    27   8 O       28   6 C                                       1.4077165
    20   6 C       29   6 C                                       1.4267749
    26   6 C       29   6 C                                       1.3714011
    17   7 N       30   6 C                                       1.4538864
    31   6 C       32   6 C                                       1.5267152
    31   6 C       33   6 C                                       1.5260715
     5   6 C       34   1 H                                       1.0774776
     8   6 C       35   1 H                                       1.0942339
     8   6 C       36   1 H                                       1.0883937
     8   6 C       37   1 H                                       1.0949689
    11   6 C       38   1 H                                       1.0940429
    11   6 C       39   1 H                                       1.0882364
    11   6 C       40   1 H                                       1.0949006
    12   6 C       41   1 H                                       1.0780211
    13   6 C       42   1 H                                       1.0788617
    14   6 C       43   1 H                                       1.0899318
    14   6 C       44   1 H                                       1.0906784
    15   6 C       45   1 H                                       1.0881216
    15   6 C       46   1 H                                       1.0979562
     2   6 C       47   1 H                                       1.1028700
    16   6 C       48   1 H                                       1.0793950
    18   6 C       49   1 H                                       1.0690304 (min)
    18   6 C       50   1 H                                       1.0727264
    19   6 C       51   1 H                                       1.0754273
    19   6 C       52   1 H                                       1.0751093
    21   6 C       53   1 H                                       1.0795174
    22   6 C       54   1 H                                       1.0780247
    25   6 C       55   1 H                                       1.0932436
    25   6 C       56   1 H                                       1.0938111
    25   6 C       57   1 H                                       1.0878367
    28   6 C       58   1 H                                       1.0894690
    28   6 C       59   1 H                                       1.0956926
    28   6 C       60   1 H                                       1.0946399
    29   6 C       61   1 H                                       1.0782291
    30   6 C       62   1 H                                       1.0893199
    30   6 C       63   1 H                                       1.0915738
    30   6 C       64   1 H                                       1.0871370
    31   6 C       65   1 H                                       1.0962069
    32   6 C       66   1 H                                       1.0855153
    32   6 C       67   1 H                                       1.0876096
    32   6 C       68   1 H                                       1.0869834
    33   6 C       69   1 H                                       1.0856399
    33   6 C       70   1 H                                       1.0866346
    33   6 C       71   1 H                                       1.0870520

 * 4 distinct bonds (by element types)

   Z      Z             #   av. dist./Å        max./Å        min./Å
   1 H    6 C          38     1.0869611     1.1028700     1.0690304
   6 C    6 C          17     1.4260371     1.5395199     1.3705395
   6 C    7 N           4     1.3395386     1.4538864     1.2494304
   6 C    8 O           8     1.3772540     1.4097375     1.3379758


optimized geometry written to: xtbopt.xyz


           -------------------------------------------------
          | TOTAL ENERGY              -99.327623651883 Eh   |
          | GRADIENT NORM               0.003290795351 Eh/α |
          | HOMO-LUMO GAP               0.727394159576 eV   |
           -------------------------------------------------

------------------------------------------------------------------------
 * finished run on 2024/04/06 at 11:13:44.482     
------------------------------------------------------------------------
 total:
 * wall-time:     0 d,  0 h,  0 min,  0.472 sec
 *  cpu-time:     0 d,  0 h,  0 min,  0.440 sec
 * ratio c/w:     0.932 speedup
 SCF:
 * wall-time:     0 d,  0 h,  0 min,  0.120 sec
 *  cpu-time:     0 d,  0 h,  0 min,  0.119 sec
 * ratio c/w:     0.999 speedup
 ANC optimizer:
 * wall-time:     0 d,  0 h,  0 min,  0.304 sec
 *  cpu-time:     0 d,  0 h,  0 min,  0.296 sec
 * ratio c/w:     0.973 speedup

