72
 energy: -103.311369482955 gnorm: 0.086171429875 xtb: 6.6.1 (8d0f1dd)
N           -1.48471998244110        2.76555115224643        2.22720127183506
C           -1.56313549146516        2.16702696674503        1.14815209293814
C           -2.74983164980016        2.06139596198436        0.24529029639146
C           -3.31544841284715        0.64728994184402        0.32687231385525
C           -4.29831231106831        0.24477339863452       -0.57522437395538
C           -4.84241639704033       -1.02515042842441       -0.53204444828423
O           -5.80170323933184       -1.49672689970623       -1.36741929609894
C           -6.38007612785901       -0.61905370245426       -2.30308916448716
C           -4.39123087095568       -1.94417872438613        0.44670710194507
O           -4.97593354963678       -3.16862296923992        0.41219665949486
C           -4.65054095379484       -4.10101912126941        1.41229822891547
C           -3.42052386229411       -1.53980693401822        1.34074095037422
C           -2.88722315990385       -0.25714448436614        1.28029479524532
C           -2.20006069180124        2.31248567521570       -1.17922383169657
C           -1.26888675492049        1.18450845704273       -1.66343250198097
C            0.00725472983285        1.11811201538109       -0.89871263714477
N            0.63944129496347       -0.02361776186795       -0.58433649084319
C            2.00481797048508       -0.01870153932769       -0.17122294999086
C            2.93226377628993       -0.53168685900243       -1.28550143445597
C            4.36150640304660       -0.43034226428609       -0.83857794141843
C            5.08108566138831        0.73115324079901       -1.05071014592677
C            6.39447104922790        0.83184927270475       -0.61214919913202
C            7.00100137903539       -0.22500938328492        0.05947918388029
O            8.27900386538628       -0.21326861337342        0.52041424113498
C            9.07050997450424        0.92932118377269        0.30201855468553
C            6.26851139718970       -1.41674854132613        0.29985312204749
O            6.92999350475327       -2.41100544176254        0.98456094406974
C            6.32471908264627       -3.65201694612463        1.18332853443475
C            4.97074291995027       -1.49019799143924       -0.16262698175920
C           -0.04963830101929       -1.29164904160070       -0.63874126420001
C           -3.87948207988704        3.07827926530676        0.58647897883160
C           -4.50486061330877        2.77261633810460        1.94566453710705
C           -3.41144580705489        4.53019499831742        0.55075622336561
H           -4.65297588928192        0.94173749703071       -1.31833390564448
H           -6.83777321455517        0.24744884385044       -1.81514184797222
H           -7.15218186936146       -1.19908487799123       -2.80518737894739
H           -5.64917912130587       -0.27771752501367       -3.04374729560040
H           -4.87671973642208       -3.71594579766396        2.41162527100311
H           -5.27456174704564       -4.97076966311753        1.21216099782599
H           -3.59741034479920       -4.39359081046674        1.36335779596756
H           -3.06855513309365       -2.21123145732000        2.10826379272283
H           -2.15159739974803        0.03252822352962        2.01739079205606
H           -3.02962809761981        2.39572221882924       -1.88024960310062
H           -1.65573040146345        3.25805279444504       -1.19164927847509
H           -1.80778597120090        0.24232237838326       -1.62666226943211
H           -1.01101887920768        1.38658929368031       -2.70875700936803
H           -0.68473836195265        1.65225829727880        0.64330649961251
H            0.63840855488049        1.99740454282678       -0.94308728413435
H            2.12296331317810       -0.65127572474322        0.71227787335589
H            2.29958042055976        0.99776192858837        0.09751560108490
H            2.77033611437493        0.08408815328306       -2.17876618600059
H            2.67981107690847       -1.56253213674634       -1.52652813814681
H            4.63286386300552        1.56326810573146       -1.57582378640377
H            6.93491553589076        1.74627262410053       -0.80485237301712
H            8.65339970833784        1.81419130025335        0.79678283035880
H            9.20084652024553        1.13613396246321       -0.76655681927871
H           10.03807072857341        0.69667133328027        0.74412529657108
H            7.07423302886343       -4.30970392413252        1.64051726931262
H            5.46367756004522       -3.59038657293003        1.85914415236644
H            6.01465016009413       -4.00955659381357        0.23642982975862
H            4.38928650958429       -2.38859534602870       -0.00419826541861
H           -0.22132805306008       -1.60477604969242       -1.67393009312292
H           -1.01462235174233       -1.23519160236788       -0.12542201182072
H            0.56276866408750       -2.04198123023965       -0.14689755303609
H           -4.65218423732250        2.95239185498128       -0.17985416161931
H           -3.77418249034815        2.90443331669870        2.73214700371596
H           -4.88211822276506        1.75239920112243        1.98274228611819
H           -5.33483862950837        3.45137728259619        2.12736063183769
H           -2.62335945068450        4.69247837907927        1.27689117990277
H           -3.05948488360553        4.81861063336420       -0.43522393325842
H           -4.24625897098735        5.18027793918653        0.80742993074263
H           -0.61650902850626        2.79524385794617        2.73978376168694
72
 energy: -103.314687604015 gnorm: 0.030518454129 xtb: 6.6.1 (8d0f1dd)
N           -1.50274748016780        2.79703855167673        2.24192354288969
C           -1.56956699071072        2.16155112111011        1.16609890845774
C           -2.75246692090852        2.06466015053656        0.25110875561303
C           -3.32000864419895        0.65280869372330        0.33176423791979
C           -4.30088901369113        0.24587775158102       -0.57341753614232
C           -4.84240111274522       -1.02512451600751       -0.53116380532743
O           -5.80457711818239       -1.49784651831649       -1.36841978513431
C           -6.37932388503611       -0.61915464976754       -2.30341519957132
C           -4.39227769028791       -1.94303235466463        0.44627806703646
O           -4.97900701798231       -3.17039361725020        0.41119638062760
C           -4.65024124947764       -4.10071170650377        1.41165100042339
C           -3.42304111111096       -1.53713119953017        1.34272168985357
C           -2.89323626396804       -0.25228035992940        1.28531690565026
C           -2.19977379197224        2.30819807379264       -1.17701018277247
C           -1.26474714368764        1.19344095341482       -1.67975918075577
C            0.00794042333456        1.13469452513936       -0.90427534973758
N            0.64167909702805       -0.03597812525560       -0.57792402925221
C            2.00909641845591       -0.03077195420627       -0.17117085392058
C            2.94295789065675       -0.53701641717544       -1.28874742921934
C            4.37001297490440       -0.43860610304740       -0.84827334230950
C            5.08912390016091        0.72409794645255       -1.05323274173584
C            6.39825804101173        0.82799681963942       -0.60793250427535
C            7.00439700303389       -0.22300696814130        0.06352303417429
O            8.28529524595797       -0.21474833573270        0.52562757521516
C            9.07267685379032        0.92804845561691        0.30426726212370
C            6.27083897328198       -1.40961703415638        0.30285235364879
O            6.93812326766735       -2.39129586360049        0.98740315420866
C            6.31889061485840       -3.63656378070188        1.17391402711162
C            4.97230225018344       -1.49437503589547       -0.16067808359194
C           -0.04648460635889       -1.29842218872056       -0.63700720300236
C           -3.88561152556380        3.07704451649612        0.58437387328382
C           -4.50889116473480        2.77370580410233        1.94502574553604
C           -3.41475620285435        4.52892916284178        0.55106095622984
H           -4.65198528007971        0.94106941411950       -1.31864614994350
H           -6.83603515537969        0.24776788219839       -1.81481334563349
H           -7.15243132100479       -1.19716081169042       -2.80707133812560
H           -5.64682725252340       -0.27700007129373       -3.04246571736887
H           -4.87517156392284       -3.71489985466122        2.41141568839611
H           -5.27269393253711       -4.97210864270018        1.21387233795764
H           -3.59570640910294       -4.39189882851538        1.36348154270115
H           -3.06775806882109       -2.21102510259510        2.10661602385372
H           -2.15124533495710        0.03482253079887        2.01471725428021
H           -3.03220510358801        2.39904266613182       -1.87594248824121
H           -1.65347290691201        3.25248314271449       -1.18842781029434
H           -1.79908439230134        0.24667563646521       -1.63177880647336
H           -1.03567511214090        1.39716724220427       -2.73537294103428
H           -0.69484677271214        1.64540559044305        0.67449473874273
H            0.65205668706681        2.00056144591964       -0.97640151069930
H            2.13315911867454       -0.65978099372419        0.71677685463128
H            2.29967635722396        0.98852231486479        0.09469794701216
H            2.77565506352547        0.07856956693785       -2.17664078914258
H            2.68357182284602       -1.56770872403111       -1.52891246024588
H            4.63819930612262        1.55731507264836       -1.57302543498873
H            6.93944932297813        1.74100583872896       -0.79923818897353
H            8.65217700790006        1.81227334680846        0.79609739311334
H            9.19894855709075        1.13382850432256       -0.76445514179629
H           10.04212829456861        0.69961740394057        0.74405898086952
H            7.06981878680685       -4.28565175277497        1.62977304755392
H            5.46084925798473       -3.57611404195782        1.85583647947811
H            6.00226484705077       -4.04171389349547        0.21962477421705
H            4.39305013418706       -2.39236096045914        0.00111716644776
H           -0.22138627692152       -1.61118661242175       -1.67244899716346
H           -1.01098046251048       -1.23488845886724       -0.12511600524366
H            0.56097777589021       -2.05323662157205       -0.14376417390097
H           -4.65958729467713        2.95377536032978       -0.18217523300036
H           -3.76893264420555        2.90366722897313        2.72702501709575
H           -4.88347432144185        1.75317647255559        1.98170057115159
H           -5.33902118635558        3.45256630022813        2.12946830663548
H           -2.62251823833822        4.68515118247444        1.27626377192536
H           -3.05902561979082        4.81541779407361       -0.43505991293433
H           -4.24700861081772        5.18201629744062        0.80781513891731
H           -0.62553107424971        2.79875620901771        2.75090213834870
72
 energy: -103.315176603163 gnorm: 0.018869110829 xtb: 6.6.1 (8d0f1dd)
N           -1.48828162988268        2.78756453277286        2.23225392644608
C           -1.55404299403496        2.15295412232550        1.14911514436995
C           -2.74878281850247        2.06371961330391        0.24653069476246
C           -3.31172454769018        0.65003024020512        0.32531711628189
C           -4.29719171424444        0.24365656383170       -0.57654425402132
C           -4.83900834852265       -1.02660222966509       -0.53214955415497
O           -5.80540168659160       -1.49887922923263       -1.36861777443862
C           -6.38017273932992       -0.62053757949626       -2.30252490263935
C           -4.38936732710588       -1.94408438463089        0.44401975496370
O           -4.98025119998688       -3.17180917860719        0.41065658142095
C           -4.65207251829421       -4.10134663406374        1.41125211696651
C           -3.41884726744514       -1.53960643451035        1.33996127715455
C           -2.88603911828630       -0.25624259819430        1.27939403232071
C           -2.20134643562435        2.31073834226649       -1.18312173583703
C           -1.26709442880024        1.19057209880285       -1.67025704145673
C           -0.00009680919155        1.14382980551291       -0.89117262178913
N            0.63790511315407       -0.03841920696207       -0.56762007932441
C            2.00499119136437       -0.02195215844665       -0.16566582332781
C            2.93862417714934       -0.52780393180425       -1.28597030439025
C            4.36277889075820       -0.43307735088920       -0.84268987591413
C            5.08199108317824        0.72882688675457       -1.04837518620737
C            6.39249025029492        0.82793245488459       -0.60932208691590
C            6.99821626904393       -0.22360066224724        0.05947968930803
O            8.28139749785697       -0.21668439044970        0.52078451576999
C            9.06804631775899        0.92648709560284        0.30184408168792
C            6.26577210972188       -1.41012586172077        0.30266356239715
O            6.93697766036242       -2.38468234869810        0.99310293480945
C            6.32391245266023       -3.63710507240556        1.18341183167544
C            4.96400774865814       -1.49300265906631       -0.15862800657051
C           -0.04738276695711       -1.29611286345546       -0.63920140525583
C           -3.87769474635659        3.07570001122264        0.58666746988251
C           -4.50535664287382        2.77232831353716        1.94601558298526
C           -3.41280586150794        4.53080098128418        0.55192631832596
H           -4.65088478798923        0.94032583104715       -1.31865839013175
H           -6.83751389652646        0.24665892870300       -1.81439782944598
H           -7.15364224229945       -1.19934073963183       -2.80494936805926
H           -5.64949528910482       -0.27803726428523       -3.04340976332468
H           -4.87687244225708       -3.71575778669989        2.41145206886810
H           -5.27556165679675       -4.97176950966997        1.21293060300923
H           -3.59756696098259       -4.39459924916341        1.36379381793532
H           -3.06779755525909       -2.21233443559903        2.10690910773954
H           -2.14960809229259        0.03188593163008        2.01294210127225
H           -3.03362426906460        2.39893741227769       -1.88336273783482
H           -1.65562515660273        3.25616448237771       -1.19495899533389
H           -1.80148918308059        0.24122680910409       -1.62136698774398
H           -1.02414701609311        1.38744918769819       -2.72269466063069
H           -0.68548825799289        1.65386708720969        0.65056309027377
H            0.64216490419495        2.00750929949063       -0.94383022866124
H            2.12990512003254       -0.65053617280922        0.72242721628015
H            2.29243410073486        0.99969570776613        0.09951694252890
H            2.76858862377602        0.08723593720655       -2.17195440340534
H            2.67496315755354       -1.55864109617330       -1.52518313901010
H            4.63108861364690        1.56106743540538       -1.57063945995912
H            6.93419357063122        1.74041728283361       -0.80326206064984
H            8.64988079715640        1.81093776391022        0.79519214877496
H            9.19753127514955        1.13534273143660       -0.76597425425254
H           10.03656104409518        0.69618455748370        0.74227797556123
H            7.07548312476241       -4.29280253375415        1.62911034979993
H            5.46445308053384       -3.58685006896101        1.86360226734682
H            6.00283259033027       -4.04744931447035        0.22252292170614
H            4.38527398063682       -2.39042074426973       -0.00176964514053
H           -0.22114034534182       -1.60408892200863       -1.67673490476596
H           -1.01286711553893       -1.23718881031806       -0.12819186970125
H            0.56255143049962       -2.04969005994198       -0.14784528290004
H           -4.65143278531215        2.95235823579277       -0.17996606995251
H           -3.76931825631019        2.90386160452020        2.73265985768758
H           -4.87967798089510        1.75199261289847        1.98249027598024
H           -5.33609028521603        3.45117563929383        2.12599360064538
H           -2.62080153548645        4.69233613023445        1.27701224003636
H           -3.05797736848773        4.81857215241535       -0.43475514270107
H           -4.24759893437540        5.18019396214964        0.80758806851002
H           -0.59491113584979        2.77657856820941        2.72006353174375
72
 energy: -103.315711073041 gnorm: 0.010048089156 xtb: 6.6.1 (8d0f1dd)
N           -1.51117623190327        2.78721336013256        2.23969198302605
C           -1.56085288909613        2.15845049575396        1.15360529833326
C           -2.75228429863649        2.06376855525374        0.24792936003662
C           -3.31582821717599        0.65067795787485        0.32834437802977
C           -4.30055474967676        0.24509147265318       -0.57409208680096
C           -4.84137312582704       -1.02508836255021       -0.52965015412171
O           -5.80550283950686       -1.49757928337326       -1.36850138953058
C           -6.37884254600147       -0.61917674003179       -2.30301349985679
C           -4.39160692629035       -1.94232338047362        0.44665525013364
O           -4.97954774207254       -3.17109221909242        0.41194921013354
C           -4.65012454998702       -4.10050977358377        1.41180484082066
C           -3.42199935507173       -1.53826367504708        1.34330920893557
C           -2.89039343063387       -0.25490958296316        1.28325984166844
C           -2.19934510975772        2.31105727460436       -1.17923079785992
C           -1.26720277816107        1.18849197462157       -1.66646028760739
C            0.00304909426057        1.13856945215088       -0.89643980832061
N            0.64071606071965       -0.04056811866133       -0.57737122729277
C            2.00757297474752       -0.02366744228806       -0.17533518469092
C            2.94321458633750       -0.53325948177780       -1.29169753027171
C            4.36670563300890       -0.43349137394500       -0.84340169660638
C            5.08580696990015        0.72848692466413       -1.05137258426508
C            6.39653083723048        0.82839606894214       -0.61095168354807
C            7.00201505123952       -0.22420439108475        0.05884207719260
O            8.28437825782431       -0.21466122496941        0.52244050638534
C            9.07147720256051        0.92858513192377        0.30367547840645
C            6.27187405636903       -1.41432083843820        0.29967237379082
O            6.93916837174377       -2.39165177831151        0.99233017628977
C            6.32540846553996       -3.64101447069460        1.18632915471729
C            4.97019322822061       -1.49403522991941       -0.16212658816425
C           -0.04879859330876       -1.29509795622120       -0.63967927713815
C           -3.88080730530404        3.07634340069002        0.58597181630885
C           -4.50845628717459        2.77296293582740        1.94539936263729
C           -3.41386582286804        4.53059972965596        0.55070238146301
H           -4.65356602368138        0.94193804090743       -1.31671794866412
H           -6.83738687570365        0.24807242732870       -1.81590901215584
H           -7.15134618340561       -1.19807689639110       -2.80672326667034
H           -5.64747357014500       -0.27664157430680       -3.04320958635358
H           -4.87573632056171       -3.71600803315122        2.41221373426604
H           -5.27247719678043       -4.97152435241490        1.21262696059719
H           -3.59537319328179       -4.39225145262262        1.36379626361875
H           -3.07008659034580       -2.21111235746224        2.10961155935997
H           -2.15509683310763        0.03388216445177        2.01835328730176
H           -3.03053670813177        2.39872179934672       -1.87991467067855
H           -1.65442695171153        3.25716282314459       -1.18887850335945
H           -1.80455725720799        0.24098019810128       -1.62543339032569
H           -1.01728825908598        1.38827547470913       -2.71555708312533
H           -0.69036310353796        1.65665395596107        0.65895920693152
H            0.64821801734367        1.99836136687899       -0.95269758444154
H            2.12895398849348       -0.65426957854886        0.71114544527878
H            2.29918223259183        0.99588781799760        0.09208616630766
H            2.77468675428498        0.07907161984201       -2.18048865210335
H            2.68295194567187       -1.56558863794511       -1.52893379025919
H            4.63568287081154        1.55945975251302       -1.57692777673927
H            6.93669345241976        1.74310411577321       -0.80294691620671
H            8.65440474046140        1.81414079540943        0.79654079768179
H            9.20283574113856        1.13636162088165       -0.76443137100433
H           10.03964249101453        0.69828321907281        0.74532559092572
H            7.07046341278804       -4.30603114293556        1.63292104006537
H            5.46049933354691       -3.58585340215362        1.85712417816428
H            6.00742955740362       -4.03063096903095        0.22253884538836
H            4.39153235985755       -2.39098219724775       -0.00531275315844
H           -0.22443323961868       -1.61020703984309       -1.67454813030797
H           -1.01311686163769       -1.23380211380016       -0.12560887581671
H            0.56203159666564       -2.04544917563490       -0.14511127635867
H           -4.65424080582434        2.95274510088869       -0.18093308823979
H           -3.77306043470888        2.90413703277472        2.73180844078659
H           -4.88440129724354        1.75316074636302        1.98258658298685
H           -5.33741628308330        3.45290738795506        2.12703375560815
H           -2.62262344776914        4.69082725137048        1.27638978378755
H           -3.05916650991433        4.81795191325054       -0.43600409932925
H           -4.24738442249601        5.18097914352173        0.80681925856569
H           -0.62227609144677        2.78751861482377        2.73349694682267
72
 energy: -103.315754644709 gnorm: 0.009186706459 xtb: 6.6.1 (8d0f1dd)
N           -1.50014198781556        2.79168032035320        2.23844817040123
C           -1.55550857133777        2.15999408474320        1.15605996383452
C           -2.74921763194365        2.06384900058966        0.25071306509907
C           -3.31615479446397        0.65160344931909        0.32972522524489
C           -4.29915271554893        0.24559531407284       -0.57459860328544
C           -4.83974333159846       -1.02498697839293       -0.53086373771224
O           -5.80398224166728       -1.49771011030103       -1.36915822446498
C           -6.37940026204734       -0.61959634202675       -2.30244596641121
C           -4.39002912860881       -1.94248505458273        0.44523832680518
O           -4.97833717467745       -3.17083570834008        0.41084600848968
C           -4.65110203128777       -4.10032367819648        1.41127134824777
C           -3.41959949764100       -1.53881813198652        1.34108943763427
C           -2.88894509439495       -0.25501262836884        1.28236428471369
C           -2.19996415368036        2.30878324951958       -1.17905765397900
C           -1.26710367283883        1.19029241084810       -1.67548820146051
C            0.00469260999905        1.13708891317451       -0.90622389713507
N            0.64005948468270       -0.03812246685382       -0.57859867179984
C            2.00482210643710       -0.02355648195102       -0.16826175801789
C            2.93923666121266       -0.53231143768768       -1.28525825042335
C            4.36449106219962       -0.43324891970342       -0.84132662104262
C            5.08431775938215        0.72838757426977       -1.05001538730088
C            6.39500248077055        0.82938222094074       -0.60832808813099
C            6.99963317340843       -0.22352039875423        0.06151494951038
O            8.28223425999696       -0.21512943255460        0.52363789596381
C            9.06937803880925        0.92736074485433        0.30244154045177
C            6.26893332124988       -1.41343313221399        0.30080049055389
O            6.93665933685011       -2.39378845596369        0.98669301199023
C            6.32270635249373       -3.64044845738734        1.18335667340035
C            4.96768629902760       -1.49281374858949       -0.15957024047098
C           -0.04765114385305       -1.29444181669671       -0.63891890199172
C           -3.87994789776029        3.07583326048932        0.58591062415789
C           -4.50606831004075        2.77216108120495        1.94554866702639
C           -3.41268601269905        4.52945287049248        0.55165356410064
H           -4.65032188806429        0.94161336890834       -1.31903984257596
H           -6.83674808006626        0.24755137839961       -1.81413311897805
H           -7.15304709212403       -1.19813174853691       -2.80501925414487
H           -5.64899974832491       -0.27716756598102       -3.04358229819182
H           -4.87616355514653       -3.71457879828794        2.41122326482997
H           -5.27486759038077       -4.97071532616080        1.21314806644060
H           -3.59700450577221       -4.39373643679104        1.36356948896355
H           -3.06518051177483       -2.21265865658784        2.10512970221051
H           -2.14819618011692        0.03200872814148        2.01318519356448
H           -3.03349880071005        2.39700848778060       -1.87665432325697
H           -1.65528447974773        3.25453858794308       -1.19127272172195
H           -1.80359091838611        0.24379381027215       -1.63303981459956
H           -1.02793607363161        1.39339092701761       -2.72753454182456
H           -0.69066531905344        1.64372976383226        0.66419993476224
H            0.64993842251176        1.99720373612161       -0.96724478081629
H            2.12576711296141       -0.65537585164825        0.71811790675366
H            2.29744033555577        0.99441533811074        0.10083540767869
H            2.77051109666854        0.08257885063028       -2.17277405917582
H            2.67863840842703       -1.56383461115729       -1.52464422090711
H            4.63316559550025        1.56101593181523       -1.57149943734196
H            6.93596871157976        1.74361762440571       -0.80031035739031
H            8.65172504179611        1.81252786057221        0.79556919038249
H            9.19665791222000        1.13387121487651       -0.76645944063156
H           10.03904818536478        0.69785632684635        0.74179001608959
H            7.07232873723736       -4.29674108645334        1.63308592753718
H            5.46156480846449       -3.58052024954213        1.85777015464570
H            6.00431989695953       -4.03107555736496        0.22330574480699
H            4.38838561075377       -2.38908076327851        0.00135415412066
H           -0.21961406869639       -1.60976676191734       -1.67409740855557
H           -1.01358393851331       -1.23550402720162       -0.12756602559848
H            0.56120186718203       -2.04703887898731       -0.14402986532704
H           -4.65434395314722        2.95231203998572       -0.18044276353318
H           -3.76900189709803        2.90369020049333        2.72971812760482
H           -4.88040157092787        1.75175156824547        1.98242267813382
H           -5.33566374560928        3.45097020075118        2.12902005517053
H           -2.62143061864932        4.68761107838330        1.27737703099100
H           -3.05810089052367        4.81661796791265       -0.43484934499207
H           -4.24572237651418        5.18031535560501        0.80859434526063
H           -0.61148920750678        2.79098972962580        2.73325715699737
72
 energy: -103.315897690234 gnorm: 0.004663727877 xtb: 6.6.1 (8d0f1dd)
N           -1.50192439668795        2.78949469686387        2.23943322559421
C           -1.55765453534713        2.15793456799243        1.15650013282798
C           -2.75128905395002        2.06441670903976        0.24987587797012
C           -3.31678112359152        0.65143126895205        0.32824783180288
C           -4.29995188700971        0.24463153433319       -0.57560952112018
C           -4.84081250504897       -1.02586716044799       -0.53096999529436
O           -5.80542536923006       -1.49860331855469       -1.36920458306091
C           -6.37951799995162       -0.62033848891998       -2.30300147191541
C           -4.39155745874805       -1.94282912966812        0.44563680303692
O           -4.97955598166352       -3.17162144684723        0.41151168275447
C           -4.65096564725238       -4.10102381392980        1.41155611137840
C           -3.42197514239365       -1.53813437879823        1.34212703606755
C           -2.89081002460637       -0.25440748901397        1.28228106209629
C           -2.20027388311938        2.30997235931027       -1.17937770415355
C           -1.26579285584870        1.19067537524537       -1.67038921384565
C            0.00435769980999        1.13873111189045       -0.89846652874817
N            0.64090608718094       -0.03846203376964       -0.57388998526099
C            2.00745358694945       -0.02414959778649       -0.16945173722361
C            2.94077828418355       -0.53212116977569       -1.28863197524710