      -----------------------------------------------------------      
     |                   =====================                   |     
     |                           x T B                           |     
     |                   =====================                   |     
     |                         S. Grimme                         |     
     |          Mulliken Center for Theoretical Chemistry        |     
     |                    University of Bonn                     |     
      -----------------------------------------------------------      

   * xtb version 6.6.1 (8d0f1dd) compiled by 'conda@1efc2f54142f' on 2023-08-01

   xtb is free software: you can redistribute it and/or modify it under
   the terms of the GNU Lesser General Public License as published by
   the Free Software Foundation, either version 3 of the License, or
   (at your option) any later version.
   
   xtb is distributed in the hope that it will be useful,
   but WITHOUT ANY WARRANTY; without even the implied warranty of
   MERCHANTABILITY or FITNESS FOR A PARTICULAR PURPOSE.  See the
   GNU Lesser General Public License for more details.
   
   Cite this work as:
   * C. Bannwarth, E. Caldeweyher, S. Ehlert, A. Hansen, P. Pracht,
     J. Seibert, S. Spicher, S. Grimme, WIREs Comput. Mol. Sci., 2020, 11,
     e01493. DOI: 10.1002/wcms.1493
   
   for GFN2-xTB:
   * C. Bannwarth, S. Ehlert and S. Grimme., J. Chem. Theory Comput., 2019,
     15, 1652-1671. DOI: 10.1021/acs.jctc.8b01176
   for GFN1-xTB:
   * S. Grimme, C. Bannwarth, P. Shushkov, J. Chem. Theory Comput., 2017,
     13, 1989-2009. DOI: 10.1021/acs.jctc.7b00118
   for GFN0-xTB:
   * P. Pracht, E. Caldeweyher, S. Ehlert, S. Grimme, ChemRxiv, 2019, preprint.
     DOI: 10.26434/chemrxiv.8326202.v1
   for GFN-FF:
   * S. Spicher and S. Grimme, Angew. Chem. Int. Ed., 2020, 59, 15665-15673.
     DOI: 10.1002/anie.202004239
   
   for ALPB and GBSA implicit solvation:
   * S. Ehlert, M. Stahn, S. Spicher, S. Grimme, J. Chem. Theory Comput.,
     2021, 17, 4250-4261. DOI: 10.1021/acs.jctc.1c00471
   
   for DFT-D4:
   * E. Caldeweyher, C. Bannwarth and S. Grimme, J. Chem. Phys., 2017,
     147, 034112. DOI: 10.1063/1.4993215
   * E. Caldeweyher, S. Ehlert, A. Hansen, H. Neugebauer, S. Spicher,
     C. Bannwarth and S. Grimme, J. Chem. Phys., 2019, 150, 154122.
     DOI: 10.1063/1.5090222
   * E. Caldeweyher, J.-M. Mewes, S. Ehlert and S. Grimme, Phys. Chem. Chem. Phys.
     2020, 22, 8499-8512. DOI: 10.1039/D0CP00502A
   
   for sTDA-xTB:
   * S. Grimme and C. Bannwarth, J. Chem. Phys., 2016, 145, 054103.
     DOI: 10.1063/1.4959605
   
   in the mass-spec context:
   * V. Asgeirsson, C. Bauer and S. Grimme, Chem. Sci., 2017, 8, 4879.
     DOI: 10.1039/c7sc00601b
   * J. Koopman and S. Grimme, ACS Omega 2019, 4, 12, 15120-15133.
     DOI: 10.1021/acsomega.9b02011
   
   for metadynamics refer to:
   * S. Grimme, J. Chem. Theory Comput., 2019, 155, 2847-2862
     DOI: 10.1021/acs.jctc.9b00143
   
   for SPH calculations refer to:
   * S. Spicher and S. Grimme, J. Chem. Theory Comput., 2021, 17, 1701-1714
     DOI: 10.1021/acs.jctc.0c01306
   
   with help from (in alphabetical order)
   P. Atkinson, C. Bannwarth, F. Bohle, G. Brandenburg, E. Caldeweyher
   M. Checinski, S. Dohm, S. Ehlert, S. Ehrlich, I. Gerasimov, C. Hölzer
   A. Katbashev, J. Koopman, C. Lavigne, S. Lehtola, F. März, M. Müller,
   F. Musil, H. Neugebauer, J. Pisarek, C. Plett, P. Pracht, F. Pultar,
   J. Seibert, P. Shushkov, S. Spicher, M. Stahn, M. Steiner, T. Strunk,
   J. Stückrath, T. Rose, and J. Unsleber
   
 * started run on 2024/06/05 at 19:58:02.625     

           -------------------------------------------------
          |                Calculation Setup                |
           -------------------------------------------------

          program call               : xtb xtbopt.xyz --opt crude --input .xc2 --gfn2
          hostname                   : n-62-21-71
          coordinate file            : xtbopt.xyz
          omp threads                :                     1

   ID    Z sym.   atoms
    1    6 C      1, 3, 5-7, 10, 11, 14
    2    7 N      2, 4, 9, 13
    3    8 O      8, 12
    4    1 H      15-25

molecular fragmentation (1/2 indicates fragments):
1111111111111111111211111
# atoms in fragment 1/2:    24     1
 fragment masses (1/2) :      194.19        1.01
CMA distance (Bohr)    :  10.223
constraining FC (au)   :  0.0500
########################################################################
[WARNING] Please study the warnings concerning your input carefully
-1- readin_getIntValue: could not parse ''
########################################################################

           -------------------------------------------------
          |                 G F N 2 - x T B                 |
           -------------------------------------------------

        Reference                      10.1021/acs.jctc.8b01176
      * Hamiltonian:
        H0-scaling (s, p, d)           1.850000    2.230000    2.230000
        zeta-weighting                 0.500000
      * Dispersion:
        s8                             2.700000
        a1                             0.520000
        a2                             5.000000
        s9                             5.000000
      * Repulsion:
        kExp                           1.500000    1.000000
        rExp                           1.000000
      * Coulomb:
        alpha                          2.000000
        third order                    shell-resolved
        anisotropic                    true
        a3                             3.000000
        a5                             4.000000
        cn-shift                       1.200000
        cn-exp                         4.000000
        max-rad                        5.000000

q/qsh data taken from xtbrestart
CAMM data taken from xtbrestart

          ...................................................
          :                      SETUP                      :
          :.................................................:
          :  # basis functions                  67          :
          :  # atomic orbitals                  67          :
          :  # shells                           39          :
          :  # electrons                        74          :
          :  max. iterations                   250          :
          :  Hamiltonian                  GFN2-xTB          :
          :  restarted?                       true          :
          :  GBSA solvation                  false          :
          :  PC potential                    false          :
          :  electronic temp.         2500.0000000     K    :
          :  accuracy                    1.0000000          :
          :  -> integral cutoff          0.2500000E+02      :
          :  -> integral neglect         0.1000000E-07      :
          :  -> SCF convergence          0.1000000E-05 Eh   :
          :  -> wf. convergence          0.1000000E-03 e    :
          :  Broyden damping             0.4000000          :
          ...................................................

 iter      E             dE          RMSdq      gap      omega  full diag
   1    -42.6011390 -0.426011E+02  0.135E-05    0.16       0.0  T
   2    -42.6011390 -0.433431E-12  0.937E-06    0.16    2134.9  T
   3    -42.6011390 -0.568434E-13  0.696E-06    0.16    2874.6  T

   *** convergence criteria satisfied after 3 iterations ***

         #    Occupation            Energy/Eh            Energy/eV
      -------------------------------------------------------------
         1        2.0000           -0.9164369             -24.9375
       ...           ...                  ...                  ...
        31        2.0000           -0.6209796             -16.8977
        32        2.0000           -0.6150408             -16.7361
        33        2.0000           -0.6094531             -16.5841
        34        2.0000           -0.5843684             -15.9015
        35        2.0000           -0.5650863             -15.3768
        36        2.0000           -0.5600404             -15.2395
        37        1.1692           -0.4713487             -12.8261 (HOMO)
        38        0.8087           -0.4655767             -12.6690 (LUMO)
        39        0.0218           -0.4329694             -11.7817
        40        0.0004           -0.4001826             -10.8895
        41        0.0000           -0.3718754             -10.1192
        42                         -0.2876934              -7.8285
       ...                                ...                  ...
        67                          0.5491591              14.9434
      -------------------------------------------------------------
                  HL-Gap            0.0057720 Eh            0.1571 eV
             Fermi-level           -0.4686441 Eh          -12.7525 eV

 SCC (total)                   0 d,  0 h,  0 min,  0.026 sec
 SCC setup                      ...        0 min,  0.000 sec (  1.238%)
 Dispersion                     ...        0 min,  0.000 sec (  1.537%)
 classical contributions        ...        0 min,  0.000 sec (  0.395%)
 integral evaluation            ...        0 min,  0.006 sec ( 23.971%)
 iterations                     ...        0 min,  0.006 sec ( 23.051%)
 molecular gradient             ...        0 min,  0.013 sec ( 49.142%)
 printout                       ...        0 min,  0.000 sec (  0.612%)

         :::::::::::::::::::::::::::::::::::::::::::::::::::::
         ::                     SUMMARY                     ::
         :::::::::::::::::::::::::::::::::::::::::::::::::::::
         :: total energy             -42.081041870332 Eh    ::
         :: gradient norm              0.003901031245 Eh/a0 ::
         :: HOMO-LUMO gap              0.157063382133 eV    ::
         ::.................................................::
         :: SCC energy               -42.601138988463 Eh    ::
         :: -> isotropic ES            0.140864572227 Eh    ::
         :: -> anisotropic ES         -0.007109552247 Eh    ::
         :: -> anisotropic XC          0.012521262534 Eh    ::
         :: -> dispersion             -0.022878580730 Eh    ::
         :: repulsion energy           0.520013868216 Eh    ::
         :: add. restraining           0.000000000000 Eh    ::
         :: total charge               0.999999999999 e     ::
         :::::::::::::::::::::::::::::::::::::::::::::::::::::

      ----------------------------------------------------------- 
     |                   =====================                   |
     |                        A N C O P T                        |
     |                   =====================                   |
     |               Approximate Normal Coordinate               |
     |                Rational Function Optimizer                |
      ----------------------------------------------------------- 

          ...................................................
          :                      SETUP                      :
          :.................................................:
          :   optimization level             crude          :
          :   max. optcycles                   200          :
          :   ANC micro-cycles                  20          :
          :   degrees of freedom                69          :
          :.................................................:
          :   RF solver                   davidson          :
          :   write xtbopt.log                true          :
          :   linear?                        false          :
          :   energy convergence         0.5000000E-03 Eh   :
          :   grad. convergence          0.1000000E-01 Eh/α :
          :   maxmium RF displ.          1.0000000          :
          :   Hlow (freq-cutoff)         0.1000000E-01      :
          :   Hmax (freq-cutoff)         5.0000000          :
          :   S6 in model hess.         20.0000000          :
          ...................................................

generating ANC from model Hessian ...
Using Lindh-Hessian (1995)
 Shifting diagonal of input Hessian by    1.6608976907194602E-002
 Lowest  eigenvalues of input Hessian
    0.010000    0.000000    0.000000    0.000000    0.000000    0.000000
    0.000000    0.016736    0.016859    0.019344    0.021015    0.022473
    0.026166    0.026574    0.028503    0.029326    0.030793    0.035036
 Highest eigenvalues
    2.099242    2.151421    2.230961    2.281261    2.420496    2.519670


........................................................................
.............................. CYCLE    1 ..............................
........................................................................

 iter      E             dE          RMSdq      gap      omega  full diag
   1    -42.6011390 -0.426011E+02  0.199E-05    0.16       0.0  T
   2    -42.6011390  0.227772E-09  0.929E-05    0.16     215.3  T
   3    -42.6011390 -0.238721E-09  0.176E-06    0.16   11392.8  T
     SCC iter.                  ...        0 min,  0.005 sec
     gradient                   ...        0 min,  0.013 sec
 * total energy  :   -42.0810419 Eh     change       -0.6323830E-12 Eh
   gradient norm :     0.0039010 Eh/α   predicted     0.0000000E+00 (-100.00%)
   displ. norm   :     0.2133797 α      lambda       -0.5165531E-03
   maximum displ.:     0.2083627 α      in ANC's #1, #5, #2, ...

   *** GEOMETRY OPTIMIZATION CONVERGED AFTER 1 ITERATIONS ***

------------------------------------------------------------------------
 total energy gain   :        -0.0000000 Eh       -0.0000 kcal/mol
 total RMSD          :         0.0000000 a0        0.0000 Å
 total power (kW/mol):        -0.0000000 (step)   -0.0000 (real)
------------------------------------------------------------------------

 ANCopt (total)                0 d,  0 h,  0 min,  0.032 sec
 optimizer setup                ...        0 min,  0.000 sec (  1.176%)
 model hessian                  ...        0 min,  0.006 sec ( 19.158%)
 ANC generation                 ...        0 min,  0.001 sec (  2.745%)
 coordinate transformation      ...        0 min,  0.000 sec (  0.029%)
 single point calculation       ...        0 min,  0.023 sec ( 71.907%)
 optimization log               ...        0 min,  0.001 sec (  4.107%)
 hessian update                 ...        0 min,  0.000 sec (  0.005%)
 rational function              ...        0 min,  0.000 sec (  0.267%)

================
 final structure:
================
25
 xtb: 6.6.1 (8d0f1dd)
C            3.36120566925711        1.04338638725138        0.04387810440289
N            2.37283667062887       -0.00082017929874        0.01962423305391
C            2.59493569957770       -1.30704152775808       -0.02625308351554
N            1.42346210935611       -1.97431720196712       -0.02375046358060
C            0.41529481688956       -1.05795113896735        0.02364047466475
C            1.00897837664124        0.19838336335971        0.05486521570964
C            0.24717554380122        1.41154970101289        0.08164249592170
O            0.66740677377111        2.54708517211802        0.10331180756739
N           -1.16484086504685        1.14067494363903        0.07085788577252
C           -1.99592398802266        2.19263975585843        0.09751345560653
C           -1.77218785858428       -0.14959404775745        0.05318208533703
O           -2.96466840639842       -0.27518946274778        0.05434945361006
N           -0.91796863034569       -1.24933761585641        0.03018334195840
C           -1.49152461125214       -2.58383612197685        0.00903212104721
H            3.82310755178410        1.10520415869662        1.03076169244974
H            4.13522264734369        0.84763076413246       -0.69636128209103
H            2.87376758068150        1.99383538407079       -0.16922837305851
H            3.56341035029021       -1.76709659177857       -0.06413952612948
H           -1.55268738502263        3.17174969862793        0.10022399636357
H           -4.76824660595416        2.20702592293106       -0.70964969754139
H           -3.06825738591785        2.03703729528145       -0.00888425231848
H           -1.18551878791162       -3.14225388044069        0.89361617220005
H           -1.19038464334875       -3.11219809202731       -0.89556053846656
H           -2.57545310580593       -2.47885328699094        0.01381398979650
H            1.32128999768856       -2.97947485781239       -0.05549769086043

 Bond Distances (Angstroems)
 ---------------------------
C1-N2=1.4380         C1-H15=1.0914        C1-H16=1.0888        C1-H17=1.0892        N2-C1=1.4380         N2-C3=1.3258         
N2-C6=1.3788         C3-N2=1.3258         C3-N4=1.3482         C3-H18=1.0729        N4-C3=1.3482         N4-C5=1.3632         
N4-H25=1.0108        C5-N4=1.3632         C5-C6=1.3899         C5-N13=1.3469        C6-N2=1.3788         C6-C5=1.3899         
C6-C7=1.4328         C7-C6=1.4328         C7-O8=1.2110         C7-N9=1.4378         O8-C7=1.2110         N9-C7=1.4378         
N9-C10=1.3409        N9-C11=1.4262        C10-N9=1.3409        C10-H19=1.0748       C10-H21=1.0888       C11-N9=1.4262        
C11-O12=1.1991       C11-N13=1.3927       O12-C11=1.1991       N13-C5=1.3469        N13-C11=1.3927       N13-C14=1.4527       
C14-N13=1.4527       C14-H22=1.0899       C14-H23=1.0900       C14-H24=1.0890       H15-C1=1.0914        H16-C1=1.0888        
H17-C1=1.0892        H18-C3=1.0729        H19-C10=1.0748       H21-C10=1.0888       H22-C14=1.0899       H23-C14=1.0900       
H24-C14=1.0890       H25-N4=1.0108        
 C  H  Rav=1.0861 sigma=0.0066  Rmin=1.0729  Rmax=1.0914     9
 C  C  Rav=1.4113 sigma=0.0214  Rmin=1.3899  Rmax=1.4328     2
 N  H  Rav=1.0108 sigma=0.0000  Rmin=1.0108  Rmax=1.0108     1
 N  C  Rav=1.3865 sigma=0.0434  Rmin=1.3258  Rmax=1.4527    11
 O  C  Rav=1.2050 sigma=0.0060  Rmin=1.1991  Rmax=1.2110     2

 selected bond angles (degree)
 --------------------
H15-C1-N2=110.32               H16-C1-N2=110.28               H16-C1-H15=108.91              H17-C1-N2=108.83               
H17-C1-H15=108.48              H17-C1-H16=110.00              C3-N2-C1=126.93                C6-N2-C1=125.07                
C6-N2-C3=108.00                N4-C3-N2=110.00                H18-C3-N2=125.10               H18-C3-N4=124.90               
C5-N4-C3=108.06                H25-N4-C3=125.45               H25-N4-C5=126.50               C6-C5-N4=107.01                
N13-C5-N4=129.55               N13-C5-C6=123.44               C5-C6-N2=106.94                C7-C6-N2=130.45                
C7-C6-C5=122.59                O8-C7-C6=127.57                N9-C7-C6=111.25                N9-C7-O8=121.17                
C10-N9-C7=117.43               C11-N9-C7=126.07               C11-N9-C10=116.49              H19-C10-N9=117.33              
H21-C10-N9=119.76              H21-C10-H19=122.45             

 selected dihedral angles (degree)
 ---------------------------------
C3-N2-C1-H15=284.88           C3-N2-C1-H16= 45.23           C3-N2-C1-H17=165.98           C6-N2-C1-H15=104.16           
C6-N2-C1-H16=224.52           C6-N2-C1-H17=345.26           N4-C3-N2-C1=179.45            N4-C3-N2-C6=  0.06            
H18-C3-N2-C1=359.20           H18-C3-N2-C6=179.82           C5-N4-C3-N2=  0.09            C5-N4-C3-H18=180.33           
H25-N4-C3-N2=179.86           H25-N4-C3-H18=  0.11          C6-C5-N4-C3=359.80            C6-C5-N4-H25=180.03           
N13-C5-N4-C3=179.25           N13-C5-N4-H25=359.48          C5-C6-N2-C1=180.42            C5-C6-N2-C3=359.82            
C7-C6-N2-C1=  2.05            C7-C6-N2-C3=181.45            N2-C6-C5-N4=  0.23            N2-C6-C5-N13=180.74           
C7-C6-C5-N4=178.76            C7-C6-C5-N13=359.26           O8-C7-C6-N2=358.52            O8-C7-C6-C5=180.37            
N9-C7-C6-N2=178.11            N9-C7-C6-C5=359.97            C10-N9-C7-C6=179.81           C10-N9-C7-O8=359.43           
C11-N9-C7-C6=  0.75           C11-N9-C7-O8=180.37           H19-C10-N9-C7=  1.50          H19-C10-N9-C11=180.65         
H21-C10-N9-C7=173.96          H21-C10-N9-C11=353.11         

 CMA Distance (Angstroems)
 ---------------------------
R(CMA):  5.4096
           -------------------------------------------------
          |                Final Singlepoint                |
           -------------------------------------------------

          ...................................................
          :                      SETUP                      :
          :.................................................:
          :  # basis functions                  67          :
          :  # atomic orbitals                  67          :
          :  # shells                           39          :
          :  # electrons                        74          :
          :  max. iterations                   250          :
          :  Hamiltonian                  GFN2-xTB          :
          :  restarted?                      false          :
          :  GBSA solvation                  false          :
          :  PC potential                    false          :
          :  electronic temp.         2500.0000000     K    :
          :  accuracy                    1.0000000          :
          :  -> integral cutoff          0.2500000E+02      :
          :  -> integral neglect         0.1000000E-07      :
          :  -> SCF convergence          0.1000000E-05 Eh   :
          :  -> wf. convergence          0.1000000E-03 e    :
          :  Broyden damping             0.4000000          :
          ...................................................

 iter      E             dE          RMSdq      gap      omega  full diag
   1    -42.6011390 -0.426011E+02  0.115E-06    0.16       0.0  T
   2    -42.6011390  0.426326E-13  0.213E-06    0.16    9396.2  T
   3    -42.6011390 -0.106581E-12  0.146E-06    0.16   13674.6  T

   *** convergence criteria satisfied after 3 iterations ***

         #    Occupation            Energy/Eh            Energy/eV
      -------------------------------------------------------------
         1        2.0000           -0.9164369             -24.9375
       ...           ...                  ...                  ...
        31        2.0000           -0.6209796             -16.8977
        32        2.0000           -0.6150408             -16.7361
        33        2.0000           -0.6094532             -16.5841
        34        2.0000           -0.5843684             -15.9015
        35        2.0000           -0.5650863             -15.3768
        36        2.0000           -0.5600404             -15.2395
        37        1.1692           -0.4713487             -12.8261 (HOMO)
        38        0.8087           -0.4655767             -12.6690 (LUMO)
        39        0.0218           -0.4329693             -11.7817
        40        0.0004           -0.4001826             -10.8895
        41        0.0000           -0.3718754             -10.1192
        42                         -0.2876934              -7.8285
       ...                                ...                  ...
        67                          0.5491591              14.9434
      -------------------------------------------------------------
                  HL-Gap            0.0057720 Eh            0.1571 eV
             Fermi-level           -0.4686441 Eh          -12.7525 eV

 SCC (total)                   0 d,  0 h,  0 min,  0.023 sec
 SCC setup                      ...        0 min,  0.000 sec (  0.841%)
 Dispersion                     ...        0 min,  0.000 sec (  0.812%)
 classical contributions        ...        0 min,  0.000 sec (  0.303%)
 integral evaluation            ...        0 min,  0.005 sec ( 21.265%)
 iterations                     ...        0 min,  0.005 sec ( 21.018%)
 molecular gradient             ...        0 min,  0.013 sec ( 55.105%)
 printout                       ...        0 min,  0.000 sec (  0.599%)

         :::::::::::::::::::::::::::::::::::::::::::::::::::::
         ::                     SUMMARY                     ::
         :::::::::::::::::::::::::::::::::::::::::::::::::::::
         :: total energy             -42.081041870332 Eh    ::
         :: gradient norm              0.003900991698 Eh/a0 ::
         :: HOMO-LUMO gap              0.157063285867 eV    ::
         ::.................................................::
         :: SCC energy               -42.601138988464 Eh    ::
         :: -> isotropic ES            0.140864464190 Eh    ::
         :: -> anisotropic ES         -0.007109547330 Eh    ::
         :: -> anisotropic XC          0.012521255762 Eh    ::
         :: -> dispersion             -0.022878579658 Eh    ::
         :: repulsion energy           0.520013868216 Eh    ::
         :: add. restraining           0.000000000000 Eh    ::
         :: total charge               0.999999999999 e     ::
         :::::::::::::::::::::::::::::::::::::::::::::::::::::

           -------------------------------------------------
          |                Property Printout                |
           -------------------------------------------------

    * Orbital Energies and Occupations

         #    Occupation            Energy/Eh            Energy/eV
      -------------------------------------------------------------
         1        2.0000           -0.9164369             -24.9375
       ...           ...                  ...                  ...
        25        2.0000           -0.6703630             -18.2415
        26        2.0000           -0.6679968             -18.1771
        27        2.0000           -0.6619153             -18.0116
        28        2.0000           -0.6356908             -17.2980
        29        2.0000           -0.6304552             -17.1556
        30        2.0000           -0.6285713             -17.1043
        31        2.0000           -0.6209796             -16.8977
        32        2.0000           -0.6150408             -16.7361
        33        2.0000           -0.6094532             -16.5841
        34        2.0000           -0.5843684             -15.9015
        35        2.0000           -0.5650863             -15.3768
        36        2.0000           -0.5600404             -15.2395
        37        1.1692           -0.4713487             -12.8261 (HOMO)
        38        0.8087           -0.4655767             -12.6690 (LUMO)
        39        0.0218           -0.4329693             -11.7817
        40        0.0004           -0.4001826             -10.8895
        41        0.0000           -0.3718754             -10.1192
        42                         -0.2876934              -7.8285
        43                         -0.2086820              -5.6785
        44                         -0.1997471              -5.4354
        45                         -0.1523371              -4.1453
        46                         -0.1455954              -3.9619
        47                         -0.0824228              -2.2428
        48                         -0.0565684              -1.5393
       ...                                ...                  ...
        67                          0.5491591              14.9434
      -------------------------------------------------------------
                  HL-Gap            0.0057720 Eh            0.1571 eV
             Fermi-level           -0.4686441 Eh          -12.7525 eV

     #   Z          covCN         q      C6AA      α(0)
     1   6 C        3.692    -0.095    22.504     6.788
     2   7 N        2.834     0.083    19.795     6.608
     3   6 C        3.057     0.053    26.751     8.482
     4   7 N        2.795    -0.053    22.265     7.008
     5   6 C        3.047     0.105    25.638     8.304
     6   6 C        3.112    -0.024    28.451     8.738
     7   6 C        2.774     0.253    22.750     7.812
     8   8 O        0.857    -0.367    21.031     6.149
     9   7 N        2.740    -0.031    21.852     6.943
    10   6 C        2.814    -0.026    28.627     8.766
    11   6 C        2.738     0.309    21.744     7.635
    12   8 O        0.859    -0.350    20.700     6.100
    13   7 N        2.737    -0.050    22.199     6.998
    14   6 C        3.699    -0.074    22.085     6.721
    15   1 H        0.924     0.111     1.688     2.032
    16   1 H        0.925     0.105     1.741     2.063
    17   1 H        0.925     0.136     1.487     1.907
    18   1 H        0.926     0.127     1.561     1.954
    19   1 H        0.926     0.130     1.533     1.936
    20   1 H        0.000    -0.003     7.756     5.092
    21   1 H        0.925     0.133     1.511     1.922
    22   1 H        0.925     0.084     1.941     2.179
    23   1 H        0.925     0.083     1.948     2.183
    24   1 H        0.925     0.128     1.551     1.948
    25   1 H        0.860     0.231     0.960     1.534

 Mol. C6AA /au·bohr⁶  :       6823.489318
 Mol. C8AA /au·bohr⁸  :     155689.938525
 Mol. α(0) /au        :        127.802083


Wiberg/Mayer (AO) data.
largest (>0.10) Wiberg bond orders for each atom

 ---------------------------------------------------------------------------
     #   Z sym  total        # sym  WBO       # sym  WBO       # sym  WBO
 ---------------------------------------------------------------------------
     1   6 C    3.916 --     2 N    0.986    16 H    0.965    17 H    0.961
                            15 H    0.954
     2   7 N    3.687 --     3 C    1.403     6 C    1.148     1 C    0.986
     3   6 C    3.885 --     2 N    1.403     4 N    1.287    18 H    0.952
     4   7 N    3.608 --     3 C    1.287     5 C    1.192    25 H    0.918
     5   6 C    3.907 --     6 C    1.324    13 N    1.195     4 N    1.192
     6   6 C    3.916 --     5 C    1.324     2 N    1.148     7 C    1.114
     7   6 C    3.878 --     8 O    1.672     6 C    1.114     9 N    0.991
     8   8 O    1.963 --     7 C    1.672     9 N    0.113
     9   7 N    3.630 --    10 C    1.343    11 C    1.015     7 C    0.991
                             8 O    0.113
    10   6 C    3.346 --     9 N    1.343    19 H    0.958    21 H    0.915
    11   6 C    3.915 --    12 O    1.713    13 N    1.086     9 N    1.015
    12   8 O    2.032 --    11 C    1.713    13 N    0.136
    13   7 N    3.575 --     5 C    1.195    11 C    1.086    14 C    0.970
                            12 O    0.136
    14   6 C    3.924 --    23 H    0.972    22 H    0.972    13 N    0.970
                            24 H    0.965
    15   1 H    0.984 --     1 C    0.954
    16   1 H    0.987 --     1 C    0.965
    17   1 H    0.981 --     1 C    0.961
    18   1 H    0.983 --     3 C    0.952
    19   1 H    0.980 --    10 C    0.958
    20   1 H    0.077
    21   1 H    0.981 --    10 C    0.915
    22   1 H    0.992 --    14 C    0.972
    23   1 H    0.992 --    14 C    0.972
    24   1 H    0.983 --    14 C    0.965
    25   1 H    0.946 --     4 N    0.918
 ---------------------------------------------------------------------------

Topologies differ in total number of bonds
Writing topology from bond orders to xtbtopo.mol

molecular dipole:
                 x           y           z       tot (Debye)
 q only:        2.633      -2.147      -0.027
   full:        2.870      -2.622      -0.060       9.882
molecular quadrupole (traceless):
                xx          xy          yy          xz          yz          zz
 q only:       13.069      -7.693       5.327      -0.022       0.160     -18.396
  q+dip:       10.966     -11.439       5.415       0.334      -0.020     -16.381
   full:        9.698     -10.941       4.467       0.268      -0.096     -14.165

           -------------------------------------------------
          |                Geometry Summary                 |
           -------------------------------------------------

      molecular mass/u    :      195.1988581
   center of mass at/Å    :        0.0874675       0.0102220       0.0377473
  moments of inertia/u·Å² :        0.4763844E+03   0.7315128E+03   0.1200092E+04
rotational constants/cm⁻¹ :        0.3538661E-01   0.2304489E-01   0.1404695E-01

 * 24 selected distances

     #   Z          #   Z                                           value/Å
     1   6 C        2   7 N                                       1.4379949
     2   7 N        3   6 C                                       1.3257629
     3   6 C        4   7 N                                       1.3481891
     4   7 N        5   6 C                                       1.3632220
     2   7 N        6   6 C                                       1.3787798
     5   6 C        6   6 C                                       1.3898964
     6   6 C        7   6 C                                       1.4327713
     7   6 C        8   8 O                                       1.2109934
     9   7 N       10   6 C                                       1.3409101
     9   7 N       11   6 C                                       1.4261757
    11   6 C       12   8 O                                       1.1990770
     5   6 C       13   7 N                                       1.3469459
    11   6 C       13   7 N                                       1.3927152
    13   7 N       14   6 C                                       1.4526873 (max)
     1   6 C       15   1 H                                       1.0913818
     1   6 C       16   1 H                                       1.0887503
     1   6 C       17   1 H                                       1.0892033
     3   6 C       18   1 H                                       1.0728604
    10   6 C       19   1 H                                       1.0747663
    10   6 C       21   1 H                                       1.0887753
    14   6 C       22   1 H                                       1.0899354
    14   6 C       23   1 H                                       1.0900182
    14   6 C       24   1 H                                       1.0890112
     4   7 N       25   1 H                                       1.0108359 (min)

 * 5 distinct bonds (by element types)

   Z      Z             #   av. dist./Å        max./Å        min./Å
   1 H    6 C           9     1.0860780     1.0913818     1.0728604
   6 C    6 C           2     1.4113338     1.4327713     1.3898964
   1 H    7 N           1     1.0108359     1.0108359     1.0108359
   6 C    7 N          10     1.3813383     1.4526873     1.3257629
   6 C    8 O           2     1.2050352     1.2109934     1.1990770


optimized geometry written to: xtbopt.xyz


           -------------------------------------------------
          | TOTAL ENERGY              -42.081041870332 Eh   |
          | GRADIENT NORM               0.003900991698 Eh/α |
          | HOMO-LUMO GAP               0.157063285867 eV   |
           -------------------------------------------------

------------------------------------------------------------------------
 * finished run on 2024/06/05 at 19:58:02.745     
------------------------------------------------------------------------
 total:
 * wall-time:     0 d,  0 h,  0 min,  0.120 sec
 *  cpu-time:     0 d,  0 h,  0 min,  0.096 sec
 * ratio c/w:     0.795 speedup
 SCF:
 * wall-time:     0 d,  0 h,  0 min,  0.026 sec
 *  cpu-time:     0 d,  0 h,  0 min,  0.026 sec
 * ratio c/w:     1.000 speedup
 ANC optimizer:
 * wall-time:     0 d,  0 h,  0 min,  0.061 sec
 *  cpu-time:     0 d,  0 h,  0 min,  0.056 sec
 * ratio c/w:     0.914 speedup

