25
 energy: 0.000000000000 xtb: 6.6.1 (8d0f1dd)
C            3.23720163006194        1.16630919979326        0.08434469647475
N            2.29877817382611        0.07527477071623        0.03981603040599
C            2.58028210190900       -1.21425402444508        0.03006176031096
N            1.43813958087363       -1.93419271955128        0.00098261760884
C            0.39035688448383       -1.05887472636071       -0.00790371836672
C            0.93510056364412        0.21347819449412        0.01709077491437
C            0.09450143893243        1.40504303904423       -0.00410947031874
O            0.49712751527797        2.54126714362870       -0.00342325688240
N           -1.25076640035757        1.06271879480407       -0.03085478223738
C           -2.21907211982101        2.15522099834493       -0.05001256985998
C           -1.81739487048744       -0.20012725993278       -0.04692818574614
O           -2.99983886758376       -0.37846417018721       -0.07008878229737
N           -0.92618586207120       -1.30210215599479       -0.03682761578324
C           -1.46982264913417       -2.64643102187190       -0.06029820460571
H            3.71247264356769        1.21471455160235        1.06488849150277
H            4.00791497605742        1.03430808813993       -0.67357694370751
H            2.69910007168542        2.09770118228144       -0.09130154882931
H            3.56654120610678       -1.63682992603973        0.04233140067262
H           -1.67107961066214        3.09322851271934       -0.02552706933167
H           -2.82428953597071        2.09428624779827       -0.95318082946668
H           -2.87644029173232        2.07745725625962        0.81450067533302
H           -1.17061996399332       -3.19584890659852        0.83242232437030
H           -1.14560257411436       -3.17511610292205       -0.95688275822323
H           -2.55549792440841       -2.55659984320617       -0.07459039797972
H            1.38130855184625       -2.94313852034425       -0.01389874181052
25
 energy: -5.394471316928 xtb: 6.6.1 (8d0f1dd)
C            3.24426431353085        1.17840566823347        0.08675427172388
N            2.30863029112789        0.09613593102889        0.03775915940823
C            2.60050531755833       -1.23189736047384        0.03010604947321
N            1.42859332593541       -1.93994642169369        0.00087102967112
C            0.39700710563079       -1.05641086798491       -0.00825288034061
C            0.93070485565590        0.22258951368424        0.01527572951885
C            0.10212727359703        1.39597834174639       -0.00524942987759
O            0.49857097998641        2.56192231214544       -0.00462129354632
N           -1.25976403622127        1.05030898093066       -0.03111658939846
C           -2.22014191645121        2.14628413021923       -0.04985630755242
C           -1.82290050518374       -0.20106181648030       -0.04732784225195
O           -3.01952364493963       -0.38343347070949       -0.07044781522617
N           -0.93379231134559       -1.30154333176669       -0.03706524947275
C           -1.47404849450564       -2.64316966222530       -0.06026584739748
H            3.72277187334123        1.22438344760439        1.06869083053064
H            4.01227261314253        1.04399851761652       -0.67639132382921
H            2.69735428648783        2.10301256711926       -0.08854895657659
H            3.57889741483995       -1.65782196702962        0.04278271663352
H           -1.65875408165199        3.07765362418688       -0.02534723752335
H           -2.82549839092698        2.09270334816806       -0.95427075351834
H           -2.87768982341189        2.07604201904730        0.81601311250999
H           -1.17265308807043       -3.19546810015874        0.83182346968013
H           -1.14757951056410       -3.17494262336040       -0.95611120301593
H           -2.55921811472595       -2.55104298060015       -0.07464088319907
H            1.36207893510050       -2.94365119707557       -0.01352886027603
25
 energy: -6.558841055789 xtb: 6.6.1 (8d0f1dd)
C            3.25189464170900        1.18726029451382        0.08931587749202
N            2.31670362586634        0.10861276863944        0.03418757984729
C            2.61227543860044       -1.24460119896190        0.03036629675290
N            1.41832336415972       -1.93831490730833        0.00129540884257
C            0.40153745066605       -1.05276439328301       -0.00895276881881
C            0.92821592627603        0.23033085864406        0.01248364094431
C            0.10888405359763        1.38367866769221       -0.00756757295022
O            0.48688112520934        2.56514818142326       -0.00765714065465
N           -1.26910474656502        1.03801121238998       -0.03183388078979
C           -2.21991751109644        2.13760243904737       -0.04964979978607
C           -1.82454168466630       -0.20360922216247       -0.04783698624753
O           -3.02541477857266       -0.39185356875561       -0.07063007443993
N           -0.93894559448101       -1.29958425801556       -0.03737976797815
C           -1.47829989435067       -2.63865024282211       -0.06014968983769
H            3.73850557948199        1.23694606433160        1.06937252211527
H            4.01901861471907        1.06296123477001       -0.67852955867690
H            2.69898806677123        2.10955889596582       -0.08055070308043
H            3.58412812701289       -1.67692007648004        0.04370084295982
H           -1.64039837151601        3.05860529885907       -0.02513261540173
H           -2.82630328197764        2.09169259881437       -0.95438841808226
H           -2.87782786722153        2.07513010341509        0.81713579623456
H           -1.17837369446707       -3.19444656451134        0.83142971583419
H           -1.15308797044047       -3.17441469128406       -0.95526892788007
H           -2.56325922506600       -2.54148290391472       -0.07468361868578
H            1.34233327428730       -2.93986798883492       -0.01204226156559
25
 energy: -6.610450455697 xtb: 6.6.1 (8d0f1dd)
C            3.25583146453579        1.19147902680136        0.09093485635558
N            2.32159280772978        0.11057633643323        0.03106101910617
C            2.61494697651262       -1.24987110058177        0.03049007982866
N            1.41522335210143       -1.93616718294671        0.00216642480527
C            0.40346812939250       -1.05175682285712       -0.00967771866078
C            0.92959118691309        0.23290841932352        0.01001417844975
C            0.11131540409525        1.37954596312795       -0.01046319441961
O            0.47439711405894        2.56474236501012       -0.01172939126648
N           -1.27388217734990        1.03229322464273       -0.03304225425383
C           -2.21894897135586        2.13366232445972       -0.04960148708048
C           -1.82466246434480       -0.20740192350154       -0.04844590670403
O           -3.02507011419084       -0.40059914360156       -0.07075074083755
N           -0.93885363114832       -1.29958182295709       -0.03767388497823
C           -1.48110026519476       -2.63663208905674       -0.05988017765770
H            3.75015864135055        1.24205296753311        1.06782973911577
H            4.02188298979832        1.08146384513104       -0.68099573384635
H            2.70010630986624        2.11462267919097       -0.06953230858266
H            3.58392507925846       -1.68811347991403        0.04457022032685
H           -1.62764619763723        3.04712328010024       -0.02525043986173
H           -2.82640789068244        2.09209514989533       -0.95382410925338
H           -2.87629438662611        2.07534626450294        0.81790857494898
H           -1.18534197064700       -3.19393974341287        0.83212329269609
H           -1.15968909445176       -3.17470914832561       -0.95497717182496
H           -2.56588861623356       -2.53242373870166       -0.07460957373817
H            1.33356099218580       -2.93768704812351       -0.00961039651990
25
 energy: -6.451970675193 xtb: 6.6.1 (8d0f1dd)
C            3.25994954230049        1.19776293575714        0.09413981040708
N            2.32967808463116        0.11055892721816        0.02510571818739
C            2.61765019188663       -1.25519366778219        0.03021731430784
N            1.41478942614119       -1.93333395211659        0.00421086292018
C            0.40638780995461       -1.05134454636901       -0.01128322116660
C            0.93413519175337        0.23502642016276        0.00484277993657
C            0.11468174095101        1.37612759552253       -0.01746758076230
O            0.45575359551946        2.56433765618240       -0.02153090559926
N           -1.27871322579087        1.02444804524307       -0.03635929904126
C           -2.21625045346383        2.12856061649019       -0.04976102997945
C           -1.82427293391550       -0.21458953798412       -0.05003127384315
O           -3.02322207929726       -0.41491205900988       -0.07093216114330
N           -0.93609418068197       -1.30131155298310       -0.03836400751889
C           -1.48634173693318       -2.63480008127357       -0.05900458180950
H            3.76951009652056        1.24199317633387        1.06431656640940
H            4.02064474002544        1.11699308101454       -0.68843321718459
H            2.69735218890206        2.12221438583024       -0.04256584023431
H            3.58259443965469       -1.70320062489447        0.04626525429723
H           -1.60948838054165        3.03169034151928       -0.02618176733938
H           -2.82641958151552        2.09380791453256       -0.95231364807162
H           -2.87149305601411        2.07628655444688        0.81962128899008
H           -1.19987261386265       -3.19408449215734        0.83440562081152
H           -1.17327307054155       -3.17714432562061       -0.95411597712229
H           -2.57056685091658       -2.51581494978974       -0.07424583219011
H            1.32509578317021       -2.93504925810100       -0.00350097711402
25
 energy: -5.666452111767 xtb: 6.6.1 (8d0f1dd)
C            3.26346412712417        1.20972814431834        0.10211063553730
N            2.34412009032124        0.10921585639903        0.01251423519814
C            2.62319019704799       -1.26117278994111        0.02822159825350
N            1.41902064426054       -1.92975267209596        0.00862643532986
C            0.41204759844933       -1.05210604368804       -0.01522716010063
C            0.94375163605208        0.23660997990529       -0.00724016422945
C            0.12193762051498        1.37136626595803       -0.03501638010226
O            0.42961679778070        2.56348215676189       -0.04612752513421
N           -1.28287923631353        1.01102182364928       -0.04534006185213
C           -2.20939652708916        2.12008678601688       -0.05064345044436
C           -1.82227058460250       -0.22737298501505       -0.05416701751169
O           -3.01899758647398       -0.43767235510428       -0.07117481483781
N           -0.92926780480914       -1.30668829597028       -0.04017926428356
C           -1.49788207488907       -2.63311181384938       -0.05635689589562
H            3.80811308785513        1.22674394297127        1.05638019159965
H            4.00556182701773        1.19265963249586       -0.70886652059664
H            2.68252936932016        2.13499400031274        0.02591031527118
H            3.58145522281478       -1.72545319249931        0.04986803001048
H           -1.58074785407459        3.00817793130027       -0.02970644733640
H           -2.82654408423419        2.09718920031864       -0.94864733781344
H           -2.85825372000295        2.07741228930186        0.82393458823428
H           -1.23090659878472       -3.19564836658098        0.84046282451839
H           -1.20197269477387       -3.18528005275589       -0.95073917530473
H           -2.58047819234012       -2.48382698437546       -0.07294642781955
H            1.31700340776514       -2.93157385566158        0.01138368545702
25
 energy: 0.887974913398 xtb: 6.6.1 (8d0f1dd)
C            3.26842834394754        1.24343543921400        0.12731090845804
N            2.38337135476058        0.10446433799469       -0.02500756449833
C            2.63937158365617       -1.27430831223139        0.02119701236435
N            1.43516501899064       -1.92131920523552        0.02158141831617
C            0.42794093303485       -1.05604733502330       -0.02771898454232
C            0.97116289400328        0.23859324020899       -0.04469721351661
C            0.14450752400168        1.35920226998934       -0.08983963884982
O            0.36713991155692        2.56003533755399       -0.12310364178117
N           -1.28966614737720        0.97547230363696       -0.07402633677441
C           -2.18859619548923        2.09764315805395       -0.05360837842095
C           -1.81495683649956       -0.26122984946693       -0.06721374841661
O           -3.00605841632583       -0.49514712767592       -0.07166178124528
N           -0.90920147817010       -1.32374359193795       -0.04612999724717
C           -1.53184689692180       -2.63014157081301       -0.04774523108253
H            3.92086607647397        1.16739850935439        1.03076749350390
H            3.94662125570404        1.41594727839957       -0.77149173766783
H            2.63190643258805        2.16802391987570        0.23961930735742
H            3.57998080879154       -1.78145914265968        0.06096614990531
H           -1.50681290763317        2.94835901549304       -0.04171827267414
H           -2.82763458966667        2.10613701576714       -0.93692255596068
H           -2.81625748344181        2.07877073502282        0.83763371588313
H           -1.32092911477147       -3.20070646198237        0.85938848959355
H           -1.28490934119079       -3.21183181214852       -0.93878434150133
H           -2.60906693784028       -2.39528971637508       -0.06859081025867
H            1.30168887575464       -2.92322983284281        0.05682963520321
25
 energy: -1.790836143323 xtb: 6.6.1 (8d0f1dd)
C            3.26245624363986        1.23817139809266        0.12678883465331
N            2.37561223491519        0.10432553612266       -0.02112295797109
C            2.63620822642384       -1.26658377854953        0.02287049292879
N            1.43769034568929       -1.92329628713240        0.02031737301992
C            0.42456866628672       -1.05695153354747       -0.02868655630858
C            0.96765226239756        0.23593194839353       -0.04488778625391
C            0.14331591188329        1.36403215219287       -0.08937535680854
O            0.38809715164146        2.55904728123617       -0.12230552513364
N           -1.28360366882283        0.98404517994711       -0.07331026708816
C           -2.19127319469229        2.10246577950603       -0.05052399331967
C           -1.81493544231662       -0.25374825067254       -0.06686973695365
O           -3.00743367097998       -0.47834496626393       -0.07029797742019
N           -0.91143845521282       -1.32352464309818       -0.04733499907137
C           -1.52768384929001       -2.63332824818638       -0.04918245933491
H            3.89894803735519        1.17181917889407        1.03027752214622
H            3.94339111356160        1.37936573941453       -0.74999466974960
H            2.64194063918175        2.15580710363710        0.21040087962551
H            3.58052455173422       -1.76448574199167        0.06037037512780
H           -1.52843246401748        2.96425763602244       -0.03858611226853
H           -2.83005808077410        2.10511031672853       -0.93315697520939
H           -2.81702849021517        2.07465094742236        0.84107784990288
H           -1.30979872606029       -3.20080022189037        0.85677555656003
H           -1.27540969791954       -3.21120815221258       -0.93971412498912
H           -2.60393397971688       -2.41295853342660       -0.06938473501946
H            1.31283900324406       -2.92477123846631        0.05288924508260
25
 energy: -1.483390950594 xtb: 6.6.1 (8d0f1dd)
C            3.24543948028703        1.24996787678803        0.15026972308177
N            2.38256167215718        0.10277794845758       -0.04391451578736
C            2.64252937210741       -1.25130090142907        0.02340101866184
N            1.45903575869228       -1.92339568951465        0.02892074461177
C            0.42759100636606       -1.06440840513134       -0.04523978331986
C            0.97742649066533        0.22827509227754       -0.08339471110325
C            0.16092983358308        1.36707439510314       -0.14355444640574
O            0.41014224937880        2.55440802783778       -0.20275338570944
N           -1.26658055894147        0.98101616550079       -0.10052795286748
C           -2.18044635409364        2.09787019851095       -0.04156396991109
C           -1.80682678220281       -0.25574589521495       -0.07895231112463
O           -3.00086308097753       -0.46578090588776       -0.06526687974755
N           -0.90376730313138       -1.33830415053003       -0.05894756684705
C           -1.54549933605474       -2.64107398560463       -0.04623048077676
H            3.92989382899232        1.12323388454327        1.00247171129973
H            3.86774788131884        1.46348532559255       -0.73479235645345
H            2.62537323299640        2.13805505144203        0.32202011859999
H            3.58491003272686       -1.75181742371314        0.07026411493163
H           -1.53557715674951        2.96720530862719       -0.03933142897926
H           -2.84257764640582        2.10816587973179       -0.90577560347382
H           -2.77689523290413        2.05705759391953        0.86924853702961
H           -1.35139091783082       -3.20332040780810        0.86565968648644
H           -1.31620745612578       -3.23439053916419       -0.93013300725259
H           -2.61331230272080       -2.39698613675743       -0.06846781417353
H            1.33857795680279       -2.92303970540481        0.08362445537732
25
 energy: 0.241660527491 xtb: 6.6.1 (8d0f1dd)
C            3.21120240333175        1.26548161288465        0.19420638597082
N            2.38687814991868        0.10639140065572       -0.08842966218229
C            2.65696405998540       -1.21855137269212        0.02987940850071
N            1.49439027629667       -1.92753922286621        0.04566081548430
C            0.43184873586336       -1.07952086179740       -0.07663613246480
C            0.98652603380369        0.21206106323268       -0.15727486092297
C            0.18963507862563        1.36956827585506       -0.24361472860505
O            0.47219473703712        2.54934221756934       -0.36443235963118
N           -1.22876521886285        0.97911451441321       -0.15148028542599
C           -2.15953183716605        2.09073473630059       -0.02403021974385
C           -1.79007560972676       -0.25036367756966       -0.10016267528074
O           -2.99111483879058       -0.42283935859169       -0.05337294500051
N           -0.89634474098659       -1.36506437034934       -0.08232843638572
C           -1.57746995449984       -2.65481307536835       -0.04163140664253
H            3.98102194581594        1.01827588065629        0.94180733686289
H            3.70848916026134        1.61429964705364       -0.70495999141935
H            2.58922438042477        2.08422896388145        0.54449546679798
H            3.60081959334928       -1.71057141866165        0.08943802227593
H           -1.55590262744478        2.98565851048745       -0.04438793431085
H           -2.86870978674731        2.10757243251656       -0.85093279822497
H           -2.69902852608894        2.01852065711834        0.92399209619221
H           -1.41774994638270       -3.20214124998747        0.88274328990987
H           -1.37563486098423       -3.27666445579250       -0.90850368936356
H           -2.62965663419374       -2.38162909303868       -0.07200240650352
H            1.39300469509654       -2.92252315373774        0.13899160626040
25
 energy: 5.676410733944 xtb: 6.6.1 (8d0f1dd)
C            3.17805784786128        1.28066318084906        0.23863340853852
N            2.39504566834104        0.10616394736864       -0.13641424480528
C            2.67025389075956       -1.19380469779020        0.03813115718701
N            1.52870210590107       -1.93041013513909        0.05945035189874
C            0.43867498166979       -1.09438873270977       -0.10764260632018
C            0.99861265236817        0.19614283105484       -0.23294440249500
C            0.21628482667621        1.36980264211982       -0.34499393367171
O            0.51960466261115        2.53589505624221       -0.51953595909049
N           -1.19717582590148        0.97624088081685       -0.20018321115232
C           -2.13673247214747        2.08378518897575       -0.00779357213427
C           -1.77297832554061       -0.24955865658128       -0.12016919564843
O           -2.97694999621761       -0.39503294933282       -0.03993015272779
N           -0.88518752741142       -1.38956012426963       -0.10463619380318
C           -1.60949480716299       -2.66456757557100       -0.03626221240613
H            4.03580059095293        0.92453263003907        0.87469015600070
H            3.55178112045176        1.78904391689098       -0.67726764107480
H            2.55487460538527        2.02941480249938        0.77716068377091
H            3.61480989926698       -1.68246492594004        0.10853046506782
H           -1.56500930116528        2.99540402830308       -0.05297943654381
H           -2.89322592133438        2.10393154064861       -0.79528162243667
H           -2.61871091453936        1.98752713842786        0.97515423312017
H           -1.49125934713795       -3.19769507975351        0.90315214202863
H           -1.43535375324994       -3.31863622472945       -0.88489738246247
H           -2.64857926072631       -2.35164136367169       -0.07946946732116
H            1.44036926822525       -2.92175871657550        0.19253253262842
25
 energy: 5.015876079723 xtb: 6.6.1 (8d0f1dd)
C            3.15447439896611        1.25548080201098        0.26096572141386
N            2.37149068958222        0.12413529340492       -0.18415720631071
C            2.68356252778075       -1.18424595575264        0.07732950910832
N            1.52769611935264       -1.94492975668674        0.05876522368628
C            0.44681804415362       -1.10551922302372       -0.12224992485943
C            0.97427103557332        0.17945271504281       -0.28750336090293
C            0.19332430815149        1.35072598269669       -0.39151573165166
O            0.59540136838465        2.50737438859157       -0.60531525662465
N           -1.17416594257047        0.99430305170079       -0.21638231502439
C           -2.11783769175163        2.09005878438335       -0.00254565465788
C           -1.75442696448684       -0.22394033005006       -0.12254279774275
O           -2.96160976977307       -0.34816534615310       -0.02335942856713
N           -0.89369023317060       -1.39180292112761       -0.11807904492545
C           -1.62049412401883       -2.65378429094224       -0.03380013860856
H            4.03954960905784        0.85729781142263        0.75738497213235
H            3.38844096442706        1.93072218126768       -0.64958481565149
H            2.54456939804399        1.88886493582755        0.98523066783548
H            3.64998224554311       -1.62738278073141        0.11945187988482
H           -1.57643221412537        3.03387655534468       -0.07791457410479
H           -2.90516318486993        2.06736038579719       -0.75337452918707
H           -2.56318064956357        1.97050511119809        0.98716860985823
H           -1.50048269882513       -3.16760728355794        0.92300065583641
H           -1.40650860402016       -3.33544584400925       -0.85421269722190
H           -2.66313407217393       -2.34624580597472       -0.10819857861376
H            1.47976010826827       -2.93205985850727        0.20847271104608
25
 energy: 5.026779872895 xtb: 6.6.1 (8d0f1dd)
C            3.12291227131540        1.26477901537603        0.28978722889127
N            2.35657073876281        0.14393135872753       -0.21144852009224
C            2.69343229977465       -1.18269138312578        0.10659420253583
N            1.52132553226205       -1.94692377545738        0.05566829849483
C            0.46169436240873       -1.11344161789100       -0.14647048390351
C            0.95950214459893        0.16963939691208       -0.34115470652217
C            0.16882811857394        1.32669466580393       -0.47276329623985
O            0.60116282904530        2.48245104775550       -0.67817000769949
N           -1.17189925642699        0.99741717916066       -0.24906568897961
C           -2.10507509155043        2.08977021291751        0.00980650159946
C           -1.73842932283657       -0.22178777888920       -0.13738260505730
O           -2.94377349733807       -0.35684115368307       -0.00799869913436
N           -0.89360049819307       -1.38515438243687       -0.14242067741854
C           -1.63021460438808       -2.63418803329037       -0.03364119853884
H            4.07467058764972        0.82768898335492        0.68244104536461
H            3.29027880341278        1.98800566744675       -0.56580408082500
H            2.55612903192120        1.82640166489880        1.09512605249173
H            3.67506599761334       -1.59825273434861        0.12005417933578
H           -1.55007289974008        3.02982613728891       -0.08319323291414
H           -2.93670283793177        2.05705837780817       -0.70377566842338
H           -2.50339106155564        1.96448254766467        1.02438220087367
H           -1.51043514022277       -3.13753375705294        0.93490239233860
H           -1.40521208474201       -3.34682076495639       -0.83705963215354
H           -2.67982671050833       -2.31957835766582       -0.11915405453188
H            1.49927495603041       -2.93590391414575        0.23777434665526
25
 energy: 5.553842113442 xtb: 6.6.1 (8d0f1dd)
C            3.09301652258796        1.27102655452953        0.32918619131225
N            2.35668719670139        0.14403333091730       -0.22820327711973
C            2.69647393581011       -1.19271836013455        0.12294987044071
N            1.51344812451605       -1.94855926015088        0.05625243228581
C            0.47658298561924       -1.12681861138969       -0.18100219173476
C            0.96283196691116        0.15301234933594       -0.39992727053870
C            0.15879993682171        1.29872957298237       -0.58702489469069
O            0.57707645347390        2.45462011472040       -0.78289385925379
N           -1.17360127178352        0.99520572527928       -0.29273252859019
C           -2.08399173843972        2.08968126886651        0.03064223188672
C           -1.72412961866307       -0.23023517677514       -0.15342497337057
O           -2.92554817753099       -0.37762884777253        0.01509484213065
N           -0.89078930393388       -1.37406554855563       -0.17719042307058
C           -1.63823127960265       -2.61237327426877       -0.03371448276960
H            4.06161486330639        0.85595032502892        0.64089014794064
H            3.22293991143442        2.06082081376935       -0.46111069704845
H            2.55232221983795        1.75715920251845        1.19249111566455
H            3.68797835550611       -1.59042422291682        0.09393548527512
H           -1.50481550656980        3.01079660755837       -0.08130537131437
H           -2.96491610710656        2.06485044814188       -0.63492382778533
H           -2.42364220653044        1.96595579291995        1.07560889885898
H           -1.51828069831574       -3.09676387597088        0.94589264767698
H           -1.41602133205822       -3.34869812158582       -0.82126586351697
H           -2.69140223685538       -2.29761477505811       -0.12086427255906
H            1.50781167279898       -2.93691342981712        0.27967396603760
25
 energy: 9.239062430994 xtb: 6.6.1 (8d0f1dd)
C            3.04711612571950        1.27952307964557        0.38468163772713
N            2.36007499919242        0.13600678568428       -0.23371571627463
C            2.68815306476229       -1.18964996852730        0.13555712053518
N            1.51485442823548       -1.94487742736588        0.07400524310204
C            0.47906228233614       -1.14248121062059       -0.22278959473885
C            0.97414845467016        0.13552482058479       -0.45796564802638
C            0.17071208425386        1.27814753026869       -0.70530582680835
O            0.54688779553852        2.43179233170816       -0.96362875414764
N           -1.17032357418053        0.98978887790182       -0.33876576535363
C           -2.04959811200030        2.08896744839865        0.05855332603013
C           -1.71573742188836       -0.23946387019231       -0.16718955933645
O           -2.91309962311275       -0.37494755679397        0.04329487226591
N           -0.89051016520819       -1.37033389130615       -0.22079997615800
C           -1.64139405465283       -2.60499964819173       -0.03819918147386
H            4.08546947384292        0.86183208501873        0.60454104684874
H            3.10972359291545        2.14003901769196       -0.36389050792983
H            2.52009220773918        1.68612244567250        1.32952879794305
H            3.68437803687921       -1.57879475209527        0.05512910996626
H           -1.46540198506955        2.99829625816800       -0.07790283421412
H           -2.97404588298154        2.08110665382172       -0.54932847261443
H           -2.32573979044151        1.95719145368443        1.12735642122084
H           -1.52569258072735       -3.05145382366957        0.95696575062386
H           -1.42596601949379       -3.35421228353440       -0.80565037436654
H           -2.69032673860481       -2.29804745390464       -0.12909163411900
H            1.51937807021163       -2.92604829987519        0.33164441544579
25