      -----------------------------------------------------------      
     |                   =====================                   |     
     |                           x T B                           |     
     |                   =====================                   |     
     |                         S. Grimme                         |     
     |          Mulliken Center for Theoretical Chemistry        |     
     |                    University of Bonn                     |     
      -----------------------------------------------------------      

   * xtb version 6.6.1 (8d0f1dd) compiled by 'conda@1efc2f54142f' on 2023-08-01

   xtb is free software: you can redistribute it and/or modify it under
   the terms of the GNU Lesser General Public License as published by
   the Free Software Foundation, either version 3 of the License, or
   (at your option) any later version.
   
   xtb is distributed in the hope that it will be useful,
   but WITHOUT ANY WARRANTY; without even the implied warranty of
   MERCHANTABILITY or FITNESS FOR A PARTICULAR PURPOSE.  See the
   GNU Lesser General Public License for more details.
   
   Cite this work as:
   * C. Bannwarth, E. Caldeweyher, S. Ehlert, A. Hansen, P. Pracht,
     J. Seibert, S. Spicher, S. Grimme, WIREs Comput. Mol. Sci., 2020, 11,
     e01493. DOI: 10.1002/wcms.1493
   
   for GFN2-xTB:
   * C. Bannwarth, S. Ehlert and S. Grimme., J. Chem. Theory Comput., 2019,
     15, 1652-1671. DOI: 10.1021/acs.jctc.8b01176
   for GFN1-xTB:
   * S. Grimme, C. Bannwarth, P. Shushkov, J. Chem. Theory Comput., 2017,
     13, 1989-2009. DOI: 10.1021/acs.jctc.7b00118
   for GFN0-xTB:
   * P. Pracht, E. Caldeweyher, S. Ehlert, S. Grimme, ChemRxiv, 2019, preprint.
     DOI: 10.26434/chemrxiv.8326202.v1
   for GFN-FF:
   * S. Spicher and S. Grimme, Angew. Chem. Int. Ed., 2020, 59, 15665-15673.
     DOI: 10.1002/anie.202004239
   
   for ALPB and GBSA implicit solvation:
   * S. Ehlert, M. Stahn, S. Spicher, S. Grimme, J. Chem. Theory Comput.,
     2021, 17, 4250-4261. DOI: 10.1021/acs.jctc.1c00471
   
   for DFT-D4:
   * E. Caldeweyher, C. Bannwarth and S. Grimme, J. Chem. Phys., 2017,
     147, 034112. DOI: 10.1063/1.4993215
   * E. Caldeweyher, S. Ehlert, A. Hansen, H. Neugebauer, S. Spicher,
     C. Bannwarth and S. Grimme, J. Chem. Phys., 2019, 150, 154122.
     DOI: 10.1063/1.5090222
   * E. Caldeweyher, J.-M. Mewes, S. Ehlert and S. Grimme, Phys. Chem. Chem. Phys.
     2020, 22, 8499-8512. DOI: 10.1039/D0CP00502A
   
   for sTDA-xTB:
   * S. Grimme and C. Bannwarth, J. Chem. Phys., 2016, 145, 054103.
     DOI: 10.1063/1.4959605
   
   in the mass-spec context:
   * V. Asgeirsson, C. Bauer and S. Grimme, Chem. Sci., 2017, 8, 4879.
     DOI: 10.1039/c7sc00601b
   * J. Koopman and S. Grimme, ACS Omega 2019, 4, 12, 15120-15133.
     DOI: 10.1021/acsomega.9b02011
   
   for metadynamics refer to:
   * S. Grimme, J. Chem. Theory Comput., 2019, 155, 2847-2862
     DOI: 10.1021/acs.jctc.9b00143
   
   for SPH calculations refer to:
   * S. Spicher and S. Grimme, J. Chem. Theory Comput., 2021, 17, 1701-1714
     DOI: 10.1021/acs.jctc.0c01306
   
   with help from (in alphabetical order)
   P. Atkinson, C. Bannwarth, F. Bohle, G. Brandenburg, E. Caldeweyher
   M. Checinski, S. Dohm, S. Ehlert, S. Ehrlich, I. Gerasimov, C. Hölzer
   A. Katbashev, J. Koopman, C. Lavigne, S. Lehtola, F. März, M. Müller,
   F. Musil, H. Neugebauer, J. Pisarek, C. Plett, P. Pracht, F. Pultar,
   J. Seibert, P. Shushkov, S. Spicher, M. Stahn, M. Steiner, T. Strunk,
   J. Stückrath, T. Rose, and J. Unsleber
   
 * started run on 2024/04/06 at 11:14:29.560     

           -------------------------------------------------
          |                Calculation Setup                |
           -------------------------------------------------

          program call               : xtb xtbopt.xyz --opt crude --input .xc2 --gfn2
          hostname                   : n-62-30-23
          coordinate file            : xtbopt.xyz
          omp threads                :                     1

   ID    Z sym.   atoms
    1    7 N      1, 17
    2    6 C      2-6, 8, 9, 11-16, 18-23, 25, 26, 28-33
    3    8 O      7, 10, 24, 27
    4    1 H      34-72
########################################################################
[WARNING] Please study the warnings concerning your input carefully
-1- readin_getIntValue: could not parse ''
########################################################################

           -------------------------------------------------
          |                 G F N 2 - x T B                 |
           -------------------------------------------------

        Reference                      10.1021/acs.jctc.8b01176
      * Hamiltonian:
        H0-scaling (s, p, d)           1.850000    2.230000    2.230000
        zeta-weighting                 0.500000
      * Dispersion:
        s8                             2.700000
        a1                             0.520000
        a2                             5.000000
        s9                             5.000000
      * Repulsion:
        kExp                           1.500000    1.000000
        rExp                           1.000000
      * Coulomb:
        alpha                          2.000000
        third order                    shell-resolved
        anisotropic                    true
        a3                             3.000000
        a5                             4.000000
        cn-shift                       1.200000
        cn-exp                         4.000000
        max-rad                        5.000000

q/qsh data taken from xtbrestart
CAMM data taken from xtbrestart

          ...................................................
          :                      SETUP                      :
          :.................................................:
          :  # basis functions                 171          :
          :  # atomic orbitals                 171          :
          :  # shells                          105          :
          :  # electrons                       180          :
          :  max. iterations                   250          :
          :  Hamiltonian                  GFN2-xTB          :
          :  restarted?                       true          :
          :  GBSA solvation                  false          :
          :  PC potential                    false          :
          :  electronic temp.         5000.0000000     K    :
          :  accuracy                    1.0000000          :
          :  -> integral cutoff          0.2500000E+02      :
          :  -> integral neglect         0.1000000E-07      :
          :  -> SCF convergence          0.1000000E-05 Eh   :
          :  -> wf. convergence          0.1000000E-03 e    :
          :  Broyden damping             0.4000000          :
          ...................................................

 iter      E             dE          RMSdq      gap      omega  full diag
   1   -100.5570707 -0.100557E+03  0.504E-05    0.32       0.0  T
   2   -100.5570707  0.274933E-08  0.149E-04    0.32      79.3  T
   3   -100.5570707 -0.301287E-08  0.169E-05    0.32     698.7  T

   *** convergence criteria satisfied after 3 iterations ***

         #    Occupation            Energy/Eh            Energy/eV
      -------------------------------------------------------------
         1        2.0000           -0.8271285             -22.5073
       ...           ...                  ...                  ...
        84        1.9953           -0.5045181             -13.7286
        85        1.9907           -0.4937919             -13.4368
        86        1.9843           -0.4854110             -13.2087
        87        1.9452           -0.4653213             -12.6620
        88        1.8957           -0.4547255             -12.3737
        89        1.8320           -0.4466313             -12.1535
        90        1.1363           -0.4131474             -11.2423 (HOMO)
        91        0.7741           -0.4015237             -10.9260 (LUMO)
        92        0.4110           -0.3873927             -10.5415
        93        0.0309           -0.3430289              -9.3343
        94        0.0162           -0.3326655              -9.0523
        95        0.0043           -0.3116524              -8.4805
       ...           ...                  ...                  ...
       171                          0.5923329              16.1182
      -------------------------------------------------------------
                  HL-Gap            0.0116238 Eh            0.3163 eV
             Fermi-level           -0.4088037 Eh          -11.1241 eV

 SCC (total)                   0 d,  0 h,  0 min,  0.118 sec
 SCC setup                      ...        0 min,  0.001 sec (  1.024%)
 Dispersion                     ...        0 min,  0.002 sec (  1.526%)
 classical contributions        ...        0 min,  0.001 sec (  0.460%)
 integral evaluation            ...        0 min,  0.018 sec ( 15.254%)
 iterations                     ...        0 min,  0.027 sec ( 23.091%)
 molecular gradient             ...        0 min,  0.069 sec ( 58.096%)
 printout                       ...        0 min,  0.001 sec (  0.537%)

         :::::::::::::::::::::::::::::::::::::::::::::::::::::
         ::                     SUMMARY                     ::
         :::::::::::::::::::::::::::::::::::::::::::::::::::::
         :: total energy             -99.202645765450 Eh    ::
         :: gradient norm              0.043846689784 Eh/a0 ::
         :: HOMO-LUMO gap              0.316298495671 eV    ::
         ::.................................................::
         :: SCC energy              -100.557070661143 Eh    ::
         :: -> isotropic ES            0.098131463435 Eh    ::
         :: -> anisotropic ES          0.006578566511 Eh    ::
         :: -> anisotropic XC          0.047086348356 Eh    ::
         :: -> dispersion             -0.072746631435 Eh    ::
         :: repulsion energy           1.353054923898 Eh    ::
         :: add. restraining           0.000000000000 Eh    ::
         :: total charge               1.000000000142 e     ::
         :::::::::::::::::::::::::::::::::::::::::::::::::::::

      ----------------------------------------------------------- 
     |                   =====================                   |
     |                        A N C O P T                        |
     |                   =====================                   |
     |               Approximate Normal Coordinate               |
     |                Rational Function Optimizer                |
      ----------------------------------------------------------- 

          ...................................................
          :                      SETUP                      :
          :.................................................:
          :   optimization level             crude          :
          :   max. optcycles                   200          :
          :   ANC micro-cycles                  20          :
          :   degrees of freedom               210          :
          :.................................................:
          :   RF solver                   davidson          :
          :   write xtbopt.log                true          :
          :   linear?                        false          :
          :   energy convergence         0.5000000E-03 Eh   :
          :   grad. convergence          0.1000000E-01 Eh/α :
          :   maxmium RF displ.          1.0000000          :
          :   Hlow (freq-cutoff)         0.1000000E-01      :
          :   Hmax (freq-cutoff)         5.0000000          :
          :   S6 in model hess.         20.0000000          :
          ...................................................

generating ANC from model Hessian ...
Using Lindh-Hessian (1995)
 Shifting diagonal of input Hessian by    9.9713067308377559E-003
 Lowest  eigenvalues of input Hessian
    0.000000    0.000000    0.000000    0.000000    0.000000    0.000000
    0.010000    0.010016    0.010049    0.010169    0.010302    0.010506
    0.010559    0.010711    0.010854    0.010900    0.011413    0.011557
 Highest eigenvalues
    1.986142    2.040933    2.105523    2.138926    2.179061    2.179606


........................................................................
.............................. CYCLE    1 ..............................
........................................................................

 iter      E             dE          RMSdq      gap      omega  full diag
   1   -100.5570707 -0.100557E+03  0.429E-05    0.32       0.0  T
   2   -100.5570707  0.406594E-08  0.176E-04    0.32      66.9  T
   3   -100.5570707 -0.430019E-08  0.820E-06    0.32    1437.1  T
     SCC iter.                  ...        0 min,  0.026 sec
     gradient                   ...        0 min,  0.068 sec
 * total energy  :   -99.2026458 Eh     change       -0.2131628E-12 Eh
   gradient norm :     0.0438469 Eh/α   predicted     0.0000000E+00 (-100.00%)
   displ. norm   :     0.3800660 α      lambda       -0.8231999E-02
   maximum displ.:     0.1714382 α      in ANC's #30, #55, #32, ...

........................................................................
.............................. CYCLE    2 ..............................
........................................................................

 iter      E             dE          RMSdq      gap      omega  full diag
   1   -100.5754321 -0.100575E+03  0.133E-01    0.38       0.0  T
   2   -100.5668274  0.860473E-02  0.270E-01    0.26       1.0  T
   3   -100.5754028 -0.857538E-02  0.976E-02    0.38       1.0  T
   4   -100.5752088  0.193990E-03  0.767E-02    0.33       1.0  T
   5   -100.5755441 -0.335265E-03  0.636E-02    0.36       1.0  T
   6   -100.5760593 -0.515275E-03  0.665E-03    0.34       1.8  T
   7   -100.5760617 -0.235200E-05  0.325E-03    0.34       3.6  T
   8   -100.5760631 -0.139487E-05  0.101E-03    0.34      11.7  T
   9   -100.5760631 -0.162084E-07  0.522E-04    0.34      22.6  T
  10   -100.5760631 -0.133741E-07  0.182E-04    0.34      64.9  T
     SCC iter.                  ...        0 min,  0.080 sec
     gradient                   ...        0 min,  0.068 sec
 * total energy  :   -99.2089567 Eh     change       -0.6310954E-02 Eh
   gradient norm :     0.0207758 Eh/α   predicted    -0.4710609E-02 ( -25.36%)
   displ. norm   :     0.5093417 α      lambda       -0.5419883E-02
   maximum displ.:     0.2453860 α      in ANC's #30, #55, #32, ...

........................................................................
.............................. CYCLE    3 ..............................
........................................................................

 iter      E             dE          RMSdq      gap      omega  full diag
   1   -100.5875859 -0.100588E+03  0.143E-01    0.43       0.0  T
   2   -100.5728165  0.147694E-01  0.347E-01    0.28       1.0  T
   3   -100.5880627 -0.152462E-01  0.902E-02    0.42       1.0  T
   4   -100.5876729  0.389809E-03  0.782E-02    0.38       1.0  T
   5   -100.5882658 -0.592903E-03  0.494E-02    0.40       1.0  T
   6   -100.5885706 -0.304788E-03  0.553E-03    0.39       2.1  T
   7   -100.5885724 -0.178353E-05  0.255E-03    0.39       4.6  T
   8   -100.5885731 -0.709649E-06  0.987E-04    0.39      11.9  T
   9   -100.5885731 -0.381799E-07  0.453E-04    0.39      26.0  T
     SCC iter.                  ...        0 min,  0.073 sec
     gradient                   ...        0 min,  0.069 sec
 * total energy  :   -99.2127215 Eh     change       -0.3764782E-02 Eh
   gradient norm :     0.0150312 Eh/α   predicted    -0.3413374E-02 (  -9.33%)
   displ. norm   :     0.4734426 α      lambda       -0.2355498E-02
   maximum displ.:     0.2212589 α      in ANC's #30, #8, #32, ...

........................................................................
.............................. CYCLE    4 ..............................
........................................................................

 iter      E             dE          RMSdq      gap      omega  full diag
   1   -100.5908083 -0.100591E+03  0.981E-02    0.47       0.0  T
   2   -100.5833404  0.746792E-02  0.242E-01    0.34       1.0  T
   3   -100.5909754 -0.763504E-02  0.649E-02    0.46       1.0  T
   4   -100.5912671 -0.291621E-03  0.173E-02    0.44       1.0  T
   5   -100.5912899 -0.228484E-04  0.583E-03    0.43       2.0  T
   6   -100.5912905 -0.554668E-06  0.499E-03    0.43       2.4  T
   7   -100.5912932 -0.274173E-05  0.183E-03    0.43       6.4  T
   8   -100.5912935 -0.333868E-06  0.801E-04    0.43      14.7  T
   9   -100.5912936 -0.321525E-07  0.218E-04    0.43      54.2  T
     SCC iter.                  ...        0 min,  0.073 sec
     gradient                   ...        0 min,  0.068 sec
 * total energy  :   -99.2145633 Eh     change       -0.1841779E-02 Eh
   gradient norm :     0.0142036 Eh/α   predicted    -0.1441740E-02 ( -21.72%)
   displ. norm   :     0.5744941 α      lambda       -0.2100079E-02
   maximum displ.:     0.2455224 α      in ANC's #30, #8, #15, ...

........................................................................
.............................. CYCLE    5 ..............................
........................................................................

 iter      E             dE          RMSdq      gap      omega  full diag
   1   -100.5904116 -0.100590E+03  0.117E-01    0.53       0.0  T
   2   -100.5842315  0.618011E-02  0.218E-01    0.41       1.0  T
   3   -100.5897218 -0.549026E-02  0.108E-01    0.55       1.0  T
   4   -100.5904673 -0.745547E-03  0.529E-02    0.51       1.0  T
   5   -100.5907395 -0.272210E-03  0.295E-02    0.50       1.0  T
   6   -100.5908484 -0.108897E-03  0.413E-03    0.50       2.9  T
   7   -100.5908497 -0.125217E-05  0.190E-03    0.50       6.2  T
   8   -100.5908498 -0.125465E-06  0.105E-03    0.50      11.2  T
   9   -100.5908498 -0.218169E-07  0.410E-04    0.50      28.7  T
  10   -100.5908498 -0.204128E-07  0.119E-04    0.50      99.2  T
     SCC iter.                  ...        0 min,  0.080 sec
     gradient                   ...        0 min,  0.069 sec
 * total energy  :   -99.2162410 Eh     change       -0.1677688E-02 Eh
   gradient norm :     0.0138844 Eh/α   predicted    -0.1396599E-02 ( -16.75%)
   displ. norm   :     0.5857891 α      lambda       -0.1793273E-02
   maximum displ.:     0.2786019 α      in ANC's #8, #30, #15, ...

........................................................................
.............................. CYCLE    6 ..............................
........................................................................

 iter      E             dE          RMSdq      gap      omega  full diag
   1   -100.5894256 -0.100589E+03  0.133E-01    0.60       0.0  T
   2   -100.5862684  0.315719E-02  0.159E-01    0.52       1.0  T
   3   -100.5866477 -0.379324E-03  0.166E-01    0.65       1.0  T
   4   -100.5890667 -0.241900E-02  0.668E-02    0.58       1.0  T
   5   -100.5895556 -0.488904E-03  0.331E-02    0.59       1.0  T
   6   -100.5896922 -0.136555E-03  0.455E-03    0.58       2.6  T
   7   -100.5896936 -0.138913E-05  0.220E-03    0.58       5.4  T
   8   -100.5896937 -0.151558E-06  0.117E-03    0.58      10.1  T
   9   -100.5896937 -0.273562E-07  0.486E-04    0.58      24.2  T
  10   -100.5896938 -0.324705E-07  0.140E-04    0.58      84.4  T
     SCC iter.                  ...        0 min,  0.080 sec
     gradient                   ...        0 min,  0.069 sec
 * total energy  :   -99.2176455 Eh     change       -0.1404558E-02 Eh
   gradient norm :     0.0144059 Eh/α   predicted    -0.1204319E-02 ( -14.26%)
   displ. norm   :     0.5141704 α      lambda       -0.1311594E-02
   maximum displ.:     0.2827116 α      in ANC's #8, #7, #15, ...

........................................................................
.............................. CYCLE    7 ..............................
........................................................................

 iter      E             dE          RMSdq      gap      omega  full diag
   1   -100.5903119 -0.100590E+03  0.121E-01    0.67       0.0  T
   2   -100.5894678  0.844046E-03  0.960E-02    0.62       1.0  T
   3   -100.5863710  0.309680E-02  0.180E-01    0.73       1.0  T
   4   -100.5901783 -0.380724E-02  0.411E-02    0.65       1.0  T
   5   -100.5902914 -0.113149E-03  0.287E-02    0.66       1.0  T
   6   -100.5904012 -0.109828E-03  0.349E-03    0.65       3.4  T
   7   -100.5904018 -0.587332E-06  0.193E-03    0.65       6.1  T
   8   -100.5904019 -0.122478E-06  0.885E-04    0.65      13.3  T
   9   -100.5904020 -0.309921E-07  0.324E-04    0.65      36.4  T
     SCC iter.                  ...        0 min,  0.073 sec
     gradient                   ...        0 min,  0.069 sec
 * total energy  :   -99.2186219 Eh     change       -0.9763471E-03 Eh
   gradient norm :     0.0140181 Eh/α   predicted    -0.8291839E-03 ( -15.07%)
   displ. norm   :     0.4359010 α      lambda       -0.8318508E-03
   maximum displ.:     0.2740439 α      in ANC's #8, #7, #6, ...

........................................................................
.............................. CYCLE    8 ..............................
........................................................................

 iter      E             dE          RMSdq      gap      omega  full diag
   1   -100.5922026 -0.100592E+03  0.893E-02    0.72       0.0  T
   2   -100.5920539  0.148667E-03  0.588E-02    0.71       1.0  T
   3   -100.5893027  0.275121E-02  0.150E-01    0.78       1.0  T
   4   -100.5922080 -0.290524E-02  0.120E-02    0.72       1.0  T
   5   -100.5922138 -0.585026E-05  0.822E-03    0.72       1.4  T
   6   -100.5922222 -0.839031E-05  0.229E-03    0.72       5.1  T
   7   -100.5922224 -0.166262E-06  0.167E-03    0.72       7.1  T
   8   -100.5922226 -0.180835E-06  0.614E-04    0.72      19.2  T
   9   -100.5922226 -0.233348E-07  0.259E-04    0.72      45.4  T
     SCC iter.                  ...        0 min,  0.073 sec
     gradient                   ...        0 min,  0.069 sec
 * total energy  :   -99.2192930 Eh     change       -0.6711007E-03 Eh
   gradient norm :     0.0137132 Eh/α   predicted    -0.4949560E-03 ( -26.25%)
   displ. norm   :     0.4933154 α      lambda       -0.8873852E-03
   maximum displ.:     0.3273945 α      in ANC's #8, #7, #6, ...

........................................................................
.............................. CYCLE    9 ..............................
........................................................................

 iter      E             dE          RMSdq      gap      omega  full diag
   1   -100.5945464 -0.100595E+03  0.937E-02    0.79       0.0  T
   2   -100.5939222  0.624186E-03  0.872E-02    0.78       1.0  T
   3   -100.5930628  0.859443E-03  0.115E-01    0.78       1.0  T
   4   -100.5945577 -0.149485E-02  0.197E-02    0.78       1.0  T
   5   -100.5945794 -0.217017E-04  0.163E-02    0.79       1.0  T
   6   -100.5946162 -0.368336E-04  0.304E-03    0.79       3.9  T
   7   -100.5946167 -0.474319E-06  0.173E-03    0.79       6.8  T
   8   -100.5946167 -0.439670E-07  0.982E-04    0.79      12.0  T
   9   -100.5946168 -0.930035E-07  0.344E-04    0.79      34.3  T
     SCC iter.                  ...        0 min,  0.072 sec
     gradient                   ...        0 min,  0.069 sec
 * total energy  :   -99.2200785 Eh     change       -0.7854777E-03 Eh
   gradient norm :     0.0145366 Eh/α   predicted    -0.5516732E-03 ( -29.77%)
   displ. norm   :     0.6521395 α      lambda       -0.1229383E-02
   maximum displ.:     0.4414905 α      in ANC's #8, #7, #6, ...

........................................................................
.............................. CYCLE   10 ..............................
........................................................................

 iter      E             dE          RMSdq      gap      omega  full diag
   1   -100.5969710 -0.100597E+03  0.128E-01    0.87       0.0  T
   2   -100.5946058  0.236522E-02  0.152E-01    0.90       1.0  T
   3   -100.5959300 -0.132420E-02  0.115E-01    0.84       1.0  T
   4   -100.5970729 -0.114297E-02  0.341E-02    0.87       1.0  T
   5   -100.5971697 -0.967415E-04  0.240E-02    0.89       1.0  T
   6   -100.5972465 -0.768254E-04  0.414E-03    0.88       2.8  T
   7   -100.5972474 -0.950468E-06  0.205E-03    0.88       5.7  T
   8   -100.5972473  0.102250E-06  0.149E-03    0.88       7.9  T
   9   -100.5972476 -0.252864E-06  0.446E-04    0.88      26.4  T
  10   -100.5972476 -0.915895E-08  0.210E-04    0.88      56.3  T
     SCC iter.                  ...        0 min,  0.080 sec
     gradient                   ...        0 min,  0.070 sec
 * total energy  :   -99.2212345 Eh     change       -0.1156092E-02 Eh
   gradient norm :     0.0185870 Eh/α   predicted    -0.8761118E-03 ( -24.22%)
   displ. norm   :     0.8089836 α      lambda       -0.1718561E-02
   maximum displ.:     0.5597830 α      in ANC's #8, #7, #6, ...

........................................................................
.............................. CYCLE   11 ..............................
........................................................................

 iter      E             dE          RMSdq      gap      omega  full diag
   1   -100.5998267 -0.100600E+03  0.170E-01    0.93       0.0  T
   2   -100.5954533  0.437348E-02  0.206E-01    1.07       1.0  T
   3   -100.5984242 -0.297093E-02  0.144E-01    0.88       1.0  T
   4   -100.6001879 -0.176376E-02  0.394E-02    0.96       1.0  T
   5   -100.6003378 -0.149896E-03  0.220E-02    0.99       1.0  T
   6   -100.6003973 -0.594536E-04  0.695E-03    0.97       1.7  T
   7   -100.6004015 -0.421296E-05  0.253E-03    0.97       4.7  T
   8   -100.6004013  0.200241E-06  0.194E-03    0.97       6.1  T
   9   -100.6004018 -0.448779E-06  0.532E-04    0.97      22.2  T
  10   -100.6004018 -0.137001E-07  0.249E-04    0.97      47.4  T
     SCC iter.                  ...        0 min,  0.080 sec
     gradient                   ...        0 min,  0.069 sec
 * total energy  :   -99.2229535 Eh     change       -0.1718998E-02 Eh
   gradient norm :     0.0260845 Eh/α   predicted    -0.1421648E-02 ( -17.30%)
   displ. norm   :     0.8156807 α      lambda       -0.1867789E-02
   maximum displ.:     0.5490093 α      in ANC's #8, #7, #6, ...

........................................................................
.............................. CYCLE   12 ..............................
........................................................................

 iter      E             dE          RMSdq      gap      omega  full diag
   1   -100.5981437 -0.100598E+03  0.181E-01    1.05       0.0  T
   2   -100.5972984  0.845227E-03  0.137E-01    1.15       1.0  T
   3   -100.5924641  0.483432E-02  0.205E-01    0.89       1.0  T
   4   -100.5981965 -0.573240E-02  0.437E-02    1.09       1.0  T
   5   -100.5982798 -0.832939E-04  0.273E-02    1.06       1.0  T
   6   -100.5983571 -0.772863E-04  0.102E-02    1.07       1.2  T
   7   -100.5983697 -0.125630E-04  0.353E-03    1.06       3.3  T
   8   -100.5983702 -0.573566E-06  0.179E-03    1.07       6.6  T
   9   -100.5983705 -0.289527E-06  0.568E-04    1.07      20.7  T
  10   -100.5983705 -0.191899E-07  0.247E-04    1.07      47.7  T
     SCC iter.                  ...        0 min,  0.081 sec
     gradient                   ...        0 min,  0.069 sec
 * total energy  :   -99.2250045 Eh     change       -0.2050909E-02 Eh
   gradient norm :     0.0378509 Eh/α   predicted    -0.1555254E-02 ( -24.17%)
   displ. norm   :     0.6428122 α      lambda       -0.2607223E-02
   maximum displ.:     0.4375215 α      in ANC's #8, #7, #6, ...

........................................................................
.............................. CYCLE   13 ..............................
........................................................................

 iter      E             dE          RMSdq      gap      omega  full diag
   1   -100.6045510 -0.100605E+03  0.157E-01    1.13       0.0  T
   2   -100.6037863  0.764718E-03  0.120E-01    1.25       1.0  T
   3   -100.6004274  0.335892E-02  0.179E-01    0.97       1.0  T
   4   -100.6046509 -0.422355E-02  0.302E-02    1.15       1.0  T
   5   -100.6047235 -0.725662E-04  0.128E-02    1.16       1.0  T
   6   -100.6047315 -0.798616E-05  0.936E-03    1.15       1.3  T
   7   -100.6047404 -0.895759E-05  0.273E-03    1.15       4.3  T
   8   -100.6047405 -0.289513E-07  0.170E-03    1.15       6.9  T
   9   -100.6047408 -0.364956E-06  0.365E-04    1.15      32.3  T
  10   -100.6047408 -0.443190E-08  0.174E-04    1.15      67.7  T
     SCC iter.                  ...        0 min,  0.081 sec
     gradient                   ...        0 min,  0.069 sec
 * total energy  :   -99.2279615 Eh     change       -0.2957074E-02 Eh
   gradient norm :     0.0439040 Eh/α   predicted    -0.1842275E-02 ( -37.70%)
   displ. norm   :     0.6596143 α      lambda       -0.3856779E-02
   maximum displ.:     0.4149772 α      in ANC's #8, #7, #6, ...

........................................................................
.............................. CYCLE   14 ..............................
........................................................................

 iter      E             dE          RMSdq      gap      omega  full diag
   1   -100.6053363 -0.100605E+03  0.205E-01    1.27       0.0  T
   2   -100.6040803  0.125595E-02  0.175E-01    1.25       1.0  T
   3   -100.6040570  0.233630E-04  0.145E-01    1.28       1.0  T
   4   -100.6056490 -0.159203E-02  0.395E-02    1.22       1.0  T
   5   -100.6057327 -0.836855E-04  0.282E-02    1.29       1.0  T
   6   -100.6058360 -0.103253E-03  0.912E-03    1.25       1.3  T
   7   -100.6058415 -0.553501E-05  0.339E-03    1.25       3.5  T
   8   -100.6058419 -0.435385E-06  0.668E-04    1.26      17.7  T
   9   -100.6058419 -0.100615E-07  0.396E-04    1.26      29.8  T
     SCC iter.                  ...        0 min,  0.073 sec
     gradient                   ...        0 min,  0.072 sec
 * total energy  :   -99.2321271 Eh     change       -0.4165599E-02 Eh
   gradient norm :     0.0605792 Eh/α   predicted    -0.2767424E-02 ( -33.56%)
   displ. norm   :     0.4145198 α      lambda       -0.5860609E-02
   maximum displ.:     0.2781595 α      in ANC's #8, #7, #6, ...

........................................................................
.............................. CYCLE   15 ..............................
........................................................................

 iter      E             dE          RMSdq      gap      omega  full diag
   1   -100.6275396 -0.100628E+03  0.145E-01    1.35       0.0  T
   2   -100.6270030  0.536591E-03  0.116E-01    1.36       1.0  T
   3   -100.6271081 -0.105093E-03  0.991E-02    1.33       1.0  T
   4   -100.6277463 -0.638144E-03  0.200E-02    1.37       1.0  T
   5   -100.6277731 -0.267690E-04  0.129E-02    1.33       1.0  T
   6   -100.6277938 -0.207168E-04  0.286E-03    1.35       4.1  T
   7   -100.6277941 -0.285658E-06  0.147E-03    1.35       8.0  T
   8   -100.6277942 -0.124282E-06  0.507E-04    1.35      23.2  T
   9   -100.6277942 -0.243685E-07  0.146E-04    1.35      80.6  T
     SCC iter.                  ...        0 min,  0.073 sec
     gradient                   ...        0 min,  0.069 sec
 * total energy  :   -99.2375973 Eh     change       -0.5470166E-02 Eh
   gradient norm :     0.0616114 Eh/α   predicted    -0.3433812E-02 ( -37.23%)
   displ. norm   :     0.6897298 α      lambda       -0.2250491E-01
   maximum displ.:     0.1966935 α      in ANC's #8, #115, #30, ...

........................................................................
.............................. CYCLE   16 ..............................
........................................................................

 iter      E             dE          RMSdq      gap      omega  full diag
   1   -100.7079801 -0.100708E+03  0.413E-01    1.68       0.0  T
   2   -100.7044298  0.355027E-02  0.414E-01    1.54       1.0  T
   3   -100.7131209 -0.869116E-02  0.180E-01    1.68       1.0  T
   4   -100.7118006  0.132037E-02  0.122E-01    1.50       1.0  T
   5   -100.7133475 -0.154695E-02  0.369E-02    1.68       1.0  T
   6   -100.7134933 -0.145727E-03  0.897E-03    1.63       1.3  T
   7   -100.7134953 -0.207519E-05  0.542E-03    1.63       2.2  T
   8   -100.7134959 -0.607955E-06  0.216E-03    1.63       5.5  T
   9   -100.7134960 -0.101215E-06  0.723E-04    1.63      16.3  T
  10   -100.7134961 -0.175086E-07  0.420E-04    1.63      28.1  T
     SCC iter.                  ...        0 min,  0.081 sec
     gradient                   ...        0 min,  0.070 sec
 * total energy  :   -99.2488158 Eh     change       -0.1121853E-01 Eh
   gradient norm :     0.0878946 Eh/α   predicted    -0.1660554E-01 (  48.02%)
   displ. norm   :     0.5490335 α      lambda       -0.2033035E-01
   maximum displ.:     0.2014712 α      in ANC's #30, #25, #55, ...

........................................................................
.............................. CYCLE   17 ..............................
........................................................................

 iter      E             dE          RMSdq      gap      omega  full diag
   1   -100.7054632 -0.100705E+03  0.237E-01    1.72       0.0  T
   2   -100.7042986  0.116461E-02  0.220E-01    1.51       1.0  T
   3   -100.7067094 -0.241081E-02  0.118E-01    1.71       1.0  T
   4   -100.7064411  0.268276E-03  0.941E-02    1.55       1.0  T
   5   -100.7072198 -0.778654E-03  0.201E-02    1.66       1.0  T
   6   -100.7072541 -0.343122E-04  0.686E-03    1.63       1.7  T
   7   -100.7072598 -0.567006E-05  0.345E-03    1.64       3.4  T
   8   -100.7072602 -0.455094E-06  0.159E-03    1.64       7.4  T
   9   -100.7072604 -0.149361E-06  0.493E-04    1.64      23.9  T
  10   -100.7072604 -0.568255E-08  0.264E-04    1.64      44.7  T
     SCC iter.                  ...        0 min,  0.081 sec
     gradient                   ...        0 min,  0.069 sec
 * total energy  :   -99.2591019 Eh     change       -0.1028604E-01 Eh
   gradient norm :     0.0994553 Eh/α   predicted    -0.1322935E-01 (  28.61%)
   displ. norm   :     0.5959538 α      lambda       -0.1849709E-01
   maximum displ.:     0.2993399 α      in ANC's #8, #47, #28, ...

........................................................................
.............................. CYCLE   18 ..............................
........................................................................

 iter      E             dE          RMSdq      gap      omega  full diag
   1   -100.6821944 -0.100682E+03  0.341E-01    1.80       0.0  T
   2   -100.6768316  0.536274E-02  0.403E-01    1.53       1.0  T
   3   -100.6880621 -0.112305E-01  0.138E-01    1.72       1.0  T
   4   -100.6869736  0.108851E-02  0.117E-01    1.57       1.0  T
   5   -100.6880751 -0.110144E-02  0.372E-02    1.73       1.0  T
   6   -100.6882211 -0.146014E-03  0.105E-02    1.68       1.1  T
   7   -100.6882317 -0.105886E-04  0.257E-03    1.69       4.6  T
   8   -100.6882316  0.414166E-07  0.129E-03    1.69       9.2  T
   9   -100.6882317 -0.837691E-07  0.552E-04    1.69      21.4  T
  10   -100.6882317 -0.175072E-07  0.285E-04    1.69      41.3  T
     SCC iter.                  ...        0 min,  0.081 sec
     gradient                   ...        0 min,  0.070 sec
 * total energy  :   -99.2645712 Eh     change       -0.5469298E-02 Eh
   gradient norm :     0.0892899 Eh/α   predicted    -0.1253328E-01 ( 129.16%)
   displ. norm   :     0.4353858 α      lambda       -0.1583569E-01
   maximum displ.:     0.1335732 α      in ANC's #17, #7, #25, ...

........................................................................
.............................. CYCLE   19 ..............................
........................................................................

 iter      E             dE          RMSdq      gap      omega  full diag
   1   -100.6917982 -0.100692E+03  0.226E-01    1.59       0.0  T
   2   -100.6901510  0.164725E-02  0.252E-01    1.68       1.0  T
   3   -100.6941607 -0.400968E-02  0.885E-02    1.62       1.0  T
   4   -100.6940698  0.908122E-04  0.412E-02    1.66       1.0  T
   5   -100.6941218 -0.519802E-04  0.278E-02    1.59       1.0  T
   6   -100.6942025 -0.806922E-04  0.694E-03    1.63       1.7  T
   7   -100.6942072 -0.471916E-05  0.207E-03    1.63       5.7  T
   8   -100.6942072 -0.137399E-07  0.913E-04    1.63      12.9  T
   9   -100.6942073 -0.446014E-07  0.377E-04    1.63      31.3  T
     SCC iter.                  ...        0 min,  0.073 sec
     gradient                   ...        0 min,  0.069 sec
 * total energy  :   -99.2751243 Eh     change       -0.1055317E-01 Eh
   gradient norm :     0.0431542 Eh/α   predicted    -0.9418756E-02 ( -10.75%)
   displ. norm   :     0.5206754 α      lambda       -0.1158666E-01
   maximum displ.:     0.1950091 α      in ANC's #42, #43, #25, ...

........................................................................
.............................. CYCLE   20 ..............................
........................................................................

 iter      E             dE          RMSdq      gap      omega  full diag
   1   -100.7030350 -0.100703E+03  0.237E-01    1.59       0.0  T
   2   -100.7031737 -0.138632E-03  0.142E-01    1.61       1.0  T
   3   -100.7028235  0.350226E-03  0.103E-01    1.59       1.0  T
   4   -100.7033229 -0.499488E-03  0.230E-02    1.61       1.0  T
   5   -100.7033638 -0.408554E-04  0.798E-03    1.60       1.5  T
   6   -100.7033671 -0.330590E-05  0.399E-03    1.61       3.0  T
   7   -100.7033679 -0.777329E-06  0.266E-03    1.60       4.4  T
   8   -100.7033684 -0.518915E-06  0.913E-04    1.61      12.9  T
   9   -100.7033684 -0.188323E-07  0.351E-04    1.60      33.5  T
     SCC iter.                  ...        0 min,  0.073 sec
     gradient                   ...        0 min,  0.068 sec
 * total energy  :   -99.2820982 Eh     change       -0.6973842E-02 Eh
   gradient norm :     0.0560239 Eh/α   predicted    -0.7363926E-02 (   5.59%)
   displ. norm   :     0.5191823 α      lambda       -0.8885571E-02
   maximum displ.:     0.1423488 α      in ANC's #28, #42, #7, ...
 * RMSD in coord.:     0.9079126 α      energy gain  -0.7945240E-01 Eh

generating ANC from model Hessian ...
Using Lindh-Hessian (1995)
 Shifting diagonal of input Hessian by    9.9765109233205286E-003
 Lowest  eigenvalues of input Hessian
    0.000000    0.000000    0.000000    0.000000    0.000000    0.000000
    0.010000    0.010021    0.010042    0.010128    0.010283    0.010326
    0.010377    0.010566    0.010777    0.010889    0.011315    0.011374
 Highest eigenvalues
    1.991252    2.040582    2.106975    2.139378    2.179033    2.707633


........................................................................
.............................. CYCLE   21 ..............................
........................................................................

 iter      E             dE          RMSdq      gap      omega  full diag
   1   -100.6952468 -0.100695E+03  0.204E-01    1.56       0.0  T
   2   -100.6950465  0.200329E-03  0.140E-01    1.62       1.0  T
   3   -100.6948048  0.241674E-03  0.120E-01    1.53       1.0  T
   4   -100.6954935 -0.688723E-03  0.362E-02    1.62       1.0  T
   5   -100.6956098 -0.116249E-03  0.141E-02    1.56       1.0  T
   6   -100.6956305 -0.207861E-04  0.304E-03    1.58       3.9  T
   7   -100.6956311 -0.563383E-06  0.162E-03    1.58       7.3  T
   8   -100.6956312 -0.653587E-07  0.657E-04    1.58      17.9  T
   9   -100.6956312 -0.229094E-07  0.193E-04    1.58      61.0  T
     SCC iter.                  ...        0 min,  0.072 sec
     gradient                   ...        0 min,  0.069 sec
 * total energy  :   -99.2877352 Eh     change       -0.5637037E-02 Eh
   gradient norm :     0.0489258 Eh/α   predicted     0.0000000E+00 (-100.00%)
   displ. norm   :     0.4299960 α      lambda       -0.7759878E-02
   maximum displ.:     0.1809740 α      in ANC's #13, #49, #28, ...

........................................................................
.............................. CYCLE   22 ..............................
........................................................................

 iter      E             dE          RMSdq      gap      omega  full diag
   1   -100.7130148 -0.100713E+03  0.158E-01    1.63       0.0  T
   2   -100.7127924  0.222390E-03  0.133E-01    1.56       1.0  T
   3   -100.7134043 -0.611852E-03  0.755E-02    1.63       1.0  T
   4   -100.7134270 -0.227215E-04  0.400E-02    1.56       1.0  T
   5   -100.7135586 -0.131607E-03  0.157E-02    1.62       1.0  T
   6   -100.7135829 -0.242388E-04  0.499E-03    1.60       2.4  T
   7   -100.7135848 -0.194560E-05  0.148E-03    1.60       8.0  T
   8   -100.7135848  0.791653E-08  0.603E-04    1.60      19.5  T
   9   -100.7135848 -0.182163E-07  0.259E-04    1.60      45.4  T
     SCC iter.                  ...        0 min,  0.073 sec
     gradient                   ...        0 min,  0.069 sec
 * total energy  :   -99.2931680 Eh     change       -0.5432793E-02 Eh
   gradient norm :     0.0227669 Eh/α   predicted    -0.4611524E-02 ( -15.12%)
   displ. norm   :     0.4680761 α      lambda       -0.4567815E-02
   maximum displ.:     0.2031963 α      in ANC's #49, #13, #29, ...

........................................................................
.............................. CYCLE   23 ..............................
........................................................................

 iter      E             dE          RMSdq      gap      omega  full diag
   1   -100.7235163 -0.100724E+03  0.149E-01    1.63       0.0  T
   2   -100.7234289  0.873280E-04  0.119E-01    1.59       1.0  T
   3   -100.7237194 -0.290512E-03  0.718E-02    1.63       1.0  T
   4   -100.7238271 -0.107621E-03  0.295E-02    1.58       1.0  T
   5   -100.7238837 -0.566501E-04  0.142E-02    1.63       1.0  T
   6   -100.7239042 -0.204647E-04  0.493E-03    1.60       2.4  T
   7   -100.7239060 -0.185814E-05  0.145E-03    1.61       8.1  T
   8   -100.7239060  0.458317E-08  0.459E-04    1.61      25.7  T
   9   -100.7239060 -0.784645E-08  0.218E-04    1.61      54.0  T
     SCC iter.                  ...        0 min,  0.073 sec
     gradient                   ...        0 min,  0.069 sec
 * total energy  :   -99.2964058 Eh     change       -0.3237765E-02 Eh
   gradient norm :     0.0347212 Eh/α   predicted    -0.2784309E-02 ( -14.01%)
   displ. norm   :     0.4907469 α      lambda       -0.3394583E-02
   maximum displ.:     0.1952159 α      in ANC's #29, #49, #28, ...

........................................................................
.............................. CYCLE   24 ..............................
........................................................................

 iter      E             dE          RMSdq      gap      omega  full diag
   1   -100.7237326 -0.100724E+03  0.210E-01    1.61       0.0  T
   2   -100.7237529 -0.203338E-04  0.125E-01    1.61       1.0  T
   3   -100.7233195  0.433482E-03  0.897E-02    1.58       1.0  T
   4   -100.7238001 -0.480599E-03  0.171E-02    1.62       1.0  T
   5   -100.7238242 -0.241291E-04  0.623E-03    1.60       1.9  T
   6   -100.7238266 -0.244832E-05  0.338E-03    1.61       3.5  T
   7   -100.7238276 -0.970346E-06  0.134E-03    1.60       8.8  T
   8   -100.7238276 -0.294786E-07  0.448E-04    1.60      26.3  T
   9   -100.7238277 -0.109386E-07  0.186E-04    1.60      63.3  T
     SCC iter.                  ...        0 min,  0.073 sec
     gradient                   ...        0 min,  0.070 sec
 * total energy  :   -99.2987841 Eh     change       -0.2378313E-02 Eh
   gradient norm :     0.0241152 Eh/α   predicted    -0.2106055E-02 ( -11.45%)
   displ. norm   :     0.4651782 α      lambda       -0.2193692E-02
   maximum displ.:     0.2321284 α      in ANC's #29, #49, #13, ...

........................................................................
.............................. CYCLE   25 ..............................
........................................................................

 iter      E             dE          RMSdq      gap      omega  full diag
   1   -100.7206588 -0.100721E+03  0.184E-01    1.58       0.0  T
   2   -100.7206596 -0.749931E-06  0.108E-01    1.60       1.0  T
   3   -100.7204227  0.236829E-03  0.473E-02    1.53       1.0  T
   4   -100.7206645 -0.241748E-03  0.878E-03    1.59       1.3  T
   5   -100.7206708 -0.628474E-05  0.322E-03    1.58       3.7  T
   6   -100.7206711 -0.285346E-06  0.175E-03    1.59       6.7  T
   7   -100.7206711 -0.608970E-07  0.879E-04    1.59      13.4  T
   8   -100.7206712 -0.388527E-07  0.306E-04    1.59      38.6  T
     SCC iter.                  ...        0 min,  0.065 sec
     gradient                   ...        0 min,  0.069 sec
 * total energy  :   -99.3003460 Eh     change       -0.1561894E-02 Eh
   gradient norm :     0.0240859 Eh/α   predicted    -0.1334194E-02 ( -14.58%)
   displ. norm   :     0.4053989 α      lambda       -0.1751879E-02
   maximum displ.:     0.2161922 α      in ANC's #29, #27, #13, ...

........................................................................
.............................. CYCLE   26 ..............................
........................................................................

 iter      E             dE          RMSdq      gap      omega  full diag
   1   -100.7236130 -0.100724E+03  0.139E-01    1.56       0.0  T
   2   -100.7236106  0.244528E-05  0.841E-02    1.58       1.0  T
   3   -100.7232703  0.340303E-03  0.642E-02    1.52       1.0  T
   4   -100.7236168 -0.346541E-03  0.155E-02    1.59       1.0  T
   5   -100.7236395 -0.226767E-04  0.335E-03    1.57       3.5  T
   6   -100.7236399 -0.431330E-06  0.219E-03    1.57       5.4  T
   7   -100.7236402 -0.261502E-06  0.894E-04    1.57      13.2  T
   8   -100.7236402 -0.532823E-08  0.337E-04    1.57      35.0  T
     SCC iter.                  ...        0 min,  0.065 sec
     gradient                   ...        0 min,  0.069 sec
 * total energy  :   -99.3016727 Eh     change       -0.1326748E-02 Eh
   gradient norm :     0.0164698 Eh/α   predicted    -0.1019906E-02 ( -23.13%)
   displ. norm   :     0.3985075 α      lambda       -0.1453555E-02
   maximum displ.:     0.2230320 α      in ANC's #29, #5, #27, ...

........................................................................
.............................. CYCLE   27 ..............................
........................................................................

 iter      E             dE          RMSdq      gap      omega  full diag
   1   -100.7294278 -0.100729E+03  0.127E-01    1.54       0.0  T
   2   -100.7294373 -0.942477E-05  0.783E-02    1.57       1.0  T
   3   -100.7292082  0.229018E-03  0.599E-02    1.51       1.0  T
   4   -100.7294283 -0.220037E-03  0.214E-02    1.58       1.0  T
   5   -100.7294752 -0.468683E-04  0.408E-03    1.55       2.9  T
   6   -100.7294761 -0.916773E-06  0.222E-03    1.55       5.3  T
   7   -100.7294763 -0.225272E-06  0.114E-03    1.55      10.3  T
   8   -100.7294763 -0.175782E-07  0.382E-04    1.55      30.8  T
   9   -100.7294763 -0.122270E-07  0.145E-04    1.55      81.6  T
     SCC iter.                  ...        0 min,  0.073 sec
     gradient                   ...        0 min,  0.069 sec
 * total energy  :   -99.3027285 Eh     change       -0.1055748E-02 Eh
   gradient norm :     0.0117684 Eh/α   predicted    -0.8421971E-03 ( -20.23%)
   displ. norm   :     0.3976965 α      lambda       -0.1041537E-02
   maximum displ.:     0.2176882 α      in ANC's #29, #21, #4, ...

........................................................................
.............................. CYCLE   28 ..............................
........................................................................

 iter      E             dE          RMSdq      gap      omega  full diag
   1   -100.7319710 -0.100732E+03  0.157E-01    1.51       0.0  T
   2   -100.7319573  0.136892E-04  0.939E-02    1.55       1.0  T
   3   -100.7312263  0.730973E-03  0.885E-02    1.44       1.0  T
   4   -100.7319834 -0.757046E-03  0.160E-02    1.54       1.0  T
   5   -100.7320057 -0.223181E-04  0.402E-03    1.52       2.9  T
   6   -100.7320066 -0.852141E-06  0.218E-03    1.53       5.4  T
   7   -100.7320068 -0.195972E-06  0.107E-03    1.53      11.0  T
   8   -100.7320068 -0.186873E-07  0.287E-04    1.53      41.1  T
   9   -100.7320068 -0.580826E-08  0.139E-04    1.53      85.1  T
     SCC iter.                  ...        0 min,  0.073 sec
     gradient                   ...        0 min,  0.069 sec
 * total energy  :   -99.3034678 Eh     change       -0.7393362E-03 Eh
   gradient norm :     0.0169174 Eh/α   predicted    -0.6031347E-03 ( -18.42%)
   displ. norm   :     0.4283889 α      lambda       -0.1036125E-02
   maximum displ.:     0.1920218 α      in ANC's #29, #20, #21, ...

........................................................................
.............................. CYCLE   29 ..............................
........................................................................

 iter      E             dE          RMSdq      gap      omega  full diag
   1   -100.7341634 -0.100734E+03  0.144E-01    1.52       0.0  T
   2   -100.7340968  0.666356E-04  0.104E-01    1.50       1.0  T
   3   -100.7341813 -0.845204E-04  0.726E-02    1.52       1.0  T
   4   -100.7343817 -0.200412E-03  0.115E-02    1.50       1.0  T
   5   -100.7343831 -0.139425E-05  0.995E-03    1.52       1.2  T
   6   -100.7343929 -0.973825E-05  0.247E-03    1.51       4.8  T
   7   -100.7343932 -0.366406E-06  0.132E-03    1.51       8.9  T
   8   -100.7343933 -0.416483E-07  0.509E-04    1.51      23.2  T
   9   -100.7343933 -0.121586E-07  0.145E-04    1.51      81.4  T
     SCC iter.                  ...        0 min,  0.073 sec
     gradient                   ...        0 min,  0.069 sec
 * total energy  :   -99.3039959 Eh     change       -0.5281140E-03 Eh
   gradient norm :     0.0196711 Eh/α   predicted    -0.6131365E-03 (  16.10%)
   displ. norm   :     0.3447423 α      lambda       -0.1187153E-02
   maximum displ.:     0.1525740 α      in ANC's #20, #28, #21, ...

........................................................................
.............................. CYCLE   30 ..............................
........................................................................

 iter      E             dE          RMSdq      gap      omega  full diag
   1   -100.7431390 -0.100743E+03  0.124E-01    1.45       0.0  T
   2   -100.7429767  0.162265E-03  0.112E-01    1.53       1.0  T
   3   -100.7435473 -0.570649E-03  0.546E-02    1.47       1.0  T
   4   -100.7434554  0.919155E-04  0.394E-02    1.53       1.0  T
   5   -100.7435979 -0.142476E-03  0.882E-03    1.48       1.3  T
   6   -100.7436058 -0.789441E-05  0.301E-03    1.49       3.9  T
   7   -100.7436068 -0.962054E-06  0.119E-03    1.49       9.9  T
   8   -100.7436068 -0.100926E-07  0.655E-04    1.49      18.0  T
   9   -100.7436068 -0.153307E-07  0.230E-04    1.49      51.2  T
     SCC iter.                  ...        0 min,  0.073 sec
     gradient                   ...        0 min,  0.069 sec
 * total energy  :   -99.3043196 Eh     change       -0.3236989E-03 Eh
   gradient norm :     0.0211995 Eh/α   predicted    -0.6641231E-03 ( 105.17%)
   displ. norm   :     0.2951749 α      lambda       -0.1138310E-02
   maximum displ.:     0.1161395 α      in ANC's #20, #49, #21, ...

........................................................................
.............................. CYCLE   31 ..............................
........................................................................

 iter      E             dE          RMSdq      gap      omega  full diag
   1   -100.7314610 -0.100731E+03  0.146E-01    1.48       0.0  T
   2   -100.7314307  0.302448E-04  0.925E-02    1.47       1.0  T
   3   -100.7310980  0.332747E-03  0.810E-02    1.49       1.0  T
   4   -100.7315283 -0.430371E-03  0.794E-03    1.47       1.5  T
   5   -100.7315324 -0.410202E-05  0.372E-03    1.48       3.2  T
   6   -100.7315334 -0.945875E-06  0.198E-03    1.47       5.9  T
   7   -100.7315336 -0.201457E-06  0.837E-04    1.47      14.1  T
   8   -100.7315336 -0.176176E-07  0.290E-04    1.47      40.6  T
     SCC iter.                  ...        0 min,  0.065 sec
     gradient                   ...        0 min,  0.069 sec
 * total energy  :   -99.3047795 Eh     change       -0.4599023E-03 Eh
   gradient norm :     0.0290917 Eh/α   predicted    -0.6187472E-03 (  34.54%)
   displ. norm   :     0.1762522 α      lambda       -0.8628716E-03
   maximum displ.:     0.1162189 α      in ANC's #29, #27, #28, ...

........................................................................
.............................. CYCLE   32 ..............................
........................................................................

 iter      E             dE          RMSdq      gap      omega  full diag
   1   -100.7364312 -0.100736E+03  0.814E-02    1.51       0.0  T
   2   -100.7363860  0.451178E-04  0.583E-02    1.46       1.0  T
   3   -100.7363940 -0.794602E-05  0.469E-02    1.52       1.0  T
   4   -100.7364737 -0.796807E-04  0.208E-02    1.47       1.0  T
   5   -100.7365135 -0.397991E-04  0.437E-03    1.50       2.7  T
   6   -100.7365153 -0.184133E-05  0.111E-03    1.49      10.6  T
   7   -100.7365154 -0.133441E-06  0.523E-04    1.49      22.6  T
   8   -100.7365154 -0.616178E-08  0.272E-04    1.49      43.4  T
     SCC iter.                  ...        0 min,  0.066 sec
     gradient                   ...        0 min,  0.069 sec
 * total energy  :   -99.3052334 Eh     change       -0.4538655E-03 Eh
   gradient norm :     0.0121030 Eh/α   predicted    -0.4448446E-03 (  -1.99%)
   displ. norm   :     0.2625280 α      lambda       -0.5789553E-03
   maximum displ.:     0.1106508 α      in ANC's #20, #28, #21, ...

........................................................................
.............................. CYCLE   33 ..............................
........................................................................

 iter      E             dE          RMSdq      gap      omega  full diag
   1   -100.7359577 -0.100736E+03  0.844E-02    1.48       0.0  T
   2   -100.7359551  0.261309E-05  0.503E-02    1.50       1.0  T
   3   -100.7357732  0.181903E-03  0.418E-02    1.43       1.0  T
   4   -100.7359614 -0.188227E-03  0.663E-03    1.49       1.8  T
   5   -100.7359648 -0.341932E-05  0.169E-03    1.48       7.0  T
   6   -100.7359648 -0.284253E-07  0.101E-03    1.49      11.7  T
   7   -100.7359649 -0.339836E-07  0.498E-04    1.48      23.7  T
   8   -100.7359649 -0.113747E-07  0.162E-04    1.48      72.7  T
     SCC iter.                  ...        0 min,  0.065 sec
     gradient                   ...        0 min,  0.069 sec
 * total energy  :   -99.3056573 Eh     change       -0.4239466E-03 Eh
   gradient norm :     0.0116569 Eh/α   predicted    -0.3094311E-03 ( -27.01%)
   displ. norm   :     0.4233203 α      lambda       -0.6519070E-03
   maximum displ.:     0.2041974 α      in ANC's #28, #20, #4, ...

........................................................................
.............................. CYCLE   34 ..............................
........................................................................

 iter      E             dE          RMSdq      gap      omega  full diag
   1   -100.7342544 -0.100734E+03  0.129E-01    1.45       0.0  T
   2   -100.7342298  0.246145E-04  0.811E-02    1.49       1.0  T
   3   -100.7336650  0.564802E-03  0.839E-02    1.39       1.0  T
   4   -100.7342677 -0.602696E-03  0.189E-02    1.49       1.0  T
   5   -100.7342998 -0.321377E-04  0.355E-03    1.47       3.3  T
   6   -100.7343005 -0.718521E-06  0.175E-03    1.47       6.7  T
   7   -100.7343007 -0.125873E-06  0.103E-03    1.47      11.5  T
   8   -100.7343007 -0.352832E-07  0.350E-04    1.47      33.6  T
   9   -100.7343007 -0.752685E-08  0.111E-04    1.47     106.1  T
     SCC iter.                  ...        0 min,  0.073 sec
     gradient                   ...        0 min,  0.069 sec
 * total energy  :   -99.3060845 Eh     change       -0.4271333E-03 Eh
   gradient norm :     0.0089488 Eh/α   predicted    -0.3843674E-03 ( -10.01%)
   displ. norm   :     0.2610617 α      lambda       -0.3604538E-03
   maximum displ.:     0.1145695 α      in ANC's #4, #28, #3, ...

   *** GEOMETRY OPTIMIZATION CONVERGED AFTER 34 ITERATIONS ***

------------------------------------------------------------------------
 total energy gain   :        -0.1034387 Eh      -64.9088 kcal/mol
 total RMSD          :         1.1261026 a0        0.5959 Å
 total power (kW/mol):        -7.9875961 (step)  -47.4537 (real)
------------------------------------------------------------------------

 ANCopt (total)                0 d,  0 h,  0 min,  5.723 sec
 optimizer setup                ...        0 min,  0.000 sec (  0.004%)
 model hessian                  ...        0 min,  0.111 sec (  1.932%)
 ANC generation                 ...        0 min,  0.013 sec (  0.220%)
 coordinate transformation      ...        0 min,  0.002 sec (  0.041%)
 single point calculation       ...        0 min,  5.554 sec ( 97.053%)
 optimization log               ...        0 min,  0.010 sec (  0.183%)
 hessian update                 ...        0 min,  0.002 sec (  0.036%)
 rational function              ...        0 min,  0.016 sec (  0.277%)

================
 final structure:
================
72
 xtb: 6.6.1 (8d0f1dd)
N           -1.83626840332085        2.92189699078251        2.30581080658383
C           -1.77196771462472        2.18042360846265        1.30237971333161
C           -2.88058046771160        1.99946658570624        0.30158867163971
C           -3.34366259712651        0.55222009016753        0.31984759901704
C           -4.17145861544717        0.07445795328898       -0.69854909843625
C           -4.61441212160081       -1.23737194916134       -0.71566190921393
O           -5.40942116167388       -1.77833910663411       -1.66364387527659
C           -5.93493582503773       -0.95010578831025       -2.67377623928423
C           -4.21894941384438       -2.12309748625425        0.32231139861529
O           -4.67915126702200       -3.38686119315195        0.21456067879079
C           -4.38488809700248       -4.31054026106333        1.23597880546595
C           -3.41437587660511       -1.63754326968175        1.34049612500683
C           -2.98476630286877       -0.31578869349412        1.33877483875067
C           -2.26127740301279        2.35348013829819       -1.07732674931358
C           -1.36192563591961        1.26274046224969       -1.68985889734951
C           -0.08219139822779        1.06985906228298       -0.97469696169526
N            0.42894210442910       -0.09963622777011       -0.60430632323803
C            1.79053131161185       -0.18730960919071       -0.13400534181050
C            2.72226060014241       -0.78290169546216       -1.20983041424401
C            4.16429030926849       -0.60423253739161       -0.80249460547253
C            4.79040023001707        0.51981616088839       -1.24594179382511
C            6.11141778599511        0.90528021672891       -1.01421013328053
C            7.25585234197497        1.30787952246253       -0.98468863645001
O            8.48710016781591        1.64453971101546       -0.82314292942892
C            8.75732185836827        3.01081019894814       -0.50330995977256
C            5.92332081938799       -1.56846462379007        0.63949989631327
O            6.49950740341511       -2.44649821057681        1.46196042357450
C            5.81004242333213       -3.63134821413639        1.80638249029321
C            4.71018695241692       -1.62216944817009        0.05158041348471
C           -0.28255233215568       -1.34337816976918       -0.77591684449757
C           -4.11554550568637        2.90878601611876        0.57106659128408
C           -4.78931840021081        2.55842622992232        1.89551526503307
C           -3.78328524437849        4.39810602854673        0.54014274524331
H           -4.48107797955438        0.74451472225954       -1.48333564251888
H           -6.52132697127699       -0.12753281801801       -2.25346373560983
H           -6.58587708705589       -1.58974614708305       -3.26640141889048
H           -5.14510558582579       -0.54675612542298       -3.31642927728310
H           -4.77549635038115       -3.97843949605816        2.20237587601349
H           -4.88014292572687       -5.23483054333385        0.94525422891060
H           -3.30757203847593       -4.48805942694254        1.31885866079650
H           -3.11942894856019       -2.27920951452041        2.15470485825842
H           -2.37932713340365        0.03192625388422        2.16130309065685
H           -3.06779430045929        2.55480351895069       -1.78184853092679
H           -1.68165705835920        3.27151031160376       -0.97133276399380
H           -1.91753849469771        0.33096045055722       -1.77366163989613
H           -1.11957851398863        1.60018208901641       -2.70630052383862
H           -0.86899079317987        1.60957898066707        1.01599047475450
H            0.55097447294831        1.93539717857751       -0.84653159246118
H            1.82291939558950       -0.80278570483806        0.76976146765662
H            2.14543433182922        0.81325082301349        0.12197029893832
H            2.53433229529405       -0.25854539821618       -2.15107458155164
H            2.49062746429221       -1.84035788810928       -1.35853838884131
H            4.21723777433346        1.21912643647078       -1.84506128788918
H            6.57845231646780       -0.72201045497748        0.48335559981353
H            8.16436065729517        3.32826370920482        0.36214760109985
H            8.54325029837054        3.66334368251344       -1.36012151741048
H            9.82123845325931        3.05738551012876       -0.25969001380785
H            6.45900870500183       -4.16082007819895        2.50154518549971
H            4.85854508155652       -3.40473634213414        2.29492315353256
H            5.63048051179401       -4.25441904841789        0.92580740445351
H            4.06759658264627       -2.47652277579241        0.22169644591051
H           -0.34275955295257       -1.62362938147420       -1.83024170202404
H           -1.29350595133116       -1.26452137274517       -0.37252878047339
H            0.24089741204292       -2.12973571044975       -0.23753086224475
H           -4.83080761284440        2.70281737942920       -0.23396853468412
H           -4.11906231958458        2.77158246111508        2.72197858334147
H           -5.06973892913122        1.50835474449582        1.92841618122915
H           -5.68870344687659        3.15645655949224        2.01582569810229
H           -3.05156564708820        4.63538267218161        1.30599136593482
H           -3.40306846487716        4.71037336159330       -0.42881398182921
H           -4.68574577346152        4.96861108260735        0.74324395034188
H           -1.01320880132230        2.99037332960309        2.89645374368145

 Bond Distances (Angstroems)
 ---------------------------
N1-C2=1.2493         N1-H72=1.0154        C2-N1=1.2493         C2-C3=1.5044         C2-H47=1.1060        C3-C2=1.5044         
C3-C4=1.5196         C3-C14=1.5525        C3-C31=1.5571        C4-C3=1.5196         C4-C5=1.3967         C4-C13=1.3858        
C5-C4=1.3967         C5-C6=1.3847         C5-H34=1.0774        C6-C5=1.3847         C6-O7=1.3503         C6-C9=1.4207         
O7-C6=1.3503         O7-C8=1.4080         C8-O7=1.4080         C8-H35=1.0941        C8-H36=1.0881        C8-H37=1.0952        
C9-C6=1.4207         C9-O10=1.3493        C9-C12=1.3856        O10-C9=1.3493        O10-C11=1.4082       C11-O10=1.4082       
C11-H38=1.0940       C11-H39=1.0882       C11-H40=1.0950       C12-C9=1.3856        C12-C13=1.3898       C12-H41=1.0778       
C13-C4=1.3858        C13-C12=1.3898       C13-H42=1.0789       C14-C3=1.5525        C14-C15=1.5407       C14-H43=1.0897       
C14-H44=1.0909       C15-C14=1.5407       C15-C16=1.4786       C15-H45=1.0881       C15-H46=1.0981       C16-C15=1.4786       
C16-N17=1.3290       C16-H48=1.0800       N17-C16=1.3290       N17-C18=1.4432       N17-C30=1.4431       C18-N17=1.4432       
C18-C19=1.5428       C18-H49=1.0939       C18-H50=1.0921       C19-C18=1.5428       C19-C20=1.5091       C19-H51=1.0937       
C19-H52=1.0927       C20-C19=1.5091       C20-C21=1.3609       C20-C29=1.4365       C21-C20=1.3609       C21-C22=1.3955       
C21-H53=1.0847       C22-C21=1.3955       C22-C23=1.2135       C23-C22=1.2135       C23-O24=1.2866       O24-C23=1.2866       
O24-C25=1.4290       C25-O24=1.4290       C25-H55=1.0961       C25-H56=1.0981       C25-H57=1.0924       C26-O27=1.3339       
C26-C29=1.3492       C26-H54=1.0817       O27-C26=1.3339       O27-C28=1.4135       C28-O27=1.4135       C28-H58=1.0885       
C28-H59=1.0933       C28-H60=1.0936       C29-C20=1.4365       C29-C26=1.3492       C29-H61=1.0825       C30-N17=1.4431       
C30-H62=1.0926       C30-H63=1.0913       C30-H64=1.0873       C31-C3=1.5571        C31-C32=1.5267       C31-C33=1.5262       
C31-H65=1.0964       C32-C31=1.5267       C32-H66=1.0852       C32-H67=1.0874       C32-H68=1.0867       C33-C31=1.5262       
C33-H69=1.0855       C33-H70=1.0867       C33-H71=1.0868       H34-C5=1.0774        H35-C8=1.0941        H36-C8=1.0881        
H37-C8=1.0952        H38-C11=1.0940       H39-C11=1.0882       H40-C11=1.0950       H41-C12=1.0778       H42-C13=1.0789       
H43-C14=1.0897       H44-C14=1.0909       H45-C15=1.0881       H46-C15=1.0981       H47-C2=1.1060        H48-C16=1.0800       
H49-C18=1.0939       H50-C18=1.0921       H51-C19=1.0937       H52-C19=1.0927       H53-C21=1.0847       H54-C26=1.0817       
H55-C25=1.0961       H56-C25=1.0981       H57-C25=1.0924       H58-C28=1.0885       H59-C28=1.0933       H60-C28=1.0936       
H61-C29=1.0825       H62-C30=1.0926       H63-C30=1.0913       H64-C30=1.0873       H65-C31=1.0964       H66-C32=1.0852       
H67-C32=1.0874       H68-C32=1.0867       H69-C33=1.0855       H70-C33=1.0867       H71-C33=1.0868       H72-N1=1.0154        
 C  H  Rav=1.0898 sigma=0.0061  Rmin=1.0774  Rmax=1.1060    38
 C  C  Rav=1.4465 sigma=0.0871  Rmin=1.2135  Rmax=1.5571    21
 N  H  Rav=1.0154 sigma=0.0000  Rmin=1.0154  Rmax=1.0154     1
 N  C  Rav=1.3661 sigma=0.0820  Rmin=1.2493  Rmax=1.4432     4
 O  C  Rav=1.3724 sigma=0.0465  Rmin=1.2866  Rmax=1.4290     8

 selected bond angles (degree)
 --------------------
H72-N1-C2=117.74               C3-C2-N1=124.59                H47-C2-N1=123.80               H47-C2-C3=111.55               
C4-C3-C2=109.34                C14-C3-C2=105.63               C14-C3-C4=110.45               C31-C3-C2=113.52               
C31-C3-C4=108.20               C31-C3-C14=109.69              C5-C4-C3=119.84                C13-C4-C3=121.76               
C13-C4-C5=118.38               C6-C5-C4=121.51                H34-C5-C4=119.26               H34-C5-C6=119.23               
O7-C6-C5=125.21                C9-C6-C5=119.51                C9-C6-O7=115.28                C8-O7-C6=119.19                
H35-C8-O7=111.51               H36-C8-O7=105.56               H36-C8-H35=109.30              H37-C8-O7=111.62               
H37-C8-H35=109.57              H37-C8-H36=109.17              O10-C9-C6=115.51               C12-C9-C6=118.69               
C12-C9-O10=125.80              C11-O10-C9=119.02              

 selected dihedral angles (degree)
 ---------------------------------
C3-C2-N1-H72=182.04           H47-C2-N1-H72=359.09          C4-C3-C2-N1=243.06            C4-C3-C2-H47= 65.69           
C14-C3-C2-N1=124.20           C14-C3-C2-H47=306.83          C31-C3-C2-N1=  3.98           C31-C3-C2-H47=186.61          
C5-C4-C3-C2=192.78            C5-C4-C3-C14=308.60           C5-C4-C3-C31= 68.68           C13-C4-C3-C2= 13.85           
C13-C4-C3-C14=129.68          C13-C4-C3-C31=249.76          C6-C5-C4-C3=180.04            C6-C5-C4-C13=359.00           
H34-C5-C4-C3=359.38           H34-C5-C4-C13=178.35          O7-C6-C5-C4=180.30            O7-C6-C5-H34=  0.96           
C9-C6-C5-C4=359.87            C9-C6-C5-H34=180.53           C8-O7-C6-C5=354.69            C8-O7-C6-C9=175.11            
H35-C8-O7-C6=302.32           H36-C8-O7-C6=183.73           H37-C8-O7-C6= 65.24           O10-C9-C6-C5=181.02           
O10-C9-C6-O7=  0.63           C12-C9-C6-C5=  1.10           C12-C9-C6-O7=180.71           C11-O10-C9-C6=182.98          
C11-O10-C9-C12=  2.90         
           -------------------------------------------------
          |                Final Singlepoint                |
           -------------------------------------------------

          ...................................................
          :                      SETUP                      :
          :.................................................:
          :  # basis functions                 171          :
          :  # atomic orbitals                 171          :
          :  # shells                          105          :
          :  # electrons                       180          :
          :  max. iterations                   250          :
          :  Hamiltonian                  GFN2-xTB          :
          :  restarted?                      false          :
          :  GBSA solvation                  false          :
          :  PC potential                    false          :
          :  electronic temp.         5000.0000000     K    :
          :  accuracy                    1.0000000          :
          :  -> integral cutoff          0.2500000E+02      :
          :  -> integral neglect         0.1000000E-07      :
          :  -> SCF convergence          0.1000000E-05 Eh   :
          :  -> wf. convergence          0.1000000E-03 e    :
          :  Broyden damping             0.4000000          :
          ...................................................

 iter      E             dE          RMSdq      gap      omega  full diag
   1   -100.7343007 -0.100734E+03  0.489E-05    1.47       0.0  T
   2   -100.7343007 -0.360814E-10  0.324E-05    1.47     363.8  T
   3   -100.7343007 -0.386535E-10  0.207E-05    1.47     570.6  T

   *** convergence criteria satisfied after 3 iterations ***

         #    Occupation            Energy/Eh            Energy/eV
      -------------------------------------------------------------
         1        2.0000           -0.8116028             -22.0848
       ...           ...                  ...                  ...
        84        1.9948           -0.5068737             -13.7927
        85        1.9928           -0.5017208             -13.6525
        86        1.9831           -0.4881732             -13.2839
        87        1.9649           -0.4764081             -12.9637
        88        1.9399           -0.4676805             -12.7262
        89        1.8883           -0.4574548             -12.4480
        90        1.7797           -0.4457620             -12.1298 (HOMO)
        91        0.4212           -0.3917552             -10.6602 (LUMO)
        92        0.0342           -0.3485506              -9.4845
        93        0.0147           -0.3350310              -9.1167
        94        0.0040           -0.3144852              -8.5576
        95        0.0033           -0.3110700              -8.4646
       ...           ...                  ...                  ...
       171                          1.3298075              36.1859
      -------------------------------------------------------------
                  HL-Gap            0.0540068 Eh            1.4696 eV
             Fermi-level           -0.4126780 Eh          -11.2295 eV

 SCC (total)                   0 d,  0 h,  0 min,  0.116 sec
 SCC setup                      ...        0 min,  0.001 sec (  0.755%)
 Dispersion                     ...        0 min,  0.002 sec (  1.361%)
 classical contributions        ...        0 min,  0.000 sec (  0.377%)
 integral evaluation            ...        0 min,  0.017 sec ( 15.085%)
 iterations                     ...        0 min,  0.026 sec ( 22.430%)
 molecular gradient             ...        0 min,  0.069 sec ( 59.500%)
 printout                       ...        0 min,  0.001 sec (  0.479%)

         :::::::::::::::::::::::::::::::::::::::::::::::::::::
         ::                     SUMMARY                     ::
         :::::::::::::::::::::::::::::::::::::::::::::::::::::
         :: total energy             -99.306084465699 Eh    ::
         :: gradient norm              0.008950422250 Eh/a0 ::
         :: HOMO-LUMO gap              1.469600104810 eV    ::
         ::.................................................::
         :: SCC energy              -100.734300718432 Eh    ::
         :: -> isotropic ES            0.103336768755 Eh    ::
         :: -> anisotropic ES          0.006435485675 Eh    ::
         :: -> anisotropic XC          0.047701409240 Eh    ::
         :: -> dispersion             -0.073659760101 Eh    ::
         :: repulsion energy           1.426899356327 Eh    ::
         :: add. restraining           0.000000000000 Eh    ::
         :: total charge               1.000000000061 e     ::
         :::::::::::::::::::::::::::::::::::::::::::::::::::::

           -------------------------------------------------
          |                Property Printout                |
           -------------------------------------------------

    * Orbital Energies and Occupations

         #    Occupation            Energy/Eh            Energy/eV
      -------------------------------------------------------------
         1        2.0000           -0.8116028             -22.0848
       ...           ...                  ...                  ...
        78        1.9990           -0.5330146             -14.5041
        79        1.9984           -0.5259712             -14.3124
        80        1.9984           -0.5251505             -14.2901
        81        1.9977           -0.5200603             -14.1516
        82        1.9962           -0.5119234             -13.9301
        83        1.9956           -0.5093731             -13.8607
        84        1.9948           -0.5068737             -13.7927
        85        1.9928           -0.5017208             -13.6525
        86        1.9831           -0.4881732             -13.2839
        87        1.9649           -0.4764081             -12.9637
        88        1.9399           -0.4676805             -12.7262
        89        1.8883           -0.4574548             -12.4480
        90        1.7797           -0.4457620             -12.1298 (HOMO)
        91        0.4212           -0.3917552             -10.6602 (LUMO)
        92        0.0342           -0.3485506              -9.4845
        93        0.0147           -0.3350310              -9.1167
        94        0.0040           -0.3144852              -8.5576
        95        0.0033           -0.3110700              -8.4646
        96        0.0001           -0.2578177              -7.0156
        97        0.0000           -0.2414724              -6.5708
        98        0.0000           -0.1886328              -5.1330
        99        0.0000           -0.1827679              -4.9734
       100                         -0.1329082              -3.6166
       101                         -0.0752886              -2.0487
       ...                                ...                  ...
       171                          1.3298075              36.1859
      -------------------------------------------------------------
                  HL-Gap            0.0540068 Eh            1.4696 eV
             Fermi-level           -0.4126780 Eh          -11.2295 eV

     #   Z          covCN         q      C6AA      α(0)
     1   7 N        1.774    -0.272    27.865     7.817
     2   6 C        2.828     0.101    25.746     8.314
     3   6 C        3.907     0.006    20.416     6.422
     4   6 C        2.974     0.001    28.002     8.680
     5   6 C        2.920    -0.081    30.032     8.987
     6   6 C        2.862     0.127    25.204     8.229
     7   8 O        1.706    -0.233    17.866     5.707
     8   6 C        3.645     0.028    20.432     6.497
     9   6 C        2.864     0.126    25.224     8.232
    10   8 O        1.706    -0.232    17.842     5.703
    11   6 C        3.645     0.028    20.441     6.498
    12   6 C        2.914    -0.076    29.885     8.964
    13   6 C        2.921    -0.053    29.321     8.880
    14   6 C        3.812    -0.064    21.712     6.632
    15   6 C        3.802    -0.069    21.820     6.651
    16   6 C        2.842     0.005    27.910     8.658
    17   7 N        2.729     0.009    21.102     6.823
    18   6 C        3.756    -0.015    20.890     6.517
    19   6 C        3.813    -0.071    21.840     6.652
    20   6 C        2.952     0.009    27.826     8.652
    21   6 C        2.899    -0.026    28.639     8.775
    22   6 C        1.967    -0.079    33.225     9.308
    23   6 C        1.880     0.115    28.284     8.590
    24   8 O        1.703    -0.179    17.003     5.567
    25   6 C        3.663     0.023    20.447     6.486
    26   6 C        2.790     0.102    25.723     8.308
    27   8 O        1.704    -0.213    17.545     5.655
    28   6 C        3.646     0.022    20.531     6.511
    29   6 C        2.893    -0.084    30.107     8.996
    30   6 C        3.700    -0.070    22.005     6.709
    31   6 C        3.853    -0.007    20.667     6.466
    32   6 C        3.756    -0.118    22.812     6.810
    33   6 C        3.755    -0.119    22.839     6.814
    34   1 H        0.926     0.051     2.304     2.374
    35   1 H        0.924     0.053     2.281     2.362
    36   1 H        0.925     0.080     1.978     2.199
    37   1 H        0.924     0.045     2.378     2.411
    38   1 H        0.924     0.054     2.265     2.354
    39   1 H        0.925     0.080     1.979     2.200
    40   1 H        0.924     0.046     2.372     2.409
    41   1 H        0.926     0.051     2.307     2.375
    42   1 H        0.926     0.039     2.457     2.451
    43   1 H        0.925     0.060     2.197     2.318
    44   1 H        0.924     0.053     2.285     2.364
    45   1 H        0.925     0.065     2.136     2.285
    46   1 H        0.923     0.078     2.004     2.214
    47   1 H        0.922     0.003     3.004     2.710
    48   1 H        0.926     0.066     2.127     2.280
    49   1 H        0.924     0.065     2.142     2.289
    50   1 H        0.924     0.066     2.135     2.285
    51   1 H        0.924     0.051     2.303     2.373
    52   1 H        0.924     0.055     2.263     2.353
    53   1 H        0.925     0.052     2.293     2.368
    54   1 H        0.925     0.078     1.999     2.211
    55   1 H        0.924     0.057     2.233     2.337
    56   1 H        0.923     0.062     2.178     2.308
    57   1 H        0.924     0.084     1.938     2.177
    58   1 H        0.925     0.082     1.962     2.191
    59   1 H        0.924     0.052     2.297     2.370
    60   1 H        0.924     0.058     2.225     2.333
    61   1 H        0.925     0.042     2.423     2.434
    62   1 H        0.924     0.075     2.030     2.228
    63   1 H        0.924     0.080     1.977     2.199
    64   1 H        0.925     0.077     2.007     2.215
    65   1 H        0.924     0.036     2.504     2.474
    66   1 H        0.925     0.067     2.118     2.276
    67   1 H        0.925     0.035     2.519     2.482
    68   1 H        0.925     0.050     2.315     2.380
    69   1 H        0.925     0.063     2.170     2.304
    70   1 H        0.925     0.034     2.528     2.486
    71   1 H        0.925     0.053     2.277     2.360
    72   1 H        0.860     0.155     1.367     1.832

 Mol. C6AA /au·bohr⁶  :      47702.389497
 Mol. C8AA /au·bohr⁸  :    1088377.676505
 Mol. α(0) /au        :        335.081403


Wiberg/Mayer (AO) data.
largest (>0.10) Wiberg bond orders for each atom

 ---------------------------------------------------------------------------
     #   Z sym  total        # sym  WBO       # sym  WBO       # sym  WBO
 ---------------------------------------------------------------------------
     1   7 N    3.034 --     2 C    1.955    72 H    0.943
     2   6 C    3.931 --     1 N    1.955     3 C    0.994    47 H    0.908
     3   6 C    3.976 --     2 C    0.994     4 C    0.972    14 C    0.955
                            31 C    0.943
     4   6 C    3.953 --    13 C    1.416     5 C    1.366     3 C    0.972
     5   6 C    3.964 --     6 C    1.403     4 C    1.366    34 H    0.958
     6   6 C    3.909 --     5 C    1.403     9 C    1.225     7 O    1.095
     7   8 O    2.253 --     6 C    1.095     8 C    0.979
     8   6 C    3.933 --     7 O    0.979    36 H    0.977    35 H    0.974
                            37 H    0.974
     9   6 C    3.905 --    12 C    1.394     6 C    1.225    10 O    1.097
    10   8 O    2.252 --     9 C    1.097    11 C    0.978
    11   6 C    3.933 --    10 O    0.978    39 H    0.977    40 H    0.974
                            38 H    0.974
    12   6 C    3.965 --    13 C    1.401     9 C    1.394    41 H    0.964
    13   6 C    3.958 --     4 C    1.416    12 C    1.401    42 H    0.963
    14   6 C    3.970 --    15 C    0.978    44 H    0.973    43 H    0.968
                             3 C    0.955
    15   6 C    3.987 --    16 C    1.061    14 C    0.978    45 H    0.961
                            46 H    0.929
    16   6 C    3.574 --    17 N    1.395    15 C    1.061    48 H    0.958
    17   7 N    3.468 --    16 C    1.395    30 C    0.998    18 C    0.989
    18   6 C    3.952 --    17 N    0.989    50 H    0.968    19 C    0.966
                            49 H    0.964
    19   6 C    3.976 --    20 C    1.006    51 H    0.972    52 H    0.970
                            18 C    0.966
    20   6 C    3.916 --    21 C    1.586    29 C    1.177    19 C    1.006
    21   6 C    3.898 --    20 C    1.586    22 C    1.205    53 H    0.943
    22   6 C    3.901 --    23 C    2.469    21 C    1.205    24 O    0.139
    23   6 C    3.843 --    22 C    2.469    24 O    1.199
    24   8 O    2.328 --    23 C    1.199    25 C    0.933    22 C    0.139
    25   6 C    3.914 --    55 H    0.980    57 H    0.978    56 H    0.977
                            24 O    0.933
    26   6 C    3.858 --    29 C    1.624    27 O    1.155    54 H    0.937
    27   8 O    2.298 --    26 C    1.155    28 C    0.971    29 C    0.103
    28   6 C    3.932 --    58 H    0.978    59 H    0.974    60 H    0.974
                            27 O    0.971
    29   6 C    3.922 --    26 C    1.624    20 C    1.177    61 H    0.959
                            27 O    0.103
    30   6 C    3.958 --    17 N    0.998    64 H    0.978    62 H    0.966
                            63 H    0.961
    31   6 C    3.974 --    33 C    1.009    32 C    1.008    65 H    0.961
                             3 C    0.943
    32   6 C    3.981 --    31 C    1.008    67 H    0.982    68 H    0.982
                            66 H    0.975
    33   6 C    3.983 --    31 C    1.009    70 H    0.983    71 H    0.980
                            69 H    0.976
    34   1 H    0.996 --     5 C    0.958
    35   1 H    0.994 --     8 C    0.974
    36   1 H    0.993 --     8 C    0.977
    37   1 H    0.994 --     8 C    0.974
    38   1 H    0.993 --    11 C    0.974
    39   1 H    0.993 --    11 C    0.977
    40   1 H    0.994 --    11 C    0.974
    41   1 H    0.996 --    12 C    0.964
    42   1 H    0.998 --    13 C    0.963
    43   1 H    0.995 --    14 C    0.968
    44   1 H    0.996 --    14 C    0.973
    45   1 H    0.995 --    15 C    0.961
    46   1 H    0.970 --    15 C    0.929
    47   1 H    0.987 --     2 C    0.908
    48   1 H    0.995 --    16 C    0.958
    49   1 H    0.990 --    18 C    0.964
    50   1 H    0.995 --    18 C    0.968
    51   1 H    0.996 --    19 C    0.972
    52   1 H    0.995 --    19 C    0.970
    53   1 H    0.993 --    21 C    0.943
    54   1 H    0.993 --    26 C    0.937
    55   1 H    0.993 --    25 C    0.980
    56   1 H    0.992 --    25 C    0.977
    57   1 H    0.992 --    25 C    0.978
    58   1 H    0.993 --    28 C    0.978
    59   1 H    0.994 --    28 C    0.974
    60   1 H    0.992 --    28 C    0.974
    61   1 H    0.997 --    29 C    0.959
    62   1 H    0.984 --    30 C    0.966
    63   1 H    0.988 --    30 C    0.961
    64   1 H    0.994 --    30 C    0.978
    65   1 H    0.993 --    31 C    0.961
    66   1 H    0.992 --    32 C    0.975
    67   1 H    0.997 --    32 C    0.982
    68   1 H    0.994 --    32 C    0.982
    69   1 H    0.993 --    33 C    0.976
    70   1 H    0.997 --    33 C    0.983
    71   1 H    0.994 --    33 C    0.980
    72   1 H    0.971 --     1 N    0.943
 ---------------------------------------------------------------------------

Topologies differ in total number of bonds
Writing topology from bond orders to xtbtopo.mol

molecular dipole:
                 x           y           z       tot (Debye)
 q only:        1.416       0.086      -0.542
   full:        1.674       0.038      -0.653       4.569
molecular quadrupole (traceless):
                xx          xy          yy          xz          yz          zz
 q only:       46.784      11.033      -9.398      10.734     -13.765     -37.386
  q+dip:       43.665      17.636      -9.883      14.049     -18.238     -33.782
   full:       41.741      16.184      -9.027      11.673     -18.111     -32.714

           -------------------------------------------------
          |                Geometry Summary                 |
           -------------------------------------------------

      molecular mass/u    :      455.6105846
   center of mass at/Å    :        0.0328308       0.0264816      -0.0495128
  moments of inertia/u·Å² :        0.2855406E+04   0.1049629E+05   0.1195704E+05
rotational constants/cm⁻¹ :        0.5903760E-02   0.1606057E-02   0.1409850E-02

 * 61 selected distances

     #   Z          #   Z                                           value/Å
     1   7 N        2   6 C                                       1.2493165
     4   6 C        5   6 C                                       1.3966514
     5   6 C        6   6 C                                       1.3847017
     6   6 C        7   8 O                                       1.3503166
     7   8 O        8   6 C                                       1.4080142
     6   6 C        9   6 C                                       1.4206651
     9   6 C       10   8 O                                       1.3492572
    10   8 O       11   6 C                                       1.4082149
     9   6 C       12   6 C                                       1.3855692
     4   6 C       13   6 C                                       1.3858062
    12   6 C       13   6 C                                       1.3898212
    15   6 C       16   6 C                                       1.4786413
    16   6 C       17   7 N                                       1.3289719
    17   7 N       18   6 C                                       1.4431892
    20   6 C       21   6 C                                       1.3609353
    22   6 C       23   6 C                                       1.2135438
    23   6 C       24   8 O                                       1.2866268
    24   8 O       25   6 C                                       1.4289886
    26   6 C       27   8 O                                       1.3339324
    27   8 O       28   6 C                                       1.4134562
    26   6 C       29   6 C                                       1.3491581
    17   7 N       30   6 C                                       1.4431108
    31   6 C       32   6 C                                       1.5267241 (max)
    31   6 C       33   6 C                                       1.5262463
     5   6 C       34   1 H                                       1.0773720 (min)
     8   6 C       35   1 H                                       1.0941406
     8   6 C       36   1 H                                       1.0881494
     8   6 C       37   1 H                                       1.0952287
    11   6 C       38   1 H                                       1.0939786
    11   6 C       39   1 H                                       1.0881686
    11   6 C       40   1 H                                       1.0949850
    12   6 C       41   1 H                                       1.0778058
    13   6 C       42   1 H                                       1.0788954
    14   6 C       43   1 H                                       1.0896567
    14   6 C       44   1 H                                       1.0908593
    15   6 C       45   1 H                                       1.0880913
    15   6 C       46   1 H                                       1.0980677
    16   6 C       48   1 H                                       1.0800379
    18   6 C       49   1 H                                       1.0939170
    18   6 C       50   1 H                                       1.0920628
    19   6 C       51   1 H                                       1.0937127
    19   6 C       52   1 H                                       1.0926947
    21   6 C       53   1 H                                       1.0846633
    26   6 C       54   1 H                                       1.0816946
    25   6 C       55   1 H                                       1.0960824
    25   6 C       56   1 H                                       1.0980678
    25   6 C       57   1 H                                       1.0924462
    28   6 C       58   1 H                                       1.0884618
    28   6 C       59   1 H                                       1.0933308
    28   6 C       60   1 H                                       1.0935595
    29   6 C       61   1 H                                       1.0824886
    30   6 C       62   1 H                                       1.0925963
    30   6 C       63   1 H                                       1.0913147
    30   6 C       64   1 H                                       1.0872983
    31   6 C       65   1 H                                       1.0964054
    32   6 C       66   1 H                                       1.0852284
    32   6 C       67   1 H                                       1.0873677
    32   6 C       68   1 H                                       1.0867422
    33   6 C       69   1 H                                       1.0854668
    33   6 C       70   1 H                                       1.0867166
    33   6 C       71   1 H                                       1.0868125

 * 4 distinct bonds (by element types)

   Z      Z             #   av. dist./Å        max./Å        min./Å
   1 H    6 C          37     1.0893127     1.0980678     1.0773720
   6 C    6 C          12     1.4015386     1.5267241     1.2135438
   6 C    7 N           4     1.3661471     1.4431892     1.2493165
   6 C    8 O           8     1.3723509     1.4289886     1.2866268


optimized geometry written to: xtbopt.xyz


           -------------------------------------------------
          | TOTAL ENERGY              -99.306084465699 Eh   |
          | GRADIENT NORM               0.008950422250 Eh/α |
          | HOMO-LUMO GAP               1.469600104810 eV   |
           -------------------------------------------------

------------------------------------------------------------------------
 * finished run on 2024/04/06 at 11:14:35.574     
------------------------------------------------------------------------
 total:
 * wall-time:     0 d,  0 h,  0 min,  6.013 sec
 *  cpu-time:     0 d,  0 h,  0 min,  5.981 sec
 * ratio c/w:     0.995 speedup
 SCF:
 * wall-time:     0 d,  0 h,  0 min,  0.119 sec
 *  cpu-time:     0 d,  0 h,  0 min,  0.119 sec
 * ratio c/w:     1.000 speedup
 ANC optimizer:
 * wall-time:     0 d,  0 h,  0 min,  5.846 sec
 *  cpu-time:     0 d,  0 h,  0 min,  5.838 sec
 * ratio c/w:     0.999 speedup

