25
 energy: -39.341218021033 gnorm: 14.326338609752 xtb: 6.6.1 (8d0f1dd)
C            3.05205172087475        1.09985183413038        0.33584041519807
N            2.08818138852009        0.13460768500354       -0.12340525767131
C            2.29615678821009       -1.15528138098980       -0.26557761953137
N            1.19143564404155       -1.78875602395648       -0.68136804685818
C            0.07232677779653       -0.83652967732956       -0.96642616855696
C            0.77112041276004        0.42728626301371       -0.43258483581536
C            0.05345412334776        1.55454313314374       -0.01937202104141
O            0.45153953009216        2.65088327254069        0.31484209451412
N           -1.38846413886500        1.28174678096160        0.01552606595192
C           -2.22263476561428        2.28923956478067        0.06564977387643
C           -1.89276725974803       -0.05098166290163        0.35862669079664
O           -2.95094993684077       -0.14622741090791        0.90861649337626
N           -1.07276009427544       -1.07079232313184        0.03926482930762
C           -1.51360599264776       -2.43183875869072        0.25608024533975
H            3.52033729380370        0.75829336017255        1.25863863015421
H            3.82490046672314        1.24531442912346       -0.42089707126895
H            2.54734371981781        2.04995218532412        0.51119727138653
H            3.22985774638985       -1.64786615126536       -0.06571133225889
H           -1.83009856021539        3.28417931389827       -0.06782067513859
H           -0.04988155778013       -0.84427636694210       -1.29721080416716
H           -3.26427107625468        2.09772556846020        0.26736501046949
H           -0.78784284434305       -2.96319133270903        0.87156504729023
H           -1.64454108211846       -2.94814820330804       -0.69624434419219
H           -2.46803315631562       -2.40425404320549        0.77764794559408
H            1.14757636674187       -2.76724151361322       -0.91307071885505
25
 energy: -42.135339975454 gnorm: 0.136984412887 xtb: 6.6.1 (8d0f1dd)
C            3.05209447830258        1.09989970077699        0.33581038903447
N            2.08850739597615        0.13487146923582       -0.12323155473696
C            2.29673840839664       -1.15553374280789       -0.26545919891009
N            1.19461203297512       -1.78992047777876       -0.67774288078744
C            0.18196272742637       -0.82995607910524       -0.66791067755853
C            0.77339509176392        0.42913367319086       -0.42901968604385
C            0.05342598488265        1.55463259497141       -0.01938972432501
O            0.45151207998387        2.65093490246471        0.31473212642301
N           -1.38842368641287        1.28171412286556        0.01560995575491
C           -2.22263428870239        2.28922329991289        0.06564797482260
C           -1.89280864851587       -0.05090623871463        0.35859242472109
O           -2.95106809833482       -0.14623635521977        0.90849960740368
N           -1.07299767914829       -1.07108007990745        0.04323563832394
C           -1.51367916908462       -2.43189032224563        0.25598471714347
H            3.52033626864216        0.75829576085252        1.25862220516875
H            3.82488643723215        1.24531770495065       -0.42088726508981
H            2.54735057250839        2.04993203023607        0.51119979016481
H            3.22989823599087       -1.64785985486573       -0.06576831136723
H           -1.83010099984694        3.28418770835741       -0.06781952143467
H           -0.16516311037505       -0.85152672733042       -1.60648437868479
H           -3.26426860140217        2.09772987894999        0.26735807226664
H           -0.78786971028804       -2.96319013622419        0.87160426785304
H           -1.64449885566423       -2.94814358150010       -0.69625291696946
H           -2.46805976623359       -2.40426020419202        0.77761409241890
H            1.14728441402874       -2.76713050527130       -0.91337352769151
25
 energy: -42.153364002714 gnorm: 0.095918441574 xtb: 6.6.1 (8d0f1dd)
C            3.06983039021844        1.10824218874088        0.34041716066241
N            2.10935985739625        0.14416406638695       -0.12033404550194
C            2.31916416193907       -1.14674997573880       -0.26517271629467
N            1.20431078418169       -1.78677150049639       -0.66447703279562
C            0.12826882229951       -0.85108304058249       -0.72802466486446
C            0.78328196150207        0.43219255480898       -0.41647599539408
C            0.05979036419489        1.55742659572791       -0.00172326471689
O            0.45301657638345        2.66253047570752        0.31034282999714
N           -1.38196426143410        1.27894611937179        0.02816190009785
C           -2.21837361873046        2.28772226886598        0.06548653660019
C           -1.89589248684913       -0.04989589909685        0.37345368627320
O           -2.96718366075817       -0.14069691043570        0.90052808803704
N           -1.08857788015457       -1.07882582795530        0.05358017355782
C           -1.52456251173164       -2.44027662810732        0.26233196510046
H            3.53316135261621        0.76179977009617        1.26332919742124
H            3.84221200488997        1.25844181254844       -0.41383411323270
H            2.55634037795925        2.05226208855945        0.51993062623682
H            3.25636573060650       -1.63508528136918       -0.07453379464233
H           -1.82620984611866        3.28291188198389       -0.06743334457252
H           -0.21844917435683       -0.87440087570528       -1.67106291058202
H           -3.26107912962520        2.09718287111426        0.26157897195235
H           -0.79542376778061       -2.97456210437198        0.87136770649373
H           -1.65262187555857       -2.94696463711184       -0.69638556728961
H           -2.47930577466850       -2.41302686059170        0.78153516991899
H            1.15497311767987       -2.76724461074765       -0.88141494456246
25
 energy: -42.159819235002 gnorm: 0.094299356061 xtb: 6.6.1 (8d0f1dd)
C            3.07394726631163        1.11193856659866        0.33991591728123
N            2.10988837982655        0.14338531377068       -0.10753996353593
C            2.31689662452282       -1.14808906424219       -0.24923361243143
N            1.19708438648391       -1.78596670567617       -0.63704613147656
C            0.10162536610327       -0.84955551954376       -0.79961799018058
C            0.78289497321439        0.43013450431356       -0.39394577784057
C            0.06334334592999        1.55981624792931        0.01203821926794
O            0.45555095614238        2.66702736502748        0.31544896389912
N           -1.37641092981989        1.27885472263614        0.04376148515723
C           -2.21485053856984        2.28609202791649        0.07536783398734
C           -1.88952736864731       -0.05176353413807        0.37378493470109
O           -2.96467094809242       -0.14947618762929        0.89267887855107
N           -1.07856913583267       -1.07901681844675        0.05214143818990
C           -1.51943761011766       -2.44075455584528        0.26444815736982
H            3.54464266703096        0.77016386221939        1.26079628702762
H            3.84320091823769        1.26213414467735       -0.41723126862172
H            2.56308780556769        2.05708482844013        0.51955902829156
H            3.25912450814033       -1.63519739157607       -0.07905441696426
H           -1.82509857921134        3.28140453000185       -0.06550355665936
H           -0.24201949104548       -0.87324590661269       -1.75182698271355
H           -3.26007359765713        2.09383354748205        0.25651431126590
H           -0.79485166866261       -2.97953617269283        0.87447102903589
H           -1.65044631518475       -2.94869341075942       -0.69334423384291
H           -2.47512982334544       -2.41233295455475        0.78326997671302
H            1.14023032277566       -2.77000289769408       -0.83868090857194
25
 energy: -42.160913556839 gnorm: 0.090857710892 xtb: 6.6.1 (8d0f1dd)
C            3.07309930773363        1.11273039662211        0.33809517240840
N            2.10606791038284        0.14221044316093       -0.10314060275084
C            2.31042733795733       -1.15001313869857       -0.24247906996635
N            1.19059847943873       -1.78723470704834       -0.62284471525225
C            0.09982453278046       -0.84691383541808       -0.82082658067531
C            0.78133888648347        0.42937325313238       -0.38655508079018
C            0.06325505350008        1.56054882680185        0.01306128774935
O            0.45510565922719        2.66696384277168        0.31991029862106
N           -1.37583764929151        1.27909367960028        0.04602229954460
C           -2.21535147866721        2.28473186727810        0.07713415501801
C           -1.88573873288143       -0.05326365918632        0.36684445328053
O           -2.96051873099865       -0.15580477617805        0.88553126258320
N           -1.06626563470618       -1.07754215100131        0.05094198876723
C           -1.51413698555385       -2.43859560697281        0.26288909889034
H            3.55223502158620        0.77462096419839        1.25646988788729
H            3.83795277788261        1.26180154301516       -0.42438187276758
H            2.56548153641070        2.05945820524755        0.51880371414512
H            3.25233676351447       -1.63867824894969       -0.07556978824199
H           -1.82434183284783        3.28106150068151       -0.05237249549422
H           -0.24302082826509       -0.87107616780984       -1.78037531372470
H           -3.26014133407658        2.09140812459745        0.25815509306739
H           -0.79518356249512       -2.97862288767832        0.87844264626505
H           -1.64490140574507       -2.95012926350288       -0.69276535378441
H           -2.47129712087223       -2.40576179581759        0.77962252656523
H            1.12944354360376       -2.77212786724386       -0.81944139344503
25
 energy: -42.162059899866 gnorm: 0.079375267590 xtb: 6.6.1 (8d0f1dd)
C            3.07267190755709        1.11396735180802        0.33381770132441
N            2.10280019038676        0.14117913557701       -0.10024346263550
C            2.30535453797222       -1.15144319274185       -0.23763126475390
N            1.18600012493479       -1.78854678618604       -0.60841496776634
C            0.10266129603269       -0.84498273704965       -0.82932686784114
C            0.77993858823022        0.42702634769862       -0.37827103122671
C            0.06257607827577        1.55906893001824        0.01444627342968
O            0.45414477932003        2.66467741982071        0.32643466198390
N           -1.37664374087751        1.27880956781711        0.04820619240798
C           -2.21624962090057        2.28359269958054        0.08091636523109
C           -1.88332764174666       -0.05483849846929        0.35870164552051
O           -2.95941571385982       -0.16248320151854        0.87389028651948
N           -1.05097342766688       -1.07581753557684        0.05529935437305
C           -1.51080069704428       -2.43575309667269        0.26072256819472
H            3.56425281198273        0.77812209210596        1.24693517598264
H            3.82940955276458        1.26416812478090       -0.43755663658152
H            2.56669901301418        2.06072500153887        0.51944051597386
H            3.24588006978942       -1.64239828654635       -0.07000609613773
H           -1.82302510200447        3.28058392049122       -0.03765848025233
H           -0.24064213397371       -0.86943324952564       -1.80146077430833
H           -3.26184608942446        2.08934791840646        0.25587417750059
H           -0.80133094631350       -2.97869054845408        0.88507731010907
H           -1.63715354575134       -2.94924316929685       -0.69398578465168
H           -2.47154107314767       -2.39650648544894        0.77109980302822
H            1.12099229655112       -2.77289318055517       -0.80513504752408
25
 energy: -42.163628320555 gnorm: 0.056459155630 xtb: 6.6.1 (8d0f1dd)
C            3.07428043637707        1.11697826717050        0.32581002757431
N            2.10194983428120        0.14092398082062       -0.09815525304640
C            2.30438496067014       -1.15177181850364       -0.23402116512500
N            1.18496809906746       -1.79024687773872       -0.59149567243134
C            0.10909861315011       -0.84520805213887       -0.82090362094535
C            0.77918106989356        0.42253839154382       -0.36655439992034
C            0.06152079209214        1.55513630100777        0.01774226559128
O            0.45245163232787        2.66067277464539        0.33427237092832
N           -1.37878135578537        1.27726767557845        0.05026764199254
C           -2.21712577515939        2.28263616424584        0.08422690479911
C           -1.88383425496171       -0.05627539418137        0.34981711446170
O           -2.96573482111132       -0.16876513526550        0.85216771730743
N           -1.03433528554504       -1.07488459245200        0.06941462284234
C           -1.51226998889818       -2.43340756943691        0.25873384599964
H            3.58443196904151        0.78087134453531        1.22895576897741
H            3.81697255249442        1.27307550279559       -0.45918179254165
H            2.56729362619189        2.06104100812445        0.52280341837886
H            3.24353575410187       -1.64482628233067       -0.06381654400217
H           -1.81960513417189        3.27966405815347       -0.02069657419677
H           -0.23648641416026       -0.86959424098607       -1.81627705310567
H           -3.26377704929927        2.08884807976261        0.25214330490753
H           -0.81755081918435       -2.98294885291583        0.89465488425377
H           -1.62775866536180       -2.94425179555814       -0.69808754364523
H           -2.47977760632680       -2.38688799445612        0.75608651592420
H            1.11739934437686       -2.77234640081826       -0.79673516707858
25
 energy: -42.165059279690 gnorm: 0.030748321109 xtb: 6.6.1 (8d0f1dd)
C            3.07878286071882        1.12150189653210        0.31646532889610
N            2.10586038927608        0.14222438789973       -0.09735853444424
C            2.31045905072422       -1.15040783125117       -0.23229439475647
N            1.18934351087959       -1.79240784949314       -0.57795272782482
C            0.11499281589119       -0.84920254116125       -0.79376016364529
C            0.78006749794747        0.41859406772993       -0.35585145396049
C            0.06123487821553        1.55144024687020        0.02299978344770
O            0.45140333071931        2.65769368724414        0.33989969278083
N           -1.38053925746310        1.27501315169329        0.05303401454444
C           -2.21611557309162        2.28305169133284        0.08836335564387
C           -1.88935277594963       -0.05681877777389        0.34431588691166
O           -2.98027882040518       -0.17072040954806        0.82674571582487
N           -1.02944981726029       -1.07668333796726        0.08757723884623
C           -1.52065318418159       -2.43428348829030        0.25797942349166
H            3.60645852691660        0.78204253918043        1.20795122006243
H            3.80611910889400        1.28764055496038       -0.48107333317947
H            2.56793992389427        2.06048174833234        0.52804368413653
H            3.25012072160388       -1.64289069294482       -0.06169073730784
H           -1.81482687645723        3.27874457895926       -0.01236023836303
H           -0.23375908294064       -0.87308292884185       -1.81709385028045
H           -3.26438489303078        2.09118665449319        0.24829194127126
H           -0.83852673631307       -2.99150149162596        0.90087856834717
H           -1.62279445512938       -2.93691409387995       -0.70443656426142
H           -2.49508856450832       -2.38487753375782        0.74073203334146
H            1.12341893515056       -2.77158568709066       -0.79823427162275
25
 energy: -42.165856173261 gnorm: 0.011507191847 xtb: 6.6.1 (8d0f1dd)
C            3.08456765330108        1.12623028340312        0.30847687170440
N            2.11220193576753        0.14433878557705       -0.09640380646478
C            2.31957917382009       -1.14836296059108       -0.22991582894014
N            1.19569326218245       -1.79509612580292       -0.56796093038065
C            0.11709945136670       -0.85546740083447       -0.76321599613116
C            0.78210029268478        0.41737727122205       -0.34870050706792
C            0.06216719759256        1.55039139515426        0.02978895670842
O            0.45143600331908        2.65811329378959        0.34133396066235
N           -1.38039984423306        1.27316272073322        0.05599718458349
C           -2.21352134141553        2.28424760183130        0.09076722359508
C           -1.89704994612312       -0.05678606313565        0.34293702527919
O           -2.99660746877663       -0.16862348557282        0.80573686502125
N           -1.03958837871878       -1.08083562082391        0.09819822564748
C           -1.53209478787318       -2.43810349060516        0.25698498343827
H            3.62450567815126        0.78324617561991        1.19049649497476
H            3.79972456302450        1.30219841012225       -0.49711433043841
H            2.56988383868845        2.06024485406478        0.53236640086132
H            3.26221475994592       -1.63710045390854       -0.06449299533674
H           -1.81007880588725        3.27867725423841       -0.01146371018723
H           -0.23338679229481       -0.87880851332438       -1.80917078225864
H           -3.26256023526186        2.09487039682956        0.24835065968994
H           -0.85472995886943       -3.00040556764248        0.89927922794370
H           -1.62545885724969       -2.93185519451033       -0.71117904129887
H           -2.51044321283098       -2.39112110764880        0.73047547415807
H            1.13517733379063       -2.77229391658327       -0.80040000786323
25
 energy: -42.166045435521 gnorm: 0.004572977535 xtb: 6.6.1 (8d0f1dd)
C            3.08813363172333        1.12918441428007        0.30371218519558
N            2.11575915025011        0.14545626923082       -0.09449179933740
C            2.32437703901780       -1.14736033683792       -0.22581278953678
N            1.19867694353576       -1.79712081990726       -0.56031144557866
C            0.11685691600574       -0.85953865761108       -0.74907268511826
C            0.78346623759133        0.41792676450045       -0.34552138312037
C            0.06337415727723        1.55126288822787        0.03495740264059
O            0.45241048453229        2.65975511709787        0.34154498163376
N           -1.37900165681436        1.27285377284203        0.05912302449609
C           -2.21121535039700        2.28521675701695        0.09365705302686
C           -1.90176190886099       -0.05690941153032        0.34247070568257
O           -3.00475768696151       -0.16645215708259        0.79673461938614
N           -1.05181737575901       -1.08384464352560        0.09602857481151
C           -1.53908124970526       -2.44114419245977        0.25406874188270
H            3.63526566752690        0.78543951970574        1.18078493053257
H            3.79636497577698        1.31003100048714       -0.50633406413787
H            2.57213567185887        2.06086601638791        0.53368575847346
H            3.26991574427797       -1.63243170198009       -0.06684120307785
H           -1.80779819894751        3.27926405801718       -0.01234709155829
H           -0.23279038900441       -0.88280697926206       -1.80428607001588
H           -3.26077824967995        2.09678301106341        0.25006829488708
H           -0.86017221866668       -3.00453631552211        0.89314226444216
H           -1.63160444984204       -2.93166198932244       -0.71612133308676
H           -2.51800907335791       -2.39770251879213        0.72621134995631
H            1.14248270272303       -2.77429132342237       -0.79387840457930
