      -----------------------------------------------------------      
     |                   =====================                   |     
     |                           x T B                           |     
     |                   =====================                   |     
     |                         S. Grimme                         |     
     |          Mulliken Center for Theoretical Chemistry        |     
     |                    University of Bonn                     |     
      -----------------------------------------------------------      

   * xtb version 6.6.1 (8d0f1dd) compiled by 'conda@1efc2f54142f' on 2023-08-01

   xtb is free software: you can redistribute it and/or modify it under
   the terms of the GNU Lesser General Public License as published by
   the Free Software Foundation, either version 3 of the License, or
   (at your option) any later version.
   
   xtb is distributed in the hope that it will be useful,
   but WITHOUT ANY WARRANTY; without even the implied warranty of
   MERCHANTABILITY or FITNESS FOR A PARTICULAR PURPOSE.  See the
   GNU Lesser General Public License for more details.
   
   Cite this work as:
   * C. Bannwarth, E. Caldeweyher, S. Ehlert, A. Hansen, P. Pracht,
     J. Seibert, S. Spicher, S. Grimme, WIREs Comput. Mol. Sci., 2020, 11,
     e01493. DOI: 10.1002/wcms.1493
   
   for GFN2-xTB:
   * C. Bannwarth, S. Ehlert and S. Grimme., J. Chem. Theory Comput., 2019,
     15, 1652-1671. DOI: 10.1021/acs.jctc.8b01176
   for GFN1-xTB:
   * S. Grimme, C. Bannwarth, P. Shushkov, J. Chem. Theory Comput., 2017,
     13, 1989-2009. DOI: 10.1021/acs.jctc.7b00118
   for GFN0-xTB:
   * P. Pracht, E. Caldeweyher, S. Ehlert, S. Grimme, ChemRxiv, 2019, preprint.
     DOI: 10.26434/chemrxiv.8326202.v1
   for GFN-FF:
   * S. Spicher and S. Grimme, Angew. Chem. Int. Ed., 2020, 59, 15665-15673.
     DOI: 10.1002/anie.202004239
   
   for ALPB and GBSA implicit solvation:
   * S. Ehlert, M. Stahn, S. Spicher, S. Grimme, J. Chem. Theory Comput.,
     2021, 17, 4250-4261. DOI: 10.1021/acs.jctc.1c00471
   
   for DFT-D4:
   * E. Caldeweyher, C. Bannwarth and S. Grimme, J. Chem. Phys., 2017,
     147, 034112. DOI: 10.1063/1.4993215
   * E. Caldeweyher, S. Ehlert, A. Hansen, H. Neugebauer, S. Spicher,
     C. Bannwarth and S. Grimme, J. Chem. Phys., 2019, 150, 154122.
     DOI: 10.1063/1.5090222
   * E. Caldeweyher, J.-M. Mewes, S. Ehlert and S. Grimme, Phys. Chem. Chem. Phys.
     2020, 22, 8499-8512. DOI: 10.1039/D0CP00502A
   
   for sTDA-xTB:
   * S. Grimme and C. Bannwarth, J. Chem. Phys., 2016, 145, 054103.
     DOI: 10.1063/1.4959605
   
   in the mass-spec context:
   * V. Asgeirsson, C. Bauer and S. Grimme, Chem. Sci., 2017, 8, 4879.
     DOI: 10.1039/c7sc00601b
   * J. Koopman and S. Grimme, ACS Omega 2019, 4, 12, 15120-15133.
     DOI: 10.1021/acsomega.9b02011
   
   for metadynamics refer to:
   * S. Grimme, J. Chem. Theory Comput., 2019, 155, 2847-2862
     DOI: 10.1021/acs.jctc.9b00143
   
   for SPH calculations refer to:
   * S. Spicher and S. Grimme, J. Chem. Theory Comput., 2021, 17, 1701-1714
     DOI: 10.1021/acs.jctc.0c01306
   
   with help from (in alphabetical order)
   P. Atkinson, C. Bannwarth, F. Bohle, G. Brandenburg, E. Caldeweyher
   M. Checinski, S. Dohm, S. Ehlert, S. Ehrlich, I. Gerasimov, C. Hölzer
   A. Katbashev, J. Koopman, C. Lavigne, S. Lehtola, F. März, M. Müller,
   F. Musil, H. Neugebauer, J. Pisarek, C. Plett, P. Pracht, F. Pultar,
   J. Seibert, P. Shushkov, S. Spicher, M. Stahn, M. Steiner, T. Strunk,
   J. Stückrath, T. Rose, and J. Unsleber
   
 * started run on 2024/04/06 at 11:13:26.396     

           -------------------------------------------------
          |                Calculation Setup                |
           -------------------------------------------------

          program call               : xtb struc.xyz --opt loose --input .xc1 --gfn2
          hostname                   : n-62-30-23
          coordinate file            : struc.xyz
          omp threads                :                     1

   ID    Z sym.   atoms
    1    7 N      1, 17
    2    6 C      2-6, 8, 9, 11-16, 18-23, 25, 26, 28-33
    3    8 O      7, 10, 24, 27
    4    1 H      34-72
constraining bond 17 49 to    4.0600000 Å, actual value:    2.0821493 Å

           -------------------------------------------------
          |                 G F N 2 - x T B                 |
           -------------------------------------------------

        Reference                      10.1021/acs.jctc.8b01176
      * Hamiltonian:
        H0-scaling (s, p, d)           1.850000    2.230000    2.230000
        zeta-weighting                 0.500000
      * Dispersion:
        s8                             2.700000
        a1                             0.520000
        a2                             5.000000
        s9                             5.000000
      * Repulsion:
        kExp                           1.500000    1.000000
        rExp                           1.000000
      * Coulomb:
        alpha                          2.000000
        third order                    shell-resolved
        anisotropic                    true
        a3                             3.000000
        a5                             4.000000
        cn-shift                       1.200000
        cn-exp                         4.000000
        max-rad                        5.000000


          ...................................................
          :                      SETUP                      :
          :.................................................:
          :  # basis functions                 171          :
          :  # atomic orbitals                 171          :
          :  # shells                          105          :
          :  # electrons                       180          :
          :  max. iterations                   250          :
          :  Hamiltonian                  GFN2-xTB          :
          :  restarted?                      false          :
          :  GBSA solvation                  false          :
          :  PC potential                    false          :
          :  electronic temp.         5000.0000000     K    :
          :  accuracy                    1.0000000          :
          :  -> integral cutoff          0.2500000E+02      :
          :  -> integral neglect         0.1000000E-07      :
          :  -> SCF convergence          0.1000000E-05 Eh   :
          :  -> wf. convergence          0.1000000E-03 e    :
          :  Broyden damping             0.4000000          :
          ...................................................

 iter      E             dE          RMSdq      gap      omega  full diag
   1   -100.5973919 -0.100597E+03  0.374E+00    3.20       0.0  T
   2   -100.7362642 -0.138872E+00  0.221E+00    1.08       1.0  T
   3   -100.7049001  0.313641E-01  0.141E+00    3.29       1.0  T
   4   -100.7721690 -0.672689E-01  0.526E-01    1.50       1.0  T
   5   -100.7894292 -0.172602E-01  0.190E-01    1.98       1.0  T
   6   -100.7911978 -0.176856E-02  0.792E-02    1.77       1.0  T
   7   -100.7914750 -0.277198E-03  0.375E-02    1.83       1.0  T
   8   -100.7914914 -0.164582E-04  0.140E-02    1.83       1.0  T
   9   -100.7914976 -0.616739E-05  0.474E-03    1.82       2.5  T
  10   -100.7914988 -0.118227E-05  0.172E-03    1.82       6.8  T
  11   -100.7914989 -0.139928E-06  0.766E-04    1.82      15.4  T
  12   -100.7914989 -0.773143E-08  0.318E-04    1.82      37.0  T

   *** convergence criteria satisfied after 12 iterations ***

         #    Occupation            Energy/Eh            Energy/eV
      -------------------------------------------------------------
         1        2.0000           -0.8078051             -21.9815
       ...           ...                  ...                  ...
        84        1.9966           -0.5157491             -14.0342
        85        1.9959           -0.5128261             -13.9547
        86        1.9840           -0.4911498             -13.3649
        87        1.9795           -0.4872543             -13.2589
        88        1.9640           -0.4782114             -13.0128
        89        1.8920           -0.4602041             -12.5228
        90        1.8557           -0.4553147             -12.3897 (HOMO)
        91        0.3166           -0.3884132             -10.5693 (LUMO)
        92        0.0218           -0.3434697              -9.3463
        93        0.0041           -0.3169887              -8.6257
        94        0.0034           -0.3139726              -8.5436
        95        0.0029           -0.3112618              -8.4699
       ...           ...                  ...                  ...
       171                          0.5822580              15.8440
      -------------------------------------------------------------
                  HL-Gap            0.0669015 Eh            1.8205 eV
             Fermi-level           -0.4148687 Eh          -11.2892 eV

 SCC (total)                   0 d,  0 h,  0 min,  0.189 sec
 SCC setup                      ...        0 min,  0.001 sec (  0.537%)
 Dispersion                     ...        0 min,  0.002 sec (  0.929%)
 classical contributions        ...        0 min,  0.000 sec (  0.226%)
 integral evaluation            ...        0 min,  0.018 sec (  9.606%)
 iterations                     ...        0 min,  0.098 sec ( 51.815%)
 molecular gradient             ...        0 min,  0.069 sec ( 36.548%)
 printout                       ...        0 min,  0.001 sec (  0.330%)

         :::::::::::::::::::::::::::::::::::::::::::::::::::::
         ::                     SUMMARY                     ::
         :::::::::::::::::::::::::::::::::::::::::::::::::::::
         :: total energy             -98.705649795222 Eh    ::
         :: gradient norm              0.517584201019 Eh/a0 ::
         :: HOMO-LUMO gap              1.820481192090 eV    ::
         ::.................................................::
         :: SCC energy              -100.791498925389 Eh    ::
         :: -> isotropic ES            0.109302908418 Eh    ::
         :: -> anisotropic ES          0.005415138735 Eh    ::
         :: -> anisotropic XC          0.042392697176 Eh    ::
         :: -> dispersion             -0.075527661009 Eh    ::
         :: repulsion energy           1.386151658689 Eh    ::
         :: add. restraining           0.698481118973 Eh    ::
         :: total charge               1.000000000108 e     ::
         :::::::::::::::::::::::::::::::::::::::::::::::::::::

      ----------------------------------------------------------- 
     |                   =====================                   |
     |                        A N C O P T                        |
     |                   =====================                   |
     |               Approximate Normal Coordinate               |
     |                Rational Function Optimizer                |
      ----------------------------------------------------------- 

          ...................................................
          :                      SETUP                      :
          :.................................................:
          :   optimization level             loose          :
          :   max. optcycles                   200          :
          :   ANC micro-cycles                  20          :
          :   degrees of freedom               210          :
          :.................................................:
          :   RF solver                   davidson          :
          :   write xtbopt.log                true          :
          :   linear?                        false          :
          :   energy convergence         0.5000000E-04 Eh   :
          :   grad. convergence          0.4000000E-02 Eh/α :
          :   maxmium RF displ.          1.0000000          :
          :   Hlow (freq-cutoff)         0.1000000E-01      :
          :   Hmax (freq-cutoff)         5.0000000          :
          :   S6 in model hess.         20.0000000          :
          ...................................................

generating ANC from model Hessian ...
Using Lindh-Hessian (1995)
 Shifting diagonal of input Hessian by   0.10091291224210477     
 Lowest  eigenvalues of input Hessian
    0.010000    0.047103    0.000000    0.000000    0.000000    0.000000
    0.000000    0.000000    0.100976    0.100984    0.101074    0.101201
    0.101258    0.101669    0.101938    0.102414    0.102526    0.102928
 Highest eigenvalues
    2.136871    2.142302    2.143893    2.270356    2.275412    2.277968


........................................................................
.............................. CYCLE    1 ..............................
........................................................................

 iter      E             dE          RMSdq      gap      omega  full diag
   1   -100.7914989 -0.100791E+03  0.114E-04    1.82       0.0  T
   2   -100.7914989 -0.678995E-10  0.713E-05    1.82     165.2  T
   3   -100.7914989  0.665210E-10  0.496E-05    1.82     237.5  T
     SCC iter.                  ...        0 min,  0.026 sec
     gradient                   ...        0 min,  0.069 sec
 * total energy  :   -98.7056498 Eh     change       -0.4035485E-08 Eh
   gradient norm :     0.5175819 Eh/α   predicted     0.0000000E+00 (-100.00%)
   displ. norm   :     0.6073014 α      lambda       -0.2843673E+00
   maximum displ.:     0.2286882 α      in ANC's #138, #142, #105, ...

........................................................................
.............................. CYCLE    2 ..............................
........................................................................

 iter      E             dE          RMSdq      gap      omega  full diag
   1   -100.7504475 -0.100750E+03  0.353E-01    1.99       0.0  T
   2   -100.7500377  0.409821E-03  0.234E-01    1.74       1.0  T
   3   -100.7486289  0.140883E-02  0.194E-01    2.10       1.0  T
   4   -100.7513310 -0.270212E-02  0.193E-02    1.87       1.0  T
   5   -100.7513562 -0.252071E-04  0.842E-03    1.88       1.4  T
   6   -100.7513588 -0.258243E-05  0.381E-03    1.88       3.1  T
   7   -100.7513590 -0.228475E-06  0.900E-04    1.88      13.1  T
   8   -100.7513591 -0.429447E-07  0.410E-04    1.88      28.8  T
     SCC iter.                  ...        0 min,  0.066 sec
     gradient                   ...        0 min,  0.069 sec
 * total energy  :   -98.9327478 Eh     change       -0.2270980E+00 Eh
   gradient norm :     0.3027118 Eh/α   predicted    -0.1946338E+00 ( -14.30%)
   displ. norm   :     0.6468169 α      lambda       -0.1793739E+00
   maximum displ.:     0.2239055 α      in ANC's #138, #105, #142, ...

........................................................................
.............................. CYCLE    3 ..............................
........................................................................

 iter      E             dE          RMSdq      gap      omega  full diag
   1   -100.6812824 -0.100681E+03  0.289E-01    1.67       0.0  T
   2   -100.6814403 -0.157961E-03  0.223E-01    1.94       1.0  T
   3   -100.6819479 -0.507549E-03  0.139E-01    1.68       1.0  T
   4   -100.6826044 -0.656539E-03  0.581E-02    1.86       1.0  T
   5   -100.6828866 -0.282192E-03  0.101E-02    1.80       1.2  T
   6   -100.6828902 -0.359203E-05  0.529E-03    1.80       2.2  T
   7   -100.6828914 -0.122892E-05  0.186E-03    1.80       6.3  T
   8   -100.6828915 -0.741230E-07  0.760E-04    1.80      15.5  T
   9   -100.6828915 -0.759751E-08  0.280E-04    1.80      42.1  T
     SCC iter.                  ...        0 min,  0.074 sec
     gradient                   ...        0 min,  0.069 sec
 * total energy  :   -99.0717995 Eh     change       -0.1390517E+00 Eh
   gradient norm :     0.1714988 Eh/α   predicted    -0.1272096E+00 (  -8.52%)
   displ. norm   :     0.6261173 α      lambda       -0.9870514E-01
   maximum displ.:     0.2143987 α      in ANC's #2, #105, #138, ...

........................................................................
.............................. CYCLE    4 ..............................
........................................................................

 iter      E             dE          RMSdq      gap      omega  full diag
   1   -100.6128901 -0.100613E+03  0.339E-01    1.26       0.0  T
   2   -100.6118974  0.992715E-03  0.378E-01    1.92       1.0  T
   3   -100.6248643 -0.129669E-01  0.112E-01    1.60       1.0  T
   4   -100.6245458  0.318440E-03  0.944E-02    1.67       1.0  T
   5   -100.6249039 -0.358087E-03  0.353E-02    1.58       1.0  T
   6   -100.6249594 -0.554446E-04  0.150E-02    1.61       1.0  T
   7   -100.6249790 -0.196278E-04  0.407E-03    1.60       2.9  T
   8   -100.6249793 -0.289072E-06  0.203E-03    1.60       5.8  T
   9   -100.6249794 -0.124039E-06  0.818E-04    1.60      14.4  T
  10   -100.6249794 -0.147041E-07  0.326E-04    1.60      36.2  T
     SCC iter.                  ...        0 min,  0.081 sec
     gradient                   ...        0 min,  0.069 sec
 * total energy  :   -99.1478779 Eh     change       -0.7607842E-01 Eh
   gradient norm :     0.1024107 Eh/α   predicted    -0.6870057E-01 (  -9.70%)
   displ. norm   :     0.6123960 α      lambda       -0.5533579E-01
   maximum displ.:     0.2562696 α      in ANC's #2, #105, #57, ...

........................................................................
.............................. CYCLE    5 ..............................
........................................................................

 iter      E             dE          RMSdq      gap      omega  full diag
   1   -100.5861974 -0.100586E+03  0.410E-01    1.07       0.0  T
   2   -100.5761898  0.100076E-01  0.398E-01    1.71       1.0  T
   3   -100.5940419 -0.178521E-01  0.190E-01    1.35       1.0  T
   4   -100.5969758 -0.293390E-02  0.662E-02    1.41       1.0  T
   5   -100.5969915 -0.156371E-04  0.270E-02    1.41       1.0  T
   6   -100.5970273 -0.358062E-04  0.729E-03    1.42       1.6  T
   7   -100.5970283 -0.981825E-06  0.395E-03    1.42       3.0  T
   8   -100.5970290 -0.723832E-06  0.151E-03    1.42       7.8  T
   9   -100.5970290 -0.346430E-07  0.626E-04    1.42      18.8  T
  10   -100.5970290 -0.186166E-07  0.394E-04    1.42      29.9  T
     SCC iter.                  ...        0 min,  0.080 sec
     gradient                   ...        0 min,  0.069 sec
 * total energy  :   -99.1891240 Eh     change       -0.4124605E-01 Eh
   gradient norm :     0.0652415 Eh/α   predicted    -0.3804416E-01 (  -7.76%)
   displ. norm   :     0.5578449 α      lambda       -0.2641695E-01
   maximum displ.:     0.2829166 α      in ANC's #2, #1, #105, ...

........................................................................
.............................. CYCLE    6 ..............................
........................................................................

 iter      E             dE          RMSdq      gap      omega  full diag
   1   -100.5919545 -0.100592E+03  0.298E-01    1.17       0.0  T
   2   -100.5893739  0.258065E-02  0.224E-01    1.43       1.0  T
   3   -100.5897480 -0.374163E-03  0.220E-01    1.23       1.0  T
   4   -100.5942903 -0.454228E-02  0.657E-02    1.32       1.0  T
   5   -100.5942892  0.105734E-05  0.304E-02    1.30       1.0  T
   6   -100.5944018 -0.112527E-03  0.635E-03    1.32       1.9  T
   7   -100.5944040 -0.219579E-05  0.358E-03    1.32       3.3  T
   8   -100.5944047 -0.720465E-06  0.104E-03    1.32      11.4  T
   9   -100.5944048 -0.815172E-07  0.455E-04    1.32      25.9  T
  10   -100.5944048 -0.653429E-08  0.218E-04    1.32      54.2  T
     SCC iter.                  ...        0 min,  0.081 sec
     gradient                   ...        0 min,  0.069 sec
 * total energy  :   -99.2080577 Eh     change       -0.1893377E-01 Eh
   gradient norm :     0.0719345 Eh/α   predicted    -0.1731885E-01 (  -8.53%)
   displ. norm   :     0.4340199 α      lambda       -0.1337389E-01
   maximum displ.:     0.2491342 α      in ANC's #2, #54, #1, ...

........................................................................
.............................. CYCLE    7 ..............................
........................................................................

 iter      E             dE          RMSdq      gap      omega  full diag
   1   -100.5954725 -0.100595E+03  0.194E-01    1.19       0.0  T
   2   -100.5954096  0.628309E-04  0.124E-01    1.26       1.0  T
   3   -100.5941847  0.122496E-02  0.145E-01    1.20       1.0  T
   4   -100.5958069 -0.162219E-02  0.534E-02    1.25       1.0  T
   5   -100.5960401 -0.233251E-03  0.141E-02    1.23       1.0  T
   6   -100.5960654 -0.253101E-04  0.384E-03    1.24       3.1  T
   7   -100.5960659 -0.431933E-06  0.184E-03    1.24       6.4  T
   8   -100.5960659 -0.840427E-07  0.792E-04    1.24      14.9  T
   9   -100.5960660 -0.772221E-07  0.295E-04    1.24      39.9  T
     SCC iter.                  ...        0 min,  0.073 sec
     gradient                   ...        0 min,  0.069 sec
 * total energy  :   -99.2184334 Eh     change       -0.1037561E-01 Eh
   gradient norm :     0.0815553 Eh/α   predicted    -0.7946593E-02 ( -23.41%)
   displ. norm   :     0.4637168 α      lambda       -0.1430054E-01
   maximum displ.:     0.2545263 α      in ANC's #2, #54, #1, ...

........................................................................
.............................. CYCLE    8 ..............................
........................................................................

 iter      E             dE          RMSdq      gap      omega  full diag
   1   -100.5955594 -0.100596E+03  0.210E-01    1.06       0.0  T
   2   -100.5956434 -0.840177E-04  0.137E-01    1.06       1.0  T
   3   -100.5948344  0.809002E-03  0.131E-01    1.09       1.0  T
   4   -100.5954898 -0.655304E-03  0.809E-02    1.06       1.0  T
   5   -100.5960037 -0.513994E-03  0.385E-02    1.07       1.0  T
   6   -100.5961918 -0.188050E-03  0.881E-03    1.07       1.3  T
   7   -100.5961964 -0.458354E-05  0.392E-03    1.07       3.0  T
   8   -100.5961969 -0.526910E-06  0.143E-03    1.07       8.3  T
   9   -100.5961971 -0.167157E-06  0.466E-04    1.07      25.3  T
  10   -100.5961971 -0.602077E-08  0.252E-04    1.07      46.7  T
     SCC iter.                  ...        0 min,  0.082 sec
     gradient                   ...        0 min,  0.069 sec
 * total energy  :   -99.2297419 Eh     change       -0.1130852E-01 Eh
   gradient norm :     0.0820877 Eh/α   predicted    -0.8687837E-02 ( -23.17%)
   displ. norm   :     0.4640979 α      lambda       -0.1734069E-01
   maximum displ.:     0.2107705 α      in ANC's #2, #54, #198, ...

........................................................................
.............................. CYCLE    9 ..............................
........................................................................

 iter      E             dE          RMSdq      gap      omega  full diag
   1   -100.5918049 -0.100592E+03  0.317E-01    0.81       0.0  T
   2   -100.5886022  0.320265E-02  0.267E-01    0.83       1.0  T
   3   -100.5911738 -0.257154E-02  0.200E-01    0.80       1.0  T
   4   -100.5919117 -0.737886E-03  0.147E-01    0.88       1.0  T
   5   -100.5937268 -0.181519E-02  0.604E-02    0.81       1.0  T
   6   -100.5941049 -0.378100E-03  0.205E-02    0.83       1.0  T
   7   -100.5941160 -0.110739E-04  0.111E-02    0.83       1.1  T
   8   -100.5941293 -0.132814E-04  0.193E-03    0.83       6.1  T
   9   -100.5941294 -0.110253E-06  0.880E-04    0.83      13.4  T
  10   -100.5941295 -0.393429E-07  0.419E-04    0.83      28.1  T
     SCC iter.                  ...        0 min,  0.081 sec
     gradient                   ...        0 min,  0.069 sec
 * total energy  :   -99.2432529 Eh     change       -0.1351104E-01 Eh
   gradient norm :     0.0806705 Eh/α   predicted    -0.1053794E-01 ( -22.00%)
   displ. norm   :     0.4379758 α      lambda       -0.2070167E-01
   maximum displ.:     0.1325937 α      in ANC's #198, #2, #190, ...

........................................................................
.............................. CYCLE   10 ..............................
........................................................................

 iter      E             dE          RMSdq      gap      omega  full diag
   1   -100.5898708 -0.100590E+03  0.488E-01    0.58       0.0  T
   2   -100.5601436  0.297272E-01  0.632E-01    0.75       1.0  T
   3   -100.5955172 -0.353736E-01  0.270E-01    0.56       1.0  T
   4   -100.5968301 -0.131291E-02  0.184E-01    0.72       1.0  T
   5   -100.5993234 -0.249325E-02  0.748E-02    0.59       1.0  T
   6   -100.6000049 -0.681556E-03  0.228E-02    0.64       1.0  T
   7   -100.6000139 -0.898715E-05  0.164E-02    0.63       1.0  T
   8   -100.6000355 -0.215908E-04  0.318E-03    0.63       3.7  T
   9   -100.6000360 -0.490943E-06  0.102E-03    0.63      11.5  T
  10   -100.6000360 -0.426723E-07  0.473E-04    0.63      24.9  T
  11   -100.6000360 -0.106743E-07  0.171E-04    0.63      69.0  T
     SCC iter.                  ...        0 min,  0.089 sec
     gradient                   ...        0 min,  0.069 sec
 * total energy  :   -99.2548852 Eh     change       -0.1163225E-01 Eh
   gradient norm :     0.0800917 Eh/α   predicted    -0.1233636E-01 (   6.05%)
   displ. norm   :     0.2394785 α      lambda       -0.1076790E-01
   maximum displ.:     0.1429639 α      in ANC's #1, #99, #54, ...

........................................................................
.............................. CYCLE   11 ..............................
........................................................................

 iter      E             dE          RMSdq      gap      omega  full diag
   1   -100.6143007 -0.100614E+03  0.160E-01    0.70       0.0  T
   2   -100.6137899  0.510803E-03  0.148E-01    0.57       1.0  T
   3   -100.6147283 -0.938411E-03  0.948E-02    0.69       1.0  T
   4   -100.6146941  0.342361E-04  0.717E-02    0.61       1.0  T
   5   -100.6152684 -0.574281E-03  0.157E-02    0.64       1.0  T
   6   -100.6152938 -0.254108E-04  0.792E-03    0.64       1.5  T
   7   -100.6152987 -0.496248E-05  0.225E-03    0.64       5.2  T
   8   -100.6152988 -0.492659E-07  0.183E-03    0.64       6.4  T
   9   -100.6152991 -0.275672E-06  0.288E-04    0.64      40.9  T
  10   -100.6152991 -0.281165E-08  0.161E-04    0.64      73.0  T
     SCC iter.                  ...        0 min,  0.081 sec
     gradient                   ...        0 min,  0.069 sec
 * total energy  :   -99.2637612 Eh     change       -0.8876064E-02 Eh
   gradient norm :     0.0503364 Eh/α   predicted    -0.5692933E-02 ( -35.86%)
   displ. norm   :     0.4705967 α      lambda       -0.1612232E-01
   maximum displ.:     0.2166411 α      in ANC's #1, #138, #2, ...

........................................................................
.............................. CYCLE   12 ..............................
........................................................................

 iter      E             dE          RMSdq      gap      omega  full diag
   1   -100.6307227 -0.100631E+03  0.369E-01    0.85       0.0  T
   2   -100.6279646  0.275812E-02  0.263E-01    0.50       1.0  T
   3   -100.6289628 -0.998177E-03  0.265E-01    0.89       1.0  T
   4   -100.6346079 -0.564517E-02  0.978E-02    0.66       1.0  T
   5   -100.6348042 -0.196240E-03  0.840E-02    0.69       1.0  T
   6   -100.6355356 -0.731457E-03  0.219E-02    0.68       1.0  T
   7   -100.6355737 -0.380778E-04  0.465E-03    0.69       2.5  T
   8   -100.6355743 -0.550405E-06  0.268E-03    0.69       4.4  T
   9   -100.6355747 -0.402281E-06  0.859E-04    0.69      13.7  T
  10   -100.6355747 -0.195862E-07  0.352E-04    0.69      33.4  T
     SCC iter.                  ...        0 min,  0.081 sec
     gradient                   ...        0 min,  0.069 sec
 * total energy  :   -99.2757584 Eh     change       -0.1199714E-01 Eh
   gradient norm :     0.0522250 Eh/α   predicted    -0.9846399E-02 ( -17.93%)
   displ. norm   :     0.8116437 α      lambda       -0.2048346E-01
   maximum displ.:     0.5830703 α      in ANC's #1, #138, #2, ...

........................................................................
.............................. CYCLE   13 ..............................
........................................................................

 iter      E             dE          RMSdq      gap      omega  full diag
   1   -100.6633190 -0.100663E+03  0.542E-01    0.93       0.0  T
   2   -100.6581781  0.514093E-02  0.385E-01    0.53       1.0  T
   3   -100.6457296  0.124485E-01  0.450E-01    1.19       1.0  T
   4   -100.6656012 -0.198716E-01  0.164E-01    0.68       1.0  T
   5   -100.6678114 -0.221019E-02  0.697E-02    0.76       1.0  T
   6   -100.6680989 -0.287427E-03  0.299E-02    0.76       1.0  T
   7   -100.6681438 -0.449706E-04  0.904E-03    0.75       1.3  T
   8   -100.6681488 -0.494710E-05  0.253E-03    0.76       4.7  T
   9   -100.6681489 -0.153282E-06  0.180E-03    0.76       6.5  T
  10   -100.6681491 -0.203389E-06  0.819E-04    0.76      14.4  T
  11   -100.6681492 -0.206238E-07  0.351E-04    0.76      33.5  T
     SCC iter.                  ...        0 min,  0.088 sec
     gradient                   ...        0 min,  0.069 sec
 * total energy  :   -99.2999110 Eh     change       -0.2415261E-01 Eh
   gradient norm :     0.1292914 Eh/α   predicted    -0.1698871E-01 ( -29.66%)
   displ. norm   :     0.7240044 α      lambda       -0.2775002E-01
   maximum displ.:     0.3135375 α      in ANC's #1, #78, #51, ...

........................................................................
.............................. CYCLE   14 ..............................
........................................................................

 iter      E             dE          RMSdq      gap      omega  full diag
   1   -100.6778419 -0.100678E+03  0.426E-01    0.52       0.0  T
   2   -100.6645298  0.133121E-01  0.479E-01    1.06       1.0  T
   3   -100.6767649 -0.122350E-01  0.275E-01    0.49       1.0  T
   4   -100.6804886 -0.372370E-02  0.150E-01    0.75       1.0  T
   5   -100.6824172 -0.192864E-02  0.370E-02    0.67       1.0  T
   6   -100.6824996 -0.823765E-04  0.109E-02    0.67       1.1  T
   7   -100.6825030 -0.347072E-05  0.703E-03    0.68       1.7  T
   8   -100.6825033 -0.299112E-06  0.474E-03    0.67       2.5  T
   9   -100.6825062 -0.284062E-05  0.879E-04    0.68      13.4  T
  10   -100.6825062 -0.335654E-07  0.415E-04    0.68      28.4  T
  11   -100.6825062 -0.795373E-08  0.185E-04    0.68      63.8  T
     SCC iter.                  ...        0 min,  0.088 sec
     gradient                   ...        0 min,  0.069 sec
 * total energy  :   -99.1852822 Eh     change        0.1146288E+00 Eh
   gradient norm :     0.7544905 Eh/α   predicted    -0.2114806E-01 (-118.45%)
   displ. norm   :     0.4692004 α      lambda       -0.3353878E+00
   maximum displ.:     0.2965872 α      in ANC's #1, #78, #138, ...

........................................................................
.............................. CYCLE   15 ..............................
........................................................................

 iter      E             dE          RMSdq      gap      omega  full diag
   1   -100.6740128 -0.100674E+03  0.309E-01    0.90       0.0  T
   2   -100.6601092  0.139036E-01  0.413E-01    0.41       1.0  T
   3   -100.6760379 -0.159287E-01  0.178E-01    0.86       1.0  T
   4   -100.6764581 -0.420246E-03  0.119E-01    0.76       1.0  T
   5   -100.6774719 -0.101377E-02  0.569E-02    0.75       1.0  T
   6   -100.6777006 -0.228724E-03  0.164E-02    0.76       1.0  T
   7   -100.6777266 -0.260308E-04  0.500E-03    0.75       2.4  T
   8   -100.6777268 -0.143350E-06  0.245E-03    0.75       4.8  T
   9   -100.6777272 -0.390463E-06  0.784E-04    0.75      15.0  T
  10   -100.6777272 -0.313814E-07  0.265E-04    0.75      44.5  T
     SCC iter.                  ...        0 min,  0.081 sec
     gradient                   ...        0 min,  0.069 sec
 * total energy  :   -99.3088213 Eh     change       -0.1235392E+00 Eh
   gradient norm :     0.0839871 Eh/α   predicted    -0.2046117E+00 (  65.62%)
   displ. norm   :     0.2692631 α      lambda       -0.1334567E-01
   maximum displ.:     0.1394776 α      in ANC's #2, #1, #138, ...

........................................................................
.............................. CYCLE   16 ..............................
........................................................................

 iter      E             dE          RMSdq      gap      omega  full diag
   1   -100.6805324 -0.100681E+03  0.163E-01    0.75       0.0  T
   2   -100.6804928  0.396365E-04  0.103E-01    0.72       1.0  T
   3   -100.6784299  0.206287E-02  0.129E-01    0.86       1.0  T
   4   -100.6805217 -0.209180E-02  0.279E-02    0.72       1.0  T
   5   -100.6805773 -0.555707E-04  0.171E-02    0.75       1.0  T
   6   -100.6806001 -0.227894E-04  0.368E-03    0.75       3.2  T
   7   -100.6806007 -0.672071E-06  0.231E-03    0.74       5.1  T
   8   -100.6806011 -0.420395E-06  0.619E-04    0.75      19.0  T
   9   -100.6806012 -0.209611E-07  0.287E-04    0.75      41.1  T
     SCC iter.                  ...        0 min,  0.074 sec
     gradient                   ...        0 min,  0.069 sec
 * total energy  :   -99.3179104 Eh     change       -0.9089072E-02 Eh
   gradient norm :     0.0567144 Eh/α   predicted    -0.7156634E-02 ( -21.26%)
   displ. norm   :     0.3520462 α      lambda       -0.1241479E-01
   maximum displ.:     0.1516937 α      in ANC's #1, #138, #99, ...

........................................................................
.............................. CYCLE   17 ..............................
........................................................................

 iter      E             dE          RMSdq      gap      omega  full diag
   1   -100.6826703 -0.100683E+03  0.232E-01    0.74       0.0  T
   2   -100.6790620  0.360832E-02  0.251E-01    0.79       1.0  T
   3   -100.6833030 -0.424100E-02  0.135E-01    0.72       1.0  T
   4   -100.6833362 -0.332136E-04  0.763E-02    0.82       1.0  T
   5   -100.6840265 -0.690371E-03  0.249E-02    0.72       1.0  T
   6   -100.6840966 -0.700879E-04  0.718E-03    0.75       1.6  T
   7   -100.6840992 -0.259882E-05  0.341E-03    0.75       3.5  T
   8   -100.6840996 -0.352927E-06  0.102E-03    0.75      11.5  T
   9   -100.6840996 -0.491893E-07  0.458E-04    0.75      25.7  T
  10   -100.6840996 -0.789584E-08  0.202E-04    0.75      58.2  T
     SCC iter.                  ...        0 min,  0.081 sec
     gradient                   ...        0 min,  0.069 sec
 * total energy  :   -99.3177908 Eh     change        0.1196421E-03 Eh
   gradient norm :     0.0813823 Eh/α   predicted    -0.6976749E-02 (*******%)
   displ. norm   :     0.3420558 α      lambda       -0.1282609E-01
   maximum displ.:     0.1637018 α      in ANC's #1, #2, #120, ...

........................................................................
.............................. CYCLE   18 ..............................
........................................................................

 iter      E             dE          RMSdq      gap      omega  full diag
   1   -100.6720677 -0.100672E+03  0.306E-01    0.87       0.0  T
   2   -100.6539379  0.181298E-01  0.473E-01    0.54       1.0  T
   3   -100.6751575 -0.212196E-01  0.165E-01    0.87       1.0  T
   4   -100.6751882 -0.306707E-04  0.116E-01    0.71       1.0  T
   5   -100.6764070 -0.121889E-02  0.446E-02    0.82       1.0  T
   6   -100.6766354 -0.228379E-03  0.958E-03    0.78       1.2  T
   7   -100.6766419 -0.646958E-05  0.438E-03    0.78       2.7  T
   8   -100.6766425 -0.642810E-06  0.158E-03    0.78       7.5  T
   9   -100.6766427 -0.111086E-06  0.791E-04    0.78      14.9  T
  10   -100.6766427 -0.383524E-07  0.292E-04    0.78      40.4  T
     SCC iter.                  ...        0 min,  0.081 sec
     gradient                   ...        0 min,  0.069 sec
 * total energy  :   -99.3220877 Eh     change       -0.4296970E-02 Eh
   gradient norm :     0.0353125 Eh/α   predicted    -0.7163365E-02 (  66.71%)
   displ. norm   :     0.1763878 α      lambda       -0.4212052E-02
   maximum displ.:     0.0747927 α      in ANC's #2, #138, #54, ...

........................................................................
.............................. CYCLE   19 ..............................
........................................................................

 iter      E             dE          RMSdq      gap      omega  full diag
   1   -100.6821539 -0.100682E+03  0.110E-01    0.74       0.0  T
   2   -100.6815793  0.574637E-03  0.101E-01    0.84       1.0  T
   3   -100.6816269 -0.476943E-04  0.948E-02    0.70       1.0  T
   4   -100.6823209 -0.693980E-03  0.157E-02    0.77       1.0  T
   5   -100.6823298 -0.882712E-05  0.874E-03    0.77       1.3  T
   6   -100.6823379 -0.811426E-05  0.291E-03    0.77       4.0  T
   7   -100.6823385 -0.675624E-06  0.111E-03    0.77      10.6  T
   8   -100.6823386 -0.292065E-07  0.526E-04    0.77      22.4  T
   9   -100.6823386 -0.208453E-07  0.175E-04    0.77      67.2  T
     SCC iter.                  ...        0 min,  0.073 sec
     gradient                   ...        0 min,  0.069 sec
 * total energy  :   -99.3238205 Eh     change       -0.1732785E-02 Eh
   gradient norm :     0.0217637 Eh/α   predicted    -0.2171571E-02 (  25.32%)
   displ. norm   :     0.0921450 α      lambda       -0.1202457E-02
   maximum displ.:     0.0386494 α      in ANC's #2, #28, #10, ...

........................................................................
.............................. CYCLE   20 ..............................
........................................................................

 iter      E             dE          RMSdq      gap      omega  full diag
   1   -100.6839455 -0.100684E+03  0.340E-02    0.79       0.0  T
   2   -100.6839441  0.138916E-05  0.228E-02    0.78       1.0  T
   3   -100.6839259  0.182280E-04  0.229E-02    0.79       1.0  T
   4   -100.6839606 -0.347187E-04  0.776E-03    0.79       1.5  T
   5   -100.6839614 -0.772327E-06  0.447E-03    0.78       2.6  T
   6   -100.6839637 -0.234397E-05  0.123E-03    0.78       9.6  T
   7   -100.6839639 -0.125096E-06  0.495E-04    0.78      23.8  T
   8   -100.6839639 -0.914453E-08  0.192E-04    0.78      61.3  T
     SCC iter.                  ...        0 min,  0.065 sec
     gradient                   ...        0 min,  0.069 sec
 * total energy  :   -99.3247118 Eh     change       -0.8912771E-03 Eh
   gradient norm :     0.0111262 Eh/α   predicted    -0.6063474E-03 ( -31.97%)
   displ. norm   :     0.2033690 α      lambda       -0.1457488E-02
   maximum displ.:     0.0638435 α      in ANC's #10, #28, #2, ...
 * RMSD in coord.:     0.5002133 α      energy gain  -0.6190620E+00 Eh

generating ANC from model Hessian ...
Using Lindh-Hessian (1995)
 Shifting diagonal of input Hessian by    9.9433875446245604E-003
 Lowest  eigenvalues of input Hessian
    0.000000    0.000000    0.000000    0.000000    0.000000    0.000000
    0.010000    0.010019    0.010110    0.010202    0.010282    0.010579
    0.010895    0.010924    0.011055    0.011529    0.012251    0.012719
 Highest eigenvalues
    2.004303    2.042401    2.080838    2.115333    2.116148    2.181028


........................................................................
.............................. CYCLE   21 ..............................
........................................................................

 iter      E             dE          RMSdq      gap      omega  full diag
   1   -100.6864197 -0.100686E+03  0.709E-02    0.83       0.0  T
   2   -100.6858603  0.559450E-03  0.904E-02    0.75       1.0  T
   3   -100.6864688 -0.608476E-03  0.398E-02    0.83       1.0  T
   4   -100.6864973 -0.285594E-04  0.232E-02    0.79       1.0  T
   5   -100.6865531 -0.557286E-04  0.732E-03    0.81       1.6  T
   6   -100.6865582 -0.518471E-05  0.217E-03    0.81       5.4  T
   7   -100.6865586 -0.382462E-06  0.972E-04    0.81      12.1  T
   8   -100.6865587 -0.338941E-07  0.273E-04    0.81      43.2  T
     SCC iter.                  ...        0 min,  0.065 sec
     gradient                   ...        0 min,  0.069 sec
 * total energy  :   -99.3257562 Eh     change       -0.1044355E-02 Eh
   gradient norm :     0.0123572 Eh/α   predicted     0.0000000E+00 (-100.00%)
   displ. norm   :     0.3022824 α      lambda       -0.1758439E-02
   maximum displ.:     0.1459460 α      in ANC's #9, #19, #32, ...

........................................................................
.............................. CYCLE   22 ..............................
........................................................................

 iter      E             dE          RMSdq      gap      omega  full diag
   1   -100.6886105 -0.100689E+03  0.592E-02    0.80       0.0  T
   2   -100.6884097  0.200759E-03  0.610E-02    0.84       1.0  T
   3   -100.6885854 -0.175743E-03  0.387E-02    0.79       1.0  T
   4   -100.6886198 -0.343540E-04  0.207E-02    0.83       1.0  T
   5   -100.6886685 -0.487352E-04  0.531E-03    0.81       2.2  T
   6   -100.6886717 -0.320960E-05  0.162E-03    0.81       7.3  T
   7   -100.6886719 -0.153089E-06  0.727E-04    0.81      16.2  T
   8   -100.6886719 -0.191271E-07  0.245E-04    0.81      48.0  T
     SCC iter.                  ...        0 min,  0.065 sec
     gradient                   ...        0 min,  0.069 sec
 * total energy  :   -99.3273464 Eh     change       -0.1590286E-02 Eh
   gradient norm :     0.0064363 Eh/α   predicted    -0.9607898E-03 ( -39.58%)
   displ. norm   :     0.7529192 α      lambda       -0.3550004E-02
   maximum displ.:     0.3636594 α      in ANC's #9, #19, #3, ...

........................................................................
.............................. CYCLE   23 ..............................
........................................................................

 iter      E             dE          RMSdq      gap      omega  full diag
   1   -100.6896446 -0.100690E+03  0.138E-01    0.80       0.0  T
   2   -100.6883752  0.126933E-02  0.151E-01    0.90       1.0  T
   3   -100.6897299 -0.135471E-02  0.818E-02    0.79       1.0  T
   4   -100.6898228 -0.928647E-04  0.462E-02    0.87       1.0  T
   5   -100.6900467 -0.223883E-03  0.140E-02    0.82       1.0  T
   6   -100.6900698 -0.231478E-04  0.396E-03    0.83       3.0  T
   7   -100.6900708 -0.976358E-06  0.178E-03    0.83       6.6  T
   8   -100.6900709 -0.106881E-06  0.557E-04    0.83      21.2  T
   9   -100.6900709 -0.121306E-07  0.286E-04    0.83      41.3  T
     SCC iter.                  ...        0 min,  0.073 sec
     gradient                   ...        0 min,  0.069 sec
 * total energy  :   -99.3302572 Eh     change       -0.2910721E-02 Eh
   gradient norm :     0.0131744 Eh/α   predicted    -0.2781228E-02 (  -4.45%)
   displ. norm   :     0.7239367 α      lambda       -0.2521666E-02
   maximum displ.:     0.3770417 α      in ANC's #9, #19, #3, ...

........................................................................
.............................. CYCLE   24 ..............................
........................................................................

 iter      E             dE          RMSdq      gap      omega  full diag
   1   -100.6901834 -0.100690E+03  0.129E-01    0.81       0.0  T
   2   -100.6887927  0.139066E-02  0.155E-01    0.91       1.0  T
   3   -100.6904907 -0.169793E-02  0.669E-02    0.81       1.0  T
   4   -100.6904865  0.414276E-05  0.417E-02    0.88       1.0  T
   5   -100.6906595 -0.173031E-03  0.134E-02    0.83       1.0  T
   6   -100.6906811 -0.215496E-04  0.386E-03    0.84       3.1  T
   7   -100.6906821 -0.100888E-05  0.172E-03    0.84       6.9  T
   8   -100.6906822 -0.841010E-07  0.589E-04    0.84      20.0  T
   9   -100.6906822 -0.147104E-07  0.254E-04    0.84      46.4  T
     SCC iter.                  ...        0 min,  0.073 sec
     gradient                   ...        0 min,  0.071 sec
 * total energy  :   -99.3323591 Eh     change       -0.2101922E-02 Eh
   gradient norm :     0.0179882 Eh/α   predicted    -0.1921629E-02 (  -8.58%)
   displ. norm   :     0.6733364 α      lambda       -0.2209834E-02
   maximum displ.:     0.3803432 α      in ANC's #9, #3, #19, ...

........................................................................
.............................. CYCLE   25 ..............................
........................................................................

 iter      E             dE          RMSdq      gap      omega  full diag
   1   -100.6944154 -0.100694E+03  0.129E-01    0.82       0.0  T
   2   -100.6927263  0.168911E-02  0.170E-01    0.91       1.0  T
   3   -100.6949486 -0.222229E-02  0.562E-02    0.82       1.0  T
   4   -100.6949036  0.449972E-04  0.376E-02    0.88       1.0  T
   5   -100.6950424 -0.138811E-03  0.122E-02    0.83       1.0  T
   6   -100.6950596 -0.171417E-04  0.382E-03    0.84       3.1  T
   7   -100.6950605 -0.917165E-06  0.184E-03    0.84       6.4  T
   8   -100.6950606 -0.126615E-06  0.593E-04    0.84      19.9  T
   9   -100.6950606 -0.168559E-07  0.236E-04    0.84      49.8  T
     SCC iter.                  ...        0 min,  0.073 sec
     gradient                   ...        0 min,  0.071 sec
 * total energy  :   -99.3342526 Eh     change       -0.1893531E-02 Eh
   gradient norm :     0.0155525 Eh/α   predicted    -0.1606014E-02 ( -15.18%)
   displ. norm   :     0.6735993 α      lambda       -0.2139860E-02
   maximum displ.:     0.4002164 α      in ANC's #9, #3, #11, ...

........................................................................
.............................. CYCLE   26 ..............................
........................................................................

 iter      E             dE          RMSdq      gap      omega  full diag
   1   -100.7013065 -0.100701E+03  0.141E-01    0.82       0.0  T
   2   -100.6992665  0.204003E-02  0.188E-01    0.90       1.0  T
   3   -100.7020515 -0.278498E-02  0.562E-02    0.83       1.0  T
   4   -100.7020471  0.438219E-05  0.316E-02    0.87       1.0  T
   5   -100.7021421 -0.950523E-04  0.111E-02    0.83       1.1  T
   6   -100.7021555 -0.133748E-04  0.424E-03    0.85       2.8  T
   7   -100.7021566 -0.107998E-05  0.194E-03    0.84       6.1  T
   8   -100.7021567 -0.123070E-06  0.744E-04    0.84      15.8  T
   9   -100.7021568 -0.321214E-07  0.240E-04    0.84      49.2  T
     SCC iter.                  ...        0 min,  0.074 sec
     gradient                   ...        0 min,  0.069 sec
 * total energy  :   -99.3360343 Eh     change       -0.1781709E-02 Eh
   gradient norm :     0.0103232 Eh/α   predicted    -0.1555398E-02 ( -12.70%)
   displ. norm   :     0.7321873 α      lambda       -0.1765448E-02
   maximum displ.:     0.4302016 α      in ANC's #9, #3, #11, ...

........................................................................
.............................. CYCLE   27 ..............................
........................................................................

 iter      E             dE          RMSdq      gap      omega  full diag
   1   -100.7020035 -0.100702E+03  0.148E-01    0.82       0.0  T
   2   -100.7000195  0.198404E-02  0.187E-01    0.88       1.0  T
   3   -100.7027436 -0.272413E-02  0.622E-02    0.82       1.0  T
   4   -100.7028180 -0.743841E-04  0.247E-02    0.85       1.0  T
   5   -100.7028714 -0.534563E-04  0.834E-03    0.83       1.4  T
   6   -100.7028779 -0.647856E-05  0.428E-03    0.84       2.8  T
   7   -100.7028792 -0.131595E-05  0.157E-03    0.84       7.5  T
   8   -100.7028793 -0.605992E-07  0.626E-04    0.84      18.8  T
   9   -100.7028793 -0.229489E-07  0.210E-04    0.84      56.2  T
     SCC iter.                  ...        0 min,  0.073 sec
     gradient                   ...        0 min,  0.069 sec
 * total energy  :   -99.3375405 Eh     change       -0.1506131E-02 Eh
   gradient norm :     0.0097150 Eh/α   predicted    -0.1355950E-02 (  -9.97%)
   displ. norm   :     0.7102494 α      lambda       -0.1534034E-02
   maximum displ.:     0.4315175 α      in ANC's #9, #3, #5, ...

........................................................................
.............................. CYCLE   28 ..............................
........................................................................

 iter      E             dE          RMSdq      gap      omega  full diag
   1   -100.7047598 -0.100705E+03  0.142E-01    0.81       0.0  T
   2   -100.7030400  0.171975E-02  0.177E-01    0.86       1.0  T
   3   -100.7054547 -0.241474E-02  0.579E-02    0.82       1.0  T
   4   -100.7055282 -0.734568E-04  0.206E-02    0.83       1.0  T
   5   -100.7055652 -0.370023E-04  0.377E-03    0.83       3.1  T
   6   -100.7055645  0.752409E-06  0.349E-03    0.83       3.4  T
   7   -100.7055653 -0.865612E-06  0.181E-03    0.83       6.5  T
   8   -100.7055656 -0.285042E-06  0.605E-04    0.83      19.5  T
   9   -100.7055656 -0.255801E-07  0.191E-04    0.83      61.6  T
     SCC iter.                  ...        0 min,  0.073 sec
     gradient                   ...        0 min,  0.069 sec
 * total energy  :   -99.3388086 Eh     change       -0.1268168E-02 Eh
   gradient norm :     0.0091930 Eh/α   predicted    -0.1153956E-02 (  -9.01%)
   displ. norm   :     0.7427491 α      lambda       -0.1254220E-02
   maximum displ.:     0.4395261 α      in ANC's #9, #3, #5, ...

........................................................................
.............................. CYCLE   29 ..............................
........................................................................

 iter      E             dE          RMSdq      gap      omega  full diag
   1   -100.7008716 -0.100701E+03  0.127E-01    0.80       0.0  T
   2   -100.6997583  0.111332E-02  0.145E-01    0.85       1.0  T
   3   -100.7012889 -0.153058E-02  0.589E-02    0.81       1.0  T
   4   -100.7013893 -0.100409E-03  0.147E-02    0.82       1.0  T
   5   -100.7014088 -0.194597E-04  0.332E-03    0.82       3.6  T
   6   -100.7014089 -0.121238E-06  0.187E-03    0.82       6.3  T
   7   -100.7014090 -0.109304E-06  0.603E-04    0.82      19.6  T
   8   -100.7014090 -0.160757E-07  0.284E-04    0.82      41.5  T
     SCC iter.                  ...        0 min,  0.066 sec
     gradient                   ...        0 min,  0.069 sec
 * total energy  :   -99.3398168 Eh     change       -0.1008126E-02 Eh
   gradient norm :     0.0089660 Eh/α   predicted    -0.9730815E-03 (  -3.48%)
   displ. norm   :     0.6619755 α      lambda       -0.1143361E-02
   maximum displ.:     0.3905721 α      in ANC's #9, #3, #5, ...

........................................................................
.............................. CYCLE   30 ..............................
........................................................................

 iter      E             dE          RMSdq      gap      omega  full diag
   1   -100.7052201 -0.100705E+03  0.105E-01    0.80       0.0  T
   2   -100.7045370  0.683080E-03  0.119E-01    0.82       1.0  T
   3   -100.7055051 -0.968079E-03  0.480E-02    0.81       1.0  T
   4   -100.7055217 -0.165809E-04  0.238E-02    0.79       1.0  T
   5   -100.7055733 -0.516848E-04  0.699E-03    0.82       1.7  T
   6   -100.7055777 -0.435388E-05  0.308E-03    0.81       3.8  T
   7   -100.7055783 -0.612482E-06  0.125E-03    0.81       9.5  T
   8   -100.7055784 -0.727679E-07  0.424E-04    0.81      27.8  T
   9   -100.7055784 -0.102131E-07  0.170E-04    0.81      69.4  T
     SCC iter.                  ...        0 min,  0.073 sec
     gradient                   ...        0 min,  0.069 sec
 * total energy  :   -99.3406742 Eh     change       -0.8574530E-03 Eh
   gradient norm :     0.0077196 Eh/α   predicted    -0.8221989E-03 (  -4.11%)
   displ. norm   :     0.6621608 α      lambda       -0.8102464E-03
   maximum displ.:     0.3713372 α      in ANC's #9, #3, #5, ...

........................................................................
.............................. CYCLE   31 ..............................
........................................................................

 iter      E             dE          RMSdq      gap      omega  full diag
   1   -100.7030407 -0.100703E+03  0.945E-02    0.80       0.0  T
   2   -100.7026561  0.384569E-03  0.930E-02    0.82       1.0  T
   3   -100.7031573 -0.501143E-03  0.501E-02    0.81       1.0  T
   4   -100.7032219 -0.645946E-04  0.141E-02    0.80       1.0  T
   5   -100.7032444 -0.224726E-04  0.561E-03    0.82       2.1  T
   6   -100.7032472 -0.280217E-05  0.258E-03    0.81       4.6  T
   7   -100.7032475 -0.313992E-06  0.105E-03    0.81      11.3  T
   8   -100.7032475 -0.750353E-07  0.304E-04    0.81      38.8  T
   9   -100.7032476 -0.442658E-08  0.137E-04    0.81      86.3  T
     SCC iter.                  ...        0 min,  0.073 sec
     gradient                   ...        0 min,  0.069 sec
 * total energy  :   -99.3413188 Eh     change       -0.6445645E-03 Eh
   gradient norm :     0.0067906 Eh/α   predicted    -0.5827528E-03 (  -9.59%)
   displ. norm   :     0.5855164 α      lambda       -0.7353967E-03
   maximum displ.:     0.2762700 α      in ANC's #9, #5, #2, ...

........................................................................
.............................. CYCLE   32 ..............................
........................................................................

 iter      E             dE          RMSdq      gap      omega  full diag
   1   -100.7068605 -0.100707E+03  0.756E-02    0.81       0.0  T
   2   -100.7067712  0.893858E-04  0.585E-02    0.81       1.0  T
   3   -100.7068056 -0.344290E-04  0.488E-02    0.82       1.0  T
   4   -100.7068963 -0.907307E-04  0.150E-02    0.80       1.0  T
   5   -100.7069178 -0.214784E-04  0.647E-03    0.82       1.8  T
   6   -100.7069217 -0.392850E-05  0.245E-03    0.81       4.8  T
   7   -100.7069222 -0.494284E-06  0.103E-03    0.81      11.4  T
   8   -100.7069223 -0.384934E-07  0.314E-04    0.81      37.6  T
   9   -100.7069223 -0.546783E-08  0.115E-04    0.81     102.1  T
     SCC iter.                  ...        0 min,  0.073 sec
     gradient                   ...        0 min,  0.069 sec
 * total energy  :   -99.3418907 Eh     change       -0.5719366E-03 Eh
   gradient norm :     0.0056810 Eh/α   predicted    -0.4937602E-03 ( -13.67%)
   displ. norm   :     0.6289670 α      lambda       -0.5880341E-03
   maximum displ.:     0.2877778 α      in ANC's #9, #5, #2, ...

........................................................................
.............................. CYCLE   33 ..............................
........................................................................

 iter      E             dE          RMSdq      gap      omega  full diag
   1   -100.7058669 -0.100706E+03  0.813E-02    0.82       0.0  T
   2   -100.7057514  0.115549E-03  0.630E-02    0.81       1.0  T
   3   -100.7057953 -0.439251E-04  0.533E-02    0.82       1.0  T
   4   -100.7058931 -0.978533E-04  0.175E-02    0.80       1.0  T
   5   -100.7059337 -0.405942E-04  0.445E-03    0.82       2.6  T
   6   -100.7059353 -0.159929E-05  0.198E-03    0.81       5.9  T
   7   -100.7059355 -0.178270E-06  0.742E-04    0.82      15.9  T
   8   -100.7059355 -0.802130E-08  0.301E-04    0.82      39.2  T
     SCC iter.                  ...        0 min,  0.065 sec
     gradient                   ...        0 min,  0.069 sec
 * total energy  :   -99.3423415 Eh     change       -0.4508417E-03 Eh
   gradient norm :     0.0069506 Eh/α   predicted    -0.4103366E-03 (  -8.98%)
   displ. norm   :     0.5427016 α      lambda       -0.5482123E-03
   maximum displ.:     0.2255251 α      in ANC's #2, #5, #3, ...

........................................................................
.............................. CYCLE   34 ..............................
........................................................................

 iter      E             dE          RMSdq      gap      omega  full diag
   1   -100.7110388 -0.100711E+03  0.703E-02    0.83       0.0  T
   2   -100.7110223  0.164585E-04  0.439E-02    0.81       1.0  T
   3   -100.7106780  0.344316E-03  0.565E-02    0.88       1.0  T
   4   -100.7110418 -0.363838E-03  0.112E-02    0.81       1.1  T
   5   -100.7110541 -0.122372E-04  0.379E-03    0.82       3.1  T
   6   -100.7110552 -0.111186E-05  0.157E-03    0.82       7.5  T
   7   -100.7110553 -0.104635E-06  0.825E-04    0.82      14.3  T
   8   -100.7110553 -0.182464E-07  0.305E-04    0.82      38.6  T
     SCC iter.                  ...        0 min,  0.064 sec
     gradient                   ...        0 min,  0.068 sec
 * total energy  :   -99.3427151 Eh     change       -0.3735126E-03 Eh
   gradient norm :     0.0057322 Eh/α   predicted    -0.3548399E-03 (  -5.00%)
   displ. norm   :     0.5244186 α      lambda       -0.3465806E-03
   maximum displ.:     0.2294805 α      in ANC's #2, #5, #3, ...

........................................................................
.............................. CYCLE   35 ..............................
........................................................................

 iter      E             dE          RMSdq      gap      omega  full diag
   1   -100.7088929 -0.100709E+03  0.603E-02    0.82       0.0  T
   2   -100.7088853  0.759702E-05  0.376E-02    0.83       1.0  T
   3   -100.7087767  0.108601E-03  0.408E-02    0.81       1.0  T
   4   -100.7088990 -0.122243E-03  0.810E-03    0.83       1.5  T
   5   -100.7089048 -0.583470E-05  0.255E-03    0.82       4.6  T
   6   -100.7089050 -0.234868E-06  0.176E-03    0.83       6.7  T
   7   -100.7089054 -0.327804E-06  0.632E-04    0.83      18.6  T
   8   -100.7089054 -0.146644E-07  0.220E-04    0.83      53.5  T
     SCC iter.                  ...        0 min,  0.065 sec
     gradient                   ...        0 min,  0.069 sec
 * total energy  :   -99.3429623 Eh     change       -0.2472202E-03 Eh
   gradient norm :     0.0060996 Eh/α   predicted    -0.2209498E-03 ( -10.63%)
   displ. norm   :     0.3734526 α      lambda       -0.2550432E-03
   maximum displ.:     0.1835613 α      in ANC's #2, #5, #3, ...

........................................................................
.............................. CYCLE   36 ..............................
........................................................................

 iter      E             dE          RMSdq      gap      omega  full diag
   1   -100.7097809 -0.100710E+03  0.411E-02    0.83       0.0  T
   2   -100.7097758  0.512816E-05  0.259E-02    0.82       1.0  T
   3   -100.7096413  0.134406E-03  0.354E-02    0.86       1.0  T
   4   -100.7097832 -0.141889E-03  0.299E-03    0.83       3.9  T
   5   -100.7097840 -0.728374E-06  0.143E-03    0.83       8.2  T
   6   -100.7097841 -0.181177E-06  0.609E-04    0.83      19.4  T
   7   -100.7097841 -0.614230E-08  0.424E-04    0.83      27.8  T
     SCC iter.                  ...        0 min,  0.057 sec
     gradient                   ...        0 min,  0.068 sec
 * total energy  :   -99.3431573 Eh     change       -0.1949902E-03 Eh
   gradient norm :     0.0050428 Eh/α   predicted    -0.1453072E-03 ( -25.48%)
   displ. norm   :     0.3888295 α      lambda       -0.2726764E-03
   maximum displ.:     0.2069848 α      in ANC's #2, #5, #3, ...

........................................................................
.............................. CYCLE   37 ..............................
........................................................................

 iter      E             dE          RMSdq      gap      omega  full diag
   1   -100.7110528 -0.100711E+03  0.460E-02    0.83       0.0  T
   2   -100.7110183  0.344700E-04  0.363E-02    0.83       1.0  T
   3   -100.7110407 -0.223460E-04  0.284E-02    0.83       1.0  T
   4   -100.7110652 -0.245841E-04  0.964E-03    0.84       1.2  T
   5   -100.7110758 -0.105042E-04  0.365E-03    0.83       3.2  T
   6   -100.7110773 -0.150842E-05  0.135E-03    0.83       8.7  T
   7   -100.7110774 -0.140578E-06  0.455E-04    0.83      25.9  T
   8   -100.7110774 -0.432121E-08  0.192E-04    0.83      61.4  T
     SCC iter.                  ...        0 min,  0.065 sec
     gradient                   ...        0 min,  0.068 sec
 * total energy  :   -99.3433477 Eh     change       -0.1904203E-03 Eh
   gradient norm :     0.0067750 Eh/α   predicted    -0.1569526E-03 ( -17.58%)
   displ. norm   :     0.3826932 α      lambda       -0.2415237E-03
   maximum displ.:     0.2129639 α      in ANC's #2, #5, #3, ...

........................................................................
.............................. CYCLE   38 ..............................
........................................................................

 iter      E             dE          RMSdq      gap      omega  full diag
   1   -100.7094741 -0.100709E+03  0.403E-02    0.83       0.0  T
   2   -100.7094739  0.187361E-06  0.249E-02    0.83       1.0  T
   3   -100.7094317  0.422238E-04  0.250E-02    0.84       1.0  T
   4   -100.7094771 -0.454027E-04  0.327E-03    0.83       3.6  T
   5   -100.7094775 -0.454390E-06  0.191E-03    0.83       6.2  T
   6   -100.7094779 -0.324360E-06  0.763E-04    0.83      15.4  T
   7   -100.7094779 -0.378867E-07  0.445E-04    0.83      26.5  T
     SCC iter.                  ...        0 min,  0.057 sec
     gradient                   ...        0 min,  0.068 sec
 * total energy  :   -99.3435309 Eh     change       -0.1832312E-03 Eh
   gradient norm :     0.0057882 Eh/α   predicted    -0.1384495E-03 ( -24.44%)
   displ. norm   :     0.3690948 α      lambda       -0.2577350E-03
   maximum displ.:     0.2123080 α      in ANC's #2, #5, #3, ...

........................................................................
.............................. CYCLE   39 ..............................
........................................................................

 iter      E             dE          RMSdq      gap      omega  full diag
   1   -100.7085556 -0.100709E+03  0.436E-02    0.83       0.0  T
   2   -100.7085341  0.214626E-04  0.311E-02    0.83       1.0  T
   3   -100.7085075  0.265971E-04  0.312E-02    0.82       1.0  T
   4   -100.7085576 -0.501035E-04  0.950E-03    0.84       1.2  T
   5   -100.7085679 -0.102954E-04  0.273E-03    0.83       4.3  T
   6   -100.7085686 -0.675736E-06  0.970E-04    0.83      12.1  T
   7   -100.7085687 -0.534237E-07  0.455E-04    0.83      25.9  T
     SCC iter.                  ...        0 min,  0.057 sec
     gradient                   ...        0 min,  0.068 sec
 * total energy  :   -99.3437294 Eh     change       -0.1984755E-03 Eh
   gradient norm :     0.0069480 Eh/α   predicted    -0.1464287E-03 ( -26.22%)
   displ. norm   :     0.4831212 α      lambda       -0.3878141E-03
   maximum displ.:     0.2762322 α      in ANC's #2, #5, #3, ...

........................................................................
.............................. CYCLE   40 ..............................
........................................................................

 iter      E             dE          RMSdq      gap      omega  full diag
   1   -100.7076237 -0.100708E+03  0.658E-02    0.82       0.0  T
   2   -100.7075219  0.101766E-03  0.538E-02    0.84       1.0  T
   3   -100.7075864 -0.645159E-04  0.420E-02    0.82       1.0  T
   4   -100.7076380 -0.515943E-04  0.171E-02    0.85       1.0  T
   5   -100.7076766 -0.385915E-04  0.313E-03    0.83       3.8  T
   6   -100.7076772 -0.590217E-06  0.148E-03    0.83       8.0  T
   7   -100.7076773 -0.103426E-06  0.706E-04    0.83      16.7  T
   8   -100.7076773 -0.206615E-07  0.200E-04    0.83      58.9  T
     SCC iter.                  ...        0 min,  0.065 sec
     gradient                   ...        0 min,  0.069 sec
 * total energy  :   -99.3439904 Eh     change       -0.2609702E-03 Eh
   gradient norm :     0.0082217 Eh/α   predicted    -0.2391693E-03 (  -8.35%)
   displ. norm   :     0.4302159 α      lambda       -0.3342165E-03
   maximum displ.:     0.2441697 α      in ANC's #2, #5, #3, ...

........................................................................
.............................. CYCLE   41 ..............................
........................................................................

 iter      E             dE          RMSdq      gap      omega  full diag
   1   -100.7063110 -0.100706E+03  0.572E-02    0.83       0.0  T
   2   -100.7062714  0.396321E-04  0.406E-02    0.83       1.0  T
   3   -100.7062273  0.440827E-04  0.416E-02    0.82       1.0  T
   4   -100.7063203 -0.930294E-04  0.988E-03    0.84       1.2  T
   5   -100.7063323 -0.119586E-04  0.253E-03    0.82       4.7  T
   6   -100.7063327 -0.451015E-06  0.110E-03    0.83      10.7  T
   7   -100.7063328 -0.505193E-07  0.521E-04    0.83      22.6  T
   8   -100.7063328 -0.127477E-07  0.119E-04    0.83      99.4  T
     SCC iter.                  ...        0 min,  0.065 sec
     gradient                   ...        0 min,  0.068 sec
 * total energy  :   -99.3442451 Eh     change       -0.2547028E-03 Eh
   gradient norm :     0.0071378 Eh/α   predicted    -0.1980429E-03 ( -22.25%)
   displ. norm   :     0.4535037 α      lambda       -0.3400230E-03
   maximum displ.:     0.2561375 α      in ANC's #2, #5, #3, ...

........................................................................
.............................. CYCLE   42 ..............................
........................................................................

 iter      E             dE          RMSdq      gap      omega  full diag
   1   -100.7075402 -0.100708E+03  0.580E-02    0.83       0.0  T
   2   -100.7074967  0.434652E-04  0.415E-02    0.84       1.0  T
   3   -100.7074476  0.491674E-04  0.424E-02    0.81       1.0  T
   4   -100.7075492 -0.101596E-03  0.111E-02    0.84       1.1  T
   5   -100.7075626 -0.134122E-04  0.245E-03    0.83       4.8  T
   6   -100.7075630 -0.480291E-06  0.112E-03    0.83      10.5  T
   7   -100.7075631 -0.462832E-07  0.552E-04    0.83      21.3  T
   8   -100.7075631 -0.155589E-07  0.113E-04    0.83     103.9  T
     SCC iter.                  ...        0 min,  0.065 sec
     gradient                   ...        0 min,  0.068 sec
 * total energy  :   -99.3445011 Eh     change       -0.2560521E-03 Eh
   gradient norm :     0.0060279 Eh/α   predicted    -0.2049786E-03 ( -19.95%)
   displ. norm   :     0.5030553 α      lambda       -0.3027574E-03
   maximum displ.:     0.2880298 α      in ANC's #2, #5, #3, ...
 * RMSD in coord.:     1.1732852 α      energy gain  -0.1978932E-01 Eh

generating ANC from model Hessian ...
Using Lindh-Hessian (1995)
 Shifting diagonal of input Hessian by    9.9700354868764041E-003
 Lowest  eigenvalues of input Hessian
    0.000000    0.000000    0.000000    0.000000    0.000000    0.000000
    0.010000    0.010030    0.010101    0.010214    0.010270    0.010570
    0.010663    0.010867    0.011225    0.011525    0.012074    0.012563
 Highest eigenvalues
    2.003730    2.041188    2.082310    2.094906    2.174984    2.179137


........................................................................
.............................. CYCLE   43 ..............................
........................................................................

 iter      E             dE          RMSdq      gap      omega  full diag
   1   -100.7080826 -0.100708E+03  0.616E-02    0.84       0.0  T
   2   -100.7080548  0.277366E-04  0.408E-02    0.82       1.0  T
   3   -100.7079672  0.876302E-04  0.453E-02    0.85       1.0  T
   4   -100.7080981 -0.130875E-03  0.665E-03    0.83       1.8  T
   5   -100.7081013 -0.319714E-05  0.349E-03    0.84       3.4  T
   6   -100.7081024 -0.111837E-05  0.132E-03    0.83       9.0  T
   7   -100.7081025 -0.124469E-06  0.637E-04    0.83      18.5  T
   8   -100.7081025 -0.257874E-07  0.164E-04    0.83      71.7  T
     SCC iter.                  ...        0 min,  0.066 sec
     gradient                   ...        0 min,  0.068 sec
 * total energy  :   -99.3447227 Eh     change       -0.2215787E-03 Eh
   gradient norm :     0.0059334 Eh/α   predicted     0.0000000E+00 (-100.00%)
   displ. norm   :     0.0763661 α      lambda       -0.1499613E-03
   maximum displ.:     0.0341973 α      in ANC's #9, #34, #2, ...

........................................................................
.............................. CYCLE   44 ..............................
........................................................................

 iter      E             dE          RMSdq      gap      omega  full diag
   1   -100.7104860 -0.100710E+03  0.199E-02    0.84       0.0  T
   2   -100.7104838  0.219736E-05  0.129E-02    0.83       1.0  T
   3   -100.7104607  0.230626E-04  0.162E-02    0.85       1.0  T
   4   -100.7104862 -0.254630E-04  0.292E-03    0.83       4.0  T
   5   -100.7104871 -0.970923E-06  0.978E-04    0.83      12.1  T
   6   -100.7104872 -0.542756E-07  0.386E-04    0.83      30.5  T
     SCC iter.                  ...        0 min,  0.049 sec
     gradient                   ...        0 min,  0.068 sec
 * total energy  :   -99.3448420 Eh     change       -0.1193126E-03 Eh
   gradient norm :     0.0024870 Eh/α   predicted    -0.7556999E-04 ( -36.66%)
   displ. norm   :     0.1970655 α      lambda       -0.2150087E-03
   maximum displ.:     0.0945386 α      in ANC's #9, #34, #2, ...

........................................................................
.............................. CYCLE   45 ..............................
........................................................................

 iter      E             dE          RMSdq      gap      omega  full diag
   1   -100.7129121 -0.100713E+03  0.418E-02    0.84       0.0  T
   2   -100.7129088  0.328893E-05  0.254E-02    0.83       1.0  T
   3   -100.7128131  0.957632E-04  0.306E-02    0.87       1.0  T
   4   -100.7129126 -0.995150E-04  0.408E-03    0.83       2.9  T
   5   -100.7129145 -0.195472E-05  0.150E-03    0.83       7.9  T
   6   -100.7129146 -0.781098E-07  0.878E-04    0.83      13.4  T
   7   -100.7129147 -0.366949E-07  0.383E-04    0.83      30.8  T
     SCC iter.                  ...        0 min,  0.057 sec
     gradient                   ...        0 min,  0.068 sec
 * total energy  :   -99.3449900 Eh     change       -0.1480192E-03 Eh
   gradient norm :     0.0032088 Eh/α   predicted    -0.1116820E-03 ( -24.55%)
   displ. norm   :     0.2077352 α      lambda       -0.1302852E-03
   maximum displ.:     0.1017178 α      in ANC's #9, #2, #34, ...

........................................................................
.............................. CYCLE   46 ..............................
........................................................................

 iter      E             dE          RMSdq      gap      omega  full diag
   1   -100.7129814 -0.100713E+03  0.405E-02    0.84       0.0  T
   2   -100.7129817 -0.309942E-06  0.238E-02    0.83       1.0  T
   3   -100.7129653  0.164334E-04  0.142E-02    0.84       1.0  T
   4   -100.7129819 -0.166605E-04  0.272E-03    0.83       4.3  T
   5   -100.7129825 -0.570052E-06  0.148E-03    0.84       8.0  T
   6   -100.7129826 -0.125894E-06  0.992E-04    0.83      11.9  T
   7   -100.7129827 -0.698263E-07  0.388E-04    0.83      30.3  T
     SCC iter.                  ...        0 min,  0.057 sec
     gradient                   ...        0 min,  0.069 sec
 * total energy  :   -99.3450942 Eh     change       -0.1042002E-03 Eh
   gradient norm :     0.0043448 Eh/α   predicted    -0.6795387E-04 ( -34.79%)
   displ. norm   :     0.3260733 α      lambda       -0.1827240E-03
   maximum displ.:     0.1547608 α      in ANC's #9, #2, #7, ...

........................................................................
.............................. CYCLE   47 ..............................
........................................................................

 iter      E             dE          RMSdq      gap      omega  full diag
   1   -100.7114903 -0.100711E+03  0.640E-02    0.83       0.0  T
   2   -100.7114885  0.172558E-05  0.383E-02    0.84       1.0  T
   3   -100.7113841  0.104405E-03  0.355E-02    0.81       1.0  T
   4   -100.7114937 -0.109603E-03  0.435E-03    0.84       2.7  T
   5   -100.7114947 -0.962060E-06  0.288E-03    0.83       4.1  T
   6   -100.7114951 -0.390844E-06  0.159E-03    0.83       7.4  T
   7   -100.7114953 -0.203514E-06  0.683E-04    0.83      17.3  T
   8   -100.7114953 -0.440244E-07  0.188E-04    0.83      62.7  T
     SCC iter.                  ...        0 min,  0.065 sec
     gradient                   ...        0 min,  0.074 sec
 * total energy  :   -99.3452369 Eh     change       -0.1427058E-03 Eh
   gradient norm :     0.0039915 Eh/α   predicted    -0.1010773E-03 ( -29.17%)
   displ. norm   :     0.3762803 α      lambda       -0.1911503E-03
   maximum displ.:     0.1729570 α      in ANC's #9, #2, #7, ...

........................................................................
.............................. CYCLE   48 ..............................
........................................................................

 iter      E             dE          RMSdq      gap      omega  full diag
   1   -100.7093999 -0.100709E+03  0.740E-02    0.83       0.0  T
   2   -100.7093938  0.609516E-05  0.449E-02    0.84       1.0  T
   3   -100.7091916  0.202168E-03  0.482E-02    0.80       1.0  T
   4   -100.7094046 -0.212948E-03  0.633E-03    0.84       1.9  T
   5   -100.7094076 -0.297859E-05  0.367E-03    0.83       3.2  T
   6   -100.7094084 -0.820032E-06  0.167E-03    0.83       7.0  T
   7   -100.7094086 -0.180933E-06  0.673E-04    0.83      17.5  T
   8   -100.7094086 -0.399639E-07  0.206E-04    0.83      57.1  T
     SCC iter.                  ...        0 min,  0.065 sec
     gradient                   ...        0 min,  0.068 sec
 * total energy  :   -99.3453812 Eh     change       -0.1442795E-03 Eh
   gradient norm :     0.0040720 Eh/α   predicted    -0.1091146E-03 ( -24.37%)
   displ. norm   :     0.3450968 α      lambda       -0.1949578E-03
   maximum displ.:     0.1475068 α      in ANC's #2, #9, #7, ...

........................................................................
.............................. CYCLE   49 ..............................
........................................................................

 iter      E             dE          RMSdq      gap      omega  full diag
   1   -100.7086934 -0.100709E+03  0.687E-02    0.83       0.0  T
   2   -100.7086912  0.225226E-05  0.411E-02    0.84       1.0  T
   3   -100.7085461  0.145022E-03  0.395E-02    0.80       1.0  T
   4   -100.7086969 -0.150763E-03  0.508E-03    0.84       2.3  T
   5   -100.7086984 -0.147759E-05  0.360E-03    0.83       3.3  T
   6   -100.7086993 -0.935628E-06  0.136E-03    0.83       8.7  T
   7   -100.7086994 -0.113349E-06  0.440E-04    0.83      26.8  T
   8   -100.7086994 -0.152057E-07  0.166E-04    0.83      71.0  T
     SCC iter.                  ...        0 min,  0.065 sec
     gradient                   ...        0 min,  0.074 sec
 * total energy  :   -99.3455369 Eh     change       -0.1557141E-03 Eh
   gradient norm :     0.0052069 Eh/α   predicted    -0.1091643E-03 ( -29.89%)
   displ. norm   :     0.3933506 α      lambda       -0.2670391E-03
   maximum displ.:     0.1735985 α      in ANC's #2, #9, #7, ...

........................................................................
.............................. CYCLE   50 ..............................
........................................................................

 iter      E             dE          RMSdq      gap      omega  full diag
   1   -100.7098199 -0.100710E+03  0.756E-02    0.83       0.0  T
   2   -100.7098236 -0.364778E-05  0.437E-02    0.84       1.0  T
   3   -100.7098174  0.618268E-05  0.927E-03    0.83       1.3  T
   4   -100.7098232 -0.582610E-05  0.446E-03    0.84       2.6  T
   5   -100.7098240 -0.811413E-06  0.317E-03    0.83       3.7  T
   6   -100.7098249 -0.922574E-06  0.112E-03    0.84      10.5  T
   7   -100.7098250 -0.925640E-07  0.388E-04    0.83      30.3  T
   8   -100.7098250 -0.966355E-08  0.169E-04    0.83      69.8  T
     SCC iter.                  ...        0 min,  0.065 sec
     gradient                   ...        0 min,  0.068 sec
 * total energy  :   -99.3457450 Eh     change       -0.2081095E-03 Eh
   gradient norm :     0.0063766 Eh/α   predicted    -0.1541797E-03 ( -25.91%)
   displ. norm   :     0.4791864 α      lambda       -0.2777813E-03
   maximum displ.:     0.2154482 α      in ANC's #2, #9, #7, ...

........................................................................
.............................. CYCLE   51 ..............................
........................................................................

 iter      E             dE          RMSdq      gap      omega  full diag
   1   -100.7100104 -0.100710E+03  0.876E-02    0.84       0.0  T
   2   -100.7100090  0.143024E-05  0.511E-02    0.83       1.0  T
   3   -100.7098509  0.158134E-03  0.449E-02    0.86       1.0  T
   4   -100.7100179 -0.166978E-03  0.486E-03    0.84       2.4  T
   5   -100.7100185 -0.667978E-06  0.342E-03    0.84       3.4  T
   6   -100.7100189 -0.372411E-06  0.244E-03    0.84       4.8  T
   7   -100.7100195 -0.590116E-06  0.554E-04    0.84      21.3  T
   8   -100.7100195 -0.274070E-07  0.191E-04    0.84      61.7  T
     SCC iter.                  ...        0 min,  0.066 sec
     gradient                   ...        0 min,  0.071 sec
 * total energy  :   -99.3459714 Eh     change       -0.2263131E-03 Eh
   gradient norm :     0.0071381 Eh/α   predicted    -0.1707872E-03 ( -24.54%)
   displ. norm   :     0.4825392 α      lambda       -0.3578032E-03
   maximum displ.:     0.2238498 α      in ANC's #2, #5, #7, ...

........................................................................
.............................. CYCLE   52 ..............................
........................................................................

 iter      E             dE          RMSdq      gap      omega  full diag
   1   -100.7132815 -0.100713E+03  0.842E-02    0.86       0.0  T
   2   -100.7132389  0.426858E-04  0.537E-02    0.83       1.0  T
   3   -100.7129925  0.246335E-03  0.632E-02    0.89       1.0  T
   4   -100.7132970 -0.304474E-03  0.115E-02    0.83       1.0  T
   5   -100.7133107 -0.137377E-04  0.388E-03    0.85       3.0  T
   6   -100.7133117 -0.963917E-06  0.197E-03    0.84       6.0  T
   7   -100.7133119 -0.220880E-06  0.719E-04    0.85      16.4  T
   8   -100.7133120 -0.311806E-07  0.239E-04    0.85      49.3  T
     SCC iter.                  ...        0 min,  0.065 sec
     gradient                   ...        0 min,  0.068 sec
 * total energy  :   -99.3462263 Eh     change       -0.2549243E-03 Eh
   gradient norm :     0.0052274 Eh/α   predicted    -0.2205580E-03 ( -13.48%)
   displ. norm   :     0.6852813 α      lambda       -0.3578516E-03
   maximum displ.:     0.3140177 α      in ANC's #2, #9, #7, ...

........................................................................
.............................. CYCLE   53 ..............................
........................................................................

[...]
         :: total energy             -99.347391794840 Eh    ::
         :: gradient norm              0.003477707017 Eh/a0 ::
         :: HOMO-LUMO gap              0.858442964457 eV    ::
         ::.................................................::
         :: SCC energy              -100.714412178907 Eh    ::
         :: -> isotropic ES            0.106617927683 Eh    ::
         :: -> anisotropic ES          0.005634089139 Eh    ::
         :: -> anisotropic XC          0.044384176498 Eh    ::
         :: -> dispersion             -0.072401393193 Eh    ::
         :: repulsion energy           1.365748820468 Eh    ::
         :: add. restraining           0.000003781245 Eh    ::
         :: total charge               1.000000000215 e     ::
         :::::::::::::::::::::::::::::::::::::::::::::::::::::

           -------------------------------------------------
          |                Property Printout                |
           -------------------------------------------------

    * Orbital Energies and Occupations

         #    Occupation            Energy/Eh            Energy/eV
      -------------------------------------------------------------
         1        2.0000           -0.8279859             -22.5306
       ...           ...                  ...                  ...
        78        1.9988           -0.5291393             -14.3986
        79        1.9987           -0.5276974             -14.3594
        80        1.9982           -0.5223582             -14.2141
        81        1.9982           -0.5218569             -14.2004
        82        1.9970           -0.5138830             -13.9835
        83        1.9952           -0.5064907             -13.7823
        84        1.9947           -0.5050023             -13.7418
        85        1.9935           -0.5019044             -13.6575
        86        1.9780           -0.4823834             -13.1263
        87        1.9508           -0.4694220             -12.7736
        88        1.9234           -0.4621795             -12.5765
        89        1.8578           -0.4518476             -12.2954
        90        1.5903           -0.4326274             -11.7724 (HOMO)
        91        0.6923           -0.4010802             -10.9139 (LUMO)
        92        0.0195           -0.3380220              -9.1980
        93        0.0105           -0.3280876              -8.9277
        94        0.0044           -0.3143628              -8.5542
        95        0.0030           -0.3081148              -8.3842
        96        0.0024           -0.3049897              -8.2992
        97        0.0000           -0.2277515              -6.1974
        98        0.0000           -0.1824584              -4.9649
        99                         -0.1004520              -2.7334
       100                         -0.0827485              -2.2517
       101                         -0.0707504              -1.9252
       ...                                ...                  ...
       171                          0.5796375              15.7727
      -------------------------------------------------------------
                  HL-Gap            0.0315472 Eh            0.8584 eV
             Fermi-level           -0.4111513 Eh          -11.1880 eV

     #   Z          covCN         q      C6AA      α(0)
     1   7 N        1.774    -0.278    28.020     7.839
     2   6 C        2.827     0.103    25.717     8.310
     3   6 C        3.907     0.006    20.414     6.422
     4   6 C        2.974     0.001    27.999     8.680
     5   6 C        2.921    -0.079    29.980     8.979
     6   6 C        2.862     0.129    25.180     8.225
     7   8 O        1.706    -0.233    17.856     5.705
     8   6 C        3.644     0.029    20.427     6.496
     9   6 C        2.865     0.129    25.165     8.223
    10   8 O        1.706    -0.229    17.804     5.697
    11   6 C        3.646     0.028    20.438     6.497
    12   6 C        2.914    -0.071    29.781     8.949
    13   6 C        2.922    -0.049    29.221     8.865
    14   6 C        3.813    -0.065    21.733     6.636
    15   6 C        3.801    -0.062    21.691     6.631
    16   6 C        2.874    -0.049    29.207     8.859
    17   7 N        2.730     0.080    19.851     6.617
    18   6 C        2.871    -0.055    29.365     8.883
    19   6 C        3.808    -0.065    21.733     6.636
    20   6 C        2.960    -0.007    28.188     8.708
    21   6 C        2.905    -0.042    29.055     8.838
    22   6 C        2.913    -0.070    29.756     8.945
    23   6 C        2.850     0.130    25.156     8.220
    24   8 O        1.706    -0.237    17.934     5.718
    25   6 C        3.644     0.026    20.479     6.505
    26   6 C        2.851     0.125    25.252     8.236
    27   8 O        1.706    -0.198    17.297     5.615
    28   6 C        3.644     0.021    20.562     6.518
    29   6 C        3.811    -0.075    21.921     6.664
    30   6 C        3.718    -0.077    22.097     6.715
    31   6 C        3.854    -0.007    20.669     6.466
    32   6 C        3.756    -0.115    22.758     6.802
    33   6 C        3.755    -0.121    22.871     6.819
    34   1 H        0.926     0.051     2.307     2.375
    35   1 H        0.924     0.052     2.289     2.366
    36   1 H        0.925     0.079     1.984     2.203
    37   1 H        0.924     0.046     2.373     2.409
    38   1 H        0.924     0.054     2.271     2.356
    39   1 H        0.925     0.079     1.985     2.203
    40   1 H        0.924     0.048     2.340     2.392
    41   1 H        0.926     0.052     2.299     2.371
    42   1 H        0.926     0.042     2.424     2.434
    43   1 H        0.925     0.055     2.257     2.349
    44   1 H        0.925     0.057     2.230     2.335
    45   1 H        0.924     0.058     2.223     2.331
    46   1 H        0.923     0.059     2.209     2.325
    47   1 H        0.923     0.008     2.925     2.675
    48   1 H        0.926     0.053     2.282     2.362
    49   1 H        0.923     0.079     1.986     2.204
    50   1 H        0.926     0.048     2.349     2.397
    51   1 H        0.924     0.067     2.120     2.277
    52   1 H        0.924     0.055     2.259     2.350
    53   1 H        0.926     0.057     2.237     2.339
    54   1 H        0.926     0.064     2.153     2.294
    55   1 H        0.924     0.053     2.279     2.361
    56   1 H        0.924     0.055     2.264     2.353
    57   1 H        0.925     0.082     1.960     2.190
    58   1 H        0.925     0.091     1.867     2.137
    59   1 H        0.924     0.056     2.241     2.341
    60   1 H        0.924     0.060     2.197     2.318
    61   1 H        0.923     0.081     1.971     2.196
    62   1 H        0.925     0.083     1.948     2.182
    63   1 H        0.925     0.080     1.977     2.199
    64   1 H        0.925     0.086     1.916     2.165
    65   1 H        0.924     0.036     2.510     2.477
    66   1 H        0.925     0.060     2.197     2.318
    67   1 H        0.925     0.034     2.529     2.487
    68   1 H        0.925     0.049     2.332     2.388
    69   1 H        0.925     0.068     2.107     2.270
    70   1 H        0.925     0.036     2.504     2.474
    71   1 H        0.925     0.053     2.287     2.365
    72   1 H        0.860     0.150     1.399     1.853

 Mol. C6AA /au·bohr⁶  :      47438.164396
 Mol. C8AA /au·bohr⁸  :    1082009.459007
 Mol. α(0) /au        :        334.340923


Wiberg/Mayer (AO) data.
largest (>0.10) Wiberg bond orders for each atom

 ---------------------------------------------------------------------------
     #   Z sym  total        # sym  WBO       # sym  WBO       # sym  WBO
 ---------------------------------------------------------------------------
     1   7 N    3.012 --     2 C    1.948    72 H    0.944
     2   6 C    3.939 --     1 N    1.948     3 C    0.994    47 H    0.928
     3   6 C    3.974 --     2 C    0.994     4 C    0.979    14 C    0.950
                            31 C    0.943
     4   6 C    3.945 --    13 C    1.408     5 C    1.372     3 C    0.979
     5   6 C    3.961 --     6 C    1.400     4 C    1.372    34 H    0.957
     6   6 C    3.901 --     5 C    1.400     9 C    1.225     7 O    1.094
     7   8 O    2.246 --     6 C    1.094     8 C    0.979
     8   6 C    3.934 --     7 O    0.979    36 H    0.977    35 H    0.974
                            37 H    0.973
     9   6 C    3.897 --    12 C    1.388     6 C    1.225    10 O    1.099
    10   8 O    2.248 --     9 C    1.099    11 C    0.978
    11   6 C    3.932 --    10 O    0.978    39 H    0.977    40 H    0.974
                            38 H    0.973
    12   6 C    3.961 --    13 C    1.411     9 C    1.388    41 H    0.964
    13   6 C    3.951 --    12 C    1.411     4 C    1.408    42 H    0.962
    14   6 C    3.986 --    15 C    1.004    44 H    0.971    43 H    0.967
                             3 C    0.950
    15   6 C    3.987 --    16 C    1.051    14 C    1.004    45 H    0.943
                            46 H    0.939
    16   6 C    3.651 --    17 N    1.339    15 C    1.051    48 H    0.960
                            18 C    0.214
    17   7 N    3.727 --    16 C    1.339    18 C    1.329    30 C    0.988
    18   6 C    3.613 --    17 N    1.329    19 C    1.021    50 H    0.963
                            16 C    0.214
    19   6 C    3.989 --    18 C    1.021    20 C    1.012    52 H    0.948
                            51 H    0.941
    20   6 C    3.786 --    21 C    1.615    29 C    1.029    19 C    1.012
    21   6 C    3.980 --    20 C    1.615    22 C    1.292    53 H    0.964
    22   6 C    3.735 --    23 C    1.336    21 C    1.292    54 H    0.965
    23   6 C    3.911 --    22 C    1.336    26 C    1.322    24 O    1.089
    24   8 O    2.243 --    23 C    1.089    25 C    0.976
    25   6 C    3.929 --    57 H    0.977    24 O    0.976    55 H    0.974
                            56 H    0.974
    26   6 C    3.667 --    23 C    1.322    27 O    1.145    29 C    1.034
    27   8 O    2.267 --    26 C    1.145    28 C    0.976
    28   6 C    3.925 --    27 O    0.976    58 H    0.976    59 H    0.970
                            60 H    0.968
    29   6 C    3.985 --    26 C    1.034    20 C    1.029    61 H    0.918
                            49 H    0.917
    30   6 C    3.956 --    17 N    0.988    64 H    0.973    62 H    0.967
                            63 H    0.966
    31   6 C    3.975 --    32 C    1.009    33 C    1.008    65 H    0.961
                             3 C    0.943
    32   6 C    3.983 --    31 C    1.009    68 H    0.982    67 H    0.981
                            66 H    0.978
    33   6 C    3.978 --    31 C    1.008    70 H    0.983    71 H    0.980
                            69 H    0.974
    34   1 H    0.996 --     5 C    0.957
    35   1 H    0.993 --     8 C    0.974
    36   1 H    0.993 --     8 C    0.977
    37   1 H    0.994 --     8 C    0.973
    38   1 H    0.993 --    11 C    0.973
    39   1 H    0.993 --    11 C    0.977
    40   1 H    0.993 --    11 C    0.974
    41   1 H    0.996 --    12 C    0.964
    42   1 H    0.997 --    13 C    0.962
    43   1 H    0.996 --    14 C    0.967
    44   1 H    0.996 --    14 C    0.971
    45   1 H    0.984 --    15 C    0.943
    46   1 H    0.976 --    15 C    0.939
    47   1 H    0.983 --     2 C    0.928
    48   1 H    0.997 --    16 C    0.960
    49   1 H    0.955 --    29 C    0.917
    50   1 H    0.997 --    18 C    0.963
    51   1 H    0.975 --    19 C    0.941
    52   1 H    0.982 --    19 C    0.948
    53   1 H    0.996 --    21 C    0.964
    54   1 H    0.995 --    22 C    0.965
    55   1 H    0.994 --    25 C    0.974
    56   1 H    0.994 --    25 C    0.974
    57   1 H    0.993 --    25 C    0.977
    58   1 H    0.991 --    28 C    0.976
    59   1 H    0.991 --    28 C    0.970
    60   1 H    0.989 --    28 C    0.968
    61   1 H    0.957 --    29 C    0.918
    62   1 H    0.992 --    30 C    0.967
    63   1 H    0.993 --    30 C    0.966
    64   1 H    0.992 --    30 C    0.973
    65   1 H    0.992 --    31 C    0.961
    66   1 H    0.993 --    32 C    0.978
    67   1 H    0.997 --    32 C    0.981
    68   1 H    0.995 --    32 C    0.982
    69   1 H    0.991 --    33 C    0.974
    70   1 H    0.997 --    33 C    0.983
    71   1 H    0.994 --    33 C    0.980
    72   1 H    0.971 --     1 N    0.944
 ---------------------------------------------------------------------------

Topologies differ in total number of bonds
Writing topology from bond orders to xtbtopo.mol

molecular dipole:
                 x           y           z       tot (Debye)
 q only:        1.781      -0.678      -1.243
   full:        1.976      -0.957      -1.385       6.597
molecular quadrupole (traceless):
                xx          xy          yy          xz          yz          zz
 q only:       54.720       2.009     -26.619       3.218     -11.095     -28.101
  q+dip:       51.692       4.026     -27.106       3.134     -14.495     -24.587
   full:       51.549       3.092     -27.343       1.007     -14.723     -24.206

           -------------------------------------------------
          |                Geometry Summary                 |
           -------------------------------------------------

      molecular mass/u    :      455.6105846
   center of mass at/Å    :       -0.0480786       0.0201100       0.0154130
  moments of inertia/u·Å² :        0.2646201E+04   0.1102920E+05   0.1164062E+05
rotational constants/cm⁻¹ :        0.6370503E-02   0.1528455E-02   0.1448173E-02

 * 64 selected distances

     #   Z          #   Z                                           value/Å
     1   7 N        2   6 C                                       1.2521915
     4   6 C        5   6 C                                       1.3957258
     5   6 C        6   6 C                                       1.3850756
     6   6 C        7   8 O                                       1.3511762
     7   8 O        8   6 C                                       1.4076675
     6   6 C        9   6 C                                       1.4200466
     9   6 C       10   8 O                                       1.3487697
    10   8 O       11   6 C                                       1.4083401
     9   6 C       12   6 C                                       1.3860493
     4   6 C       13   6 C                                       1.3875003
    12   6 C       13   6 C                                       1.3874256
    14   6 C       15   6 C                                       1.5320753 (max)
    15   6 C       16   6 C                                       1.4855605
    16   6 C       17   7 N                                       1.3327311
    17   7 N       18   6 C                                       1.3340025
    20   6 C       21   6 C                                       1.3539555
    21   6 C       22   6 C                                       1.4058663
    22   6 C       23   6 C                                       1.3959218
    23   6 C       24   8 O                                       1.3529062
    24   8 O       25   6 C                                       1.4106356
    23   6 C       26   6 C                                       1.3982470
    26   6 C       27   8 O                                       1.3412048
    27   8 O       28   6 C                                       1.4070735
    17   7 N       30   6 C                                       1.4496236
    31   6 C       32   6 C                                       1.5268387
    31   6 C       33   6 C                                       1.5266863
     5   6 C       34   1 H                                       1.0773044
     8   6 C       35   1 H                                       1.0939706
     8   6 C       36   1 H                                       1.0881082
     8   6 C       37   1 H                                       1.0952447
    11   6 C       38   1 H                                       1.0941714
    11   6 C       39   1 H                                       1.0882068
    11   6 C       40   1 H                                       1.0948545
    12   6 C       41   1 H                                       1.0778916
    13   6 C       42   1 H                                       1.0790103
    14   6 C       43   1 H                                       1.0896653
    14   6 C       44   1 H                                       1.0896258
    15   6 C       45   1 H                                       1.0965787
    15   6 C       46   1 H                                       1.0993895
     2   6 C       47   1 H                                       1.0994760
    16   6 C       48   1 H                                       1.0759740
    29   6 C       49   1 H                                       1.1024157
    18   6 C       50   1 H                                       1.0787386
    19   6 C       51   1 H                                       1.0970153
    19   6 C       52   1 H                                       1.0964767
    21   6 C       53   1 H                                       1.0791338
    22   6 C       54   1 H                                       1.0757918 (min)
    25   6 C       55   1 H                                       1.0943475
    25   6 C       56   1 H                                       1.0940900
    25   6 C       57   1 H                                       1.0880810
    28   6 C       58   1 H                                       1.0881343
    28   6 C       59   1 H                                       1.0936273
    28   6 C       60   1 H                                       1.0947205
    29   6 C       61   1 H                                       1.1015379
    30   6 C       62   1 H                                       1.0900655
    30   6 C       63   1 H                                       1.0901569
    30   6 C       64   1 H                                       1.0844363
    31   6 C       65   1 H                                       1.0967947
    32   6 C       66   1 H                                       1.0858395
    32   6 C       67   1 H                                       1.0873711
    32   6 C       68   1 H                                       1.0868326
    33   6 C       69   1 H                                       1.0851425
    33   6 C       70   1 H                                       1.0864510
    33   6 C       71   1 H                                       1.0871327

 * 4 distinct bonds (by element types)

   Z      Z             #   av. dist./Å        max./Å        min./Å
   1 H    6 C          38     1.0895738     1.1024157     1.0757918
   6 C    6 C          14     1.4276411     1.5320753     1.3539555
   6 C    7 N           4     1.3421372     1.4496236     1.2521915
   6 C    8 O           8     1.3784717     1.4106356     1.3412048


optimized geometry written to: xtbopt.xyz


           -------------------------------------------------
          | TOTAL ENERGY              -99.347391794840 Eh   |
          | GRADIENT NORM               0.003477707017 Eh/α |
          | HOMO-LUMO GAP               0.858442964457 eV   |
           -------------------------------------------------

------------------------------------------------------------------------
 * finished run on 2024/04/06 at 11:13:36.756     
------------------------------------------------------------------------
 total:
 * wall-time:     0 d,  0 h,  0 min, 10.360 sec
 *  cpu-time:     0 d,  0 h,  0 min, 10.341 sec
 * ratio c/w:     0.998 speedup
 SCF:
 * wall-time:     0 d,  0 h,  0 min,  0.190 sec
 *  cpu-time:     0 d,  0 h,  0 min,  0.190 sec
 * ratio c/w:     1.000 speedup
 ANC optimizer:
 * wall-time:     0 d,  0 h,  0 min, 10.131 sec
 *  cpu-time:     0 d,  0 h,  0 min, 10.127 sec
 * ratio c/w:     1.000 speedup

