25
 energy: -42.079959640232 gnorm: 0.005279492737 xtb: 6.6.1 (8d0f1dd)
C            3.22937158831438        1.19610938650599        0.03958944410858
N            2.27968536015262        0.11563427693872       -0.02989170943689
C            2.55013450079567       -1.17703289517780       -0.07418882399862
N            1.41026594297257       -1.89021568563341       -0.12666541335888
C            0.35892920984462       -1.00406495897712       -0.11019306711098
C            0.91547955468397        0.26873846055209       -0.04902696312983
C            0.10303920249128        1.46842794177837       -0.03490602317715
O            0.51861140821259        2.60284150341573       -0.02841194826058
N           -1.25779878955561        1.15134323437439       -0.03249422956863
C           -2.19929743123444        2.26826869007431        0.00962730971867
C           -1.85211685663148       -0.07927784849847       -0.05656892475002
O           -3.03353894944136       -0.25463680494041       -0.02310872105909
N           -0.97090909850834       -1.24282983257023       -0.14299158181058
C           -1.54665747802011       -2.45353410376762       -0.24036905660101
H            3.71254299282324        1.21191131279248        1.01781685548851
H            3.99359698049653        1.07788168636538       -0.72748891519350
H            2.70121140136255        2.13831472224825       -0.10595681921509
H            3.53449983001891       -1.60657829203474       -0.07038097104248
H           -1.62577861088787        3.19149583467324        0.01271788385513
H           -2.85234213673580        2.23200747212607       -0.86067738179279
H           -2.81073618993909        2.19817805272511        0.90783270166125
H           -1.77640531524939       -4.86790554288342        1.49418082711910
H           -0.95221308728851       -3.33998622029748       -0.34388793678733
H           -2.61955442857024       -2.48785740561138       -0.23956486922114
H            1.35041191399332       -2.89899444257810       -0.15382004853669
