25
 energy: 0.000000000000 xtb: 6.6.1 (8d0f1dd)
C            3.23720163006194        1.16630919979326        0.08434469647475
N            2.29877817382611        0.07527477071623        0.03981603040599
C            2.58028210190900       -1.21425402444508        0.03006176031096
N            1.43813958087363       -1.93419271955128        0.00098261760884
C            0.39035688448383       -1.05887472636071       -0.00790371836672
C            0.93510056364412        0.21347819449412        0.01709077491437
C            0.09450143893243        1.40504303904423       -0.00410947031874
O            0.49712751527797        2.54126714362870       -0.00342325688240
N           -1.25076640035757        1.06271879480407       -0.03085478223738
C           -2.21907211982101        2.15522099834493       -0.05001256985998
C           -1.81739487048744       -0.20012725993278       -0.04692818574614
O           -2.99983886758376       -0.37846417018721       -0.07008878229737
N           -0.92618586207120       -1.30210215599479       -0.03682761578324
C           -1.46982264913417       -2.64643102187190       -0.06029820460571
H            3.71247264356769        1.21471455160235        1.06488849150277
H            4.00791497605742        1.03430808813993       -0.67357694370751
H            2.69910007168542        2.09770118228144       -0.09130154882931
H            3.56654120610678       -1.63682992603973        0.04233140067262
H           -1.67107961066214        3.09322851271934       -0.02552706933167
H           -2.82428953597071        2.09428624779827       -0.95318082946668
H           -2.87644029173232        2.07745725625962        0.81450067533302
H           -1.17061996399332       -3.19584890659852        0.83242232437030
H           -1.14560257411436       -3.17511610292205       -0.95688275822323
H           -2.55549792440841       -2.55659984320617       -0.07459039797972
H            1.38130855184625       -2.94313852034425       -0.01389874181052
25
 energy: -5.398424596222 xtb: 6.6.1 (8d0f1dd)
C            3.24392853756904        1.17745174892600        0.08675526228112
N            2.30804246061953        0.09553945287709        0.03771108945791
C            2.59950718535023       -1.23261342246414        0.03004796606913
N            1.42738480184697       -1.94019438683712        0.00080395530363
C            0.39635350242166       -1.05605412768508       -0.00827682806021
C            0.93021058919774        0.22264096574614        0.01523786102314
C            0.10166836276779        1.39609489937777       -0.00526937509766
O            0.49830426113461        2.56195658185377       -0.00465447107219
N           -1.26035548124569        1.05071190723877       -0.03111174662205
C           -2.22054793167465        2.14687097191468       -0.04984998407227
C           -1.82364411539921       -0.20058261718774       -0.04730883420568
O           -3.02028688864929       -0.38296666086990       -0.07040870333675
N           -0.93419167766005       -1.30080127990551       -0.03705252034229
C           -1.47182044285695       -2.64286827817315       -0.06020195151882
H            3.72212850402647        1.22331105037734        1.06883367835026
H            4.01199612148995        1.04261574107174       -0.67623888387712
H            2.69719799051477        2.10211385904419       -0.08879796089860
H            3.57768810506806       -1.65898813829177        0.04268534773220
H           -1.65893976732063        3.07811319620287       -0.02535906117236
H           -2.82594830315627        2.09344545150502       -0.95425005877770
H           -2.87812333798568        2.07681773468431        0.81602065505884
H           -1.16830911968606       -3.19404413660552        0.83190586374508
H           -1.14326772156152       -3.17351579854115       -0.95599029611521
H           -2.55712610045386       -2.55211619935717       -0.07457284970489
H            1.36036513357927       -2.94390991272942       -0.01362425800022
25
 energy: -6.573549347603 xtb: 6.6.1 (8d0f1dd)
C            3.25127224563321        1.18448520401932        0.08934683917515
N            2.31514388230680        0.10704275303278        0.03401781150857
C            2.60932927394021       -1.24654572643258        0.03017692333723
N            1.41463090143903       -1.93874839974188        0.00108227660628
C            0.39960053906892       -1.05134558929529       -0.00904073947891
C            0.92693055715189        0.23085099590322        0.01235136761121
C            0.10755073090865        1.38436739777627       -0.00764486723277
O            0.48599334322217        2.56563873443331       -0.00778240625195
N           -1.27081317908057        1.03939851359095       -0.03181791716575
C           -2.22112072546085        2.13952131465321       -0.04962338429307
C           -1.82669600600278       -0.20208219137295       -0.04777147685842
O           -3.02753351319720       -0.39057309665492       -0.07048570466251
N           -0.94020861116262       -1.29724544671379       -0.03734389348179
C           -1.47192260034050       -2.63813661951329       -0.05996596723168
H            3.73691400291561        1.23377858593295        1.06985607608408
H            4.01860458432139        1.05874389399289       -0.67797901715719
H            2.69905379621196        2.10701269283359       -0.08133374111389
H            3.58048568823377       -1.68037260910647        0.04339044235464
H           -1.64102940446255        3.06019045755958       -0.02517092881807
H           -2.82765899668134        2.09406987554870       -0.95430447705012
H           -2.87911249751866        2.07761299169746        0.81716550402739
H           -1.16603148408618       -3.19085531347335        0.83160711261644
H           -1.14086347626734       -3.17084075109224       -0.95486647348337
H           -2.55724948728140       -2.54666838771020       -0.07449170079643
H            1.33694510412458       -2.94027067769527       -0.01233776209776
25
 energy: -6.643159161109 xtb: 6.6.1 (8d0f1dd)
C            3.25528332242860        1.18657519369274        0.09103500426720
N            2.31895295439690        0.10810591556820        0.03071197506137
C            2.60964418959915       -1.25299183618168        0.03011677566770
N            1.40854765326195       -1.93648571997821        0.00175282344911
C            0.39994193137500       -1.04880652769496       -0.00987063681420
C            0.92741777275984        0.23431375914377        0.00973615838572
C            0.10889728170746        1.38123247070801       -0.01063816934273
O            0.47261209850995        2.56614032331089       -0.01199613987638
N           -1.27691122566872        1.03496449984330       -0.03301969407741
C           -2.22110536135346        2.13731983478429       -0.04954055274904
C           -1.82849980106250       -0.20464682939291       -0.04831720358696
O           -3.02875529544470       -0.39847042995789       -0.07044146038453
N           -0.94124510584079       -1.29541567059484       -0.03762164784672
C           -1.47002363057555       -2.63631213617897       -0.05955313709853
H            3.74780865831904        1.23633232605937        1.06879419915340
H            4.02184988819996        1.07360209525235       -0.67978093314351
H            2.70127654294780        2.11036719646569       -0.07105450803882
H            3.57729470682823       -1.69410277660125        0.04396602044850
H           -1.62891639250938        3.05026471413722       -0.02532656592460
H           -2.82886457862909        2.09661607607149       -0.95363882362944
H           -2.87857444811310        2.08006347583185        0.81798879446414
H           -1.16397463199580       -3.18838657768808        0.83240430912590
H           -1.13857638473702       -3.16922279083678       -0.95423973238655
H           -2.55551087180816       -2.54416775424690       -0.07426167342301
H            1.32364539534057       -2.93786022934465       -0.01017128555333
25
 energy: -6.546244233782 xtb: 6.6.1 (8d0f1dd)
C            3.25998049899559        1.18806622646174        0.09437509143330
N            2.32450995551276        0.10649043803465        0.02444846377608
C            2.60713074629432       -1.26031475684513        0.02938482863217
N            1.40169112106348       -1.93310639249996        0.00325113603952
C            0.39923732378674       -1.04483253791155       -0.01172500061233
C            0.92988073976353        0.23862223329325        0.00430785177902
C            0.10965338918435        1.38033826036867       -0.01775006257694
O            0.45226021650829        2.56804001870992       -0.02194799423187
N           -1.28458276510961        1.03010313961570       -0.03626910192653
C           -2.22063588371318        2.13619286257504       -0.04960569829131
C           -1.83190807687598       -0.20912385830246       -0.04971991096631
O           -3.03045492954944       -0.41080908551859       -0.07018835258462
N           -0.94115860697778       -1.29331461315130       -0.03828678944633
C           -1.46516303259608       -2.63535747562909       -0.05836739019813
H            3.76540356726245        1.23046073904502        1.06659501312905
H            4.02223970753261        1.09973670871480       -0.68526563248417
H            2.70224686337080        2.11443064245847       -0.04654371326293
H            3.56944437176954       -1.71388966129247        0.04489009968392
H           -1.61278154341044        3.03873744545909       -0.02633735084302
H           -2.83138593034111        2.10312280192774       -0.95191122541510
H           -2.87607584771783        2.08601749839414        0.81983852427738
H           -1.15893930329473       -3.18481993367988        0.83489099061608
H           -1.13297949820072       -3.16803949619906       -0.95267418549882
H           -2.55093658967243       -2.54336198076831       -0.07351308189751
H            1.30553817435106       -2.93436062108842       -0.00484261298329
25
 energy: -6.049135789928 xtb: 6.6.1 (8d0f1dd)
C            3.26548165245699        1.18889228194497        0.10238818263664
N            2.33265949724863        0.10244520670504        0.01172159796711
C            2.60114210178789       -1.26959755360242        0.02630085000055
N            1.39192230091632       -1.92799115131795        0.00606860229424
C            0.39668291933678       -1.03746921079370       -0.01614316376735
C            0.93430176981417        0.24534492525763       -0.00784149409682
C            0.11045677582160        1.38155350631793       -0.03477329639029
O            0.42346037769556        2.57260800430730       -0.04581309646886
N           -1.29497813053015        1.02372304909979       -0.04470849940104
C           -2.21931640669365        2.13669844544601       -0.05022096618833
C           -1.83848967654393       -0.21563074113913       -0.05322376721730
O           -3.03435355414950       -0.42862799861175       -0.06930952452660
N           -0.94067585993085       -1.29034994437855       -0.04001647997850
C           -1.45458735986395       -2.63601653609770       -0.05510512284617
H            3.79860634036204        1.20266982244009        1.06246027947097
H            4.01301552123253        1.14969440729028       -0.69977853945651
H            2.69850184344376        2.11955050683376        0.01267084106944
H            3.55430288664650       -1.74417581218060        0.04638795207347
H           -1.59040252506150        3.02496008340740       -0.02993254537823
H           -2.83734885430814        2.11677859449784       -0.94789826270914
H           -2.86868601379206        2.09803756702447        0.82437075582327
H           -1.14645950622079       -3.17888149235509        0.84117411458981
H           -1.11925788039808       -3.16864215047634       -0.94788528269946
H           -2.54090890773385       -2.54799873987905       -0.07125949855519
H            1.27714535639978       -2.92854646756818        0.00740025990155
25
 energy: -0.412659982078 xtb: 6.6.1 (8d0f1dd)
C            3.28098626214522        1.18963858488985        0.13307674855012
N            2.35820161402450        0.08796243163048       -0.03457661661276
C            2.57957629093930       -1.29775538680604        0.01342456575822
N            1.36034511866025       -1.91127553979035        0.01525475834433
C            0.38669794108518       -1.01209300951149       -0.03295861780651
C            0.94878187182528        0.26741581291591       -0.05317910096144
C            0.11385070227188        1.38793801300019       -0.09845371487792
O            0.33494993684472        2.58844826438259       -0.13539795424955
N           -1.32733974077208        1.00489305783755       -0.07680350437139
C           -2.21476526220730        2.14097330224614       -0.05290159215439
C           -1.86115832016316       -0.23522116017681       -0.06613242302366
O           -3.04815705503331       -0.48393798167297       -0.06516559041687
N           -0.93938532966727       -1.28056300924180       -0.04670136046688
C           -1.41650400883421       -2.64023580245111       -0.04231396264829
H            3.91554289029711        1.08759362869814        1.04705234409386
H            3.96882483925223        1.32591407780553       -0.75276629578565
H            2.68078642460621        2.13368103110948        0.23498160410978
H            3.50193297818793       -1.84182350579990        0.05109681740230
H           -1.52224797385298        2.98538318006302       -0.04549365884331
H           -2.86033820303925        2.16392315400709       -0.93252992837825
H           -2.83963238097312        2.13968319938151        0.84177467702663
H           -1.10062799787037       -3.15783591691172        0.86566666387426
H           -1.06690422866690       -3.17399279254628       -0.92792644604445
H           -2.50481541610154       -2.57090352841014       -0.06341121182633
H            1.18361371497769       -2.90878150247674        0.05141769545545
25
 energy: -1.495662427214 xtb: 6.6.1 (8d0f1dd)
C            3.27844757158175        1.18622629995881        0.13729630066934
N            2.35609969387913        0.08677903473010       -0.03683129201816
C            2.57709062408865       -1.29358597454532        0.01325535899618
N            1.36187916061296       -1.91094184072855        0.01516341968116
C            0.38496397229099       -1.01077636732751       -0.03622061400032
C            0.94879134747760        0.26707129048384       -0.05937173323410
C            0.11480278835354        1.39179497137652       -0.10710425701885
O            0.34498809537070        2.58784714913334       -0.14858066383302
N           -1.32544354123346        1.00903220388577       -0.08053267329175
C           -2.21687649936999        2.14363925951631       -0.05031169730845
C           -1.86210320830237       -0.23263101108492       -0.06736670171419
O           -3.04868486380071       -0.48019311507110       -0.06294933655176
N           -0.93931383119452       -1.28015603805264       -0.04894723660974
C           -1.41307438336245       -2.64182655727247       -0.04181428017359
H            3.91153437995464        1.07869670003669        1.04363435129728
H            3.96131111816466        1.32087400635216       -0.73880476127073
H            2.68673647769818        2.12331196799537        0.23944573187198
H            3.49867824690351       -1.83592800164531        0.05042040049089
H           -1.53558226726592        2.99312979237209       -0.04524445530227
H           -2.86571857127464        2.16603325561765       -0.92646973187199
H           -2.83569658595148        2.13824852906995        0.84762937796478
H           -1.09535941686723       -3.15619636315382        0.86738444663473
H           -1.06014538970501       -3.17617620453209       -0.92581923156532
H           -2.50145876304442       -2.57842585233341       -0.06363739331815
H            1.18634851293188       -2.90681853260934        0.05281056762335
25
 energy: -0.825020484182 xtb: 6.6.1 (8d0f1dd)
C            3.27407437299822        1.16681794586965        0.17843522157864
N            2.35575101354618        0.07855395194134       -0.07620419411177
C            2.55703586027653       -1.28371337807546        0.00698068222579
N            1.35149641772560       -1.90126001491962        0.02079690271298
C            0.37134585154266       -0.99078166630948       -0.06422367925940
C            0.95229402106095        0.27698667796237       -0.11902943555891
C            0.12136688058946        1.41224179174590       -0.19120750339378
O            0.35831459130784        2.59678057910627       -0.28327663551690
N           -1.33051794034546        1.01966561067518       -0.12026163844074
C           -2.22525841584071        2.15784801020752       -0.03745357904932
C           -1.87822851956304       -0.22553069172065       -0.08151629248924
O           -3.06013927328222       -0.48121686662923       -0.04793753023301
N           -0.94240559071615       -1.27260427208030       -0.06681371105736
C           -1.37725738049258       -2.65073102429366       -0.03191483009059
H            3.95658909163393        0.95278131485798        1.01372229745839
H            3.88809451726820        1.39410055657058       -0.69623212074032
H            2.70477307450314        2.06826285153886        0.40518171782445
H            3.46092195315269       -1.84583526160391        0.04930713710393
H           -1.56952598988411        3.01620205694687       -0.05450837580743
H           -2.91068959047815        2.19805349156459       -0.88276324337947
H           -2.79580388173665        2.14581805004614        0.89133190390315
H           -1.04297713748069       -3.13263166819707        0.89072103932276
H           -0.99466850612926       -3.19129956116135       -0.90104253472000
H           -2.46657813379311       -2.63355126379921       -0.06071211583708
H            1.15420738207262       -2.88592861807112        0.08565441370247
25
 energy: 1.106010092631 xtb: 6.6.1 (8d0f1dd)
C            3.26584895870083        1.13843428299949        0.22937829204012
N            2.34675272754987        0.07839129567813       -0.12631625700804
C            2.54104127851790       -1.26192871161846        0.00569356683350
N            1.34180137317783       -1.89390802364247        0.02917996486714
C            0.35685098719618       -0.97072677404959       -0.09925211323012
C            0.94824773100025        0.28476207439361       -0.19268497497708
C            0.12620490677393        1.43218856120455       -0.29330741187272
O            0.40119696112190        2.60736863258331       -0.46667899842063
N           -1.32813723211884        1.03507171821619       -0.16918869988557
C           -2.23427081486912        2.17280627409226       -0.02099660382200
C           -1.89371475070866       -0.20800694708990       -0.09856660469343
O           -3.07400885996580       -0.46076087070948       -0.02874164716011
N           -0.95215261013819       -1.26544131355001       -0.09190365990927
C           -1.34169672357181       -2.65900576998712       -0.02028473857275
H            4.00530320216129        0.77883352224194        0.96132984034596
H            3.77960428877412        1.48554416410811       -0.64223153253846
H            2.72286571038946        1.97909873411550        0.63336236734450
H            3.43187047952848       -1.82721437661416        0.04763555577316
H           -1.62129431282235        3.05721177358119       -0.06979180135650
H           -2.96755969251930        2.22404437373127       -0.82473902092205
H           -2.74256044838118        2.14010947381804        0.94625649452179
H           -0.98547696554319       -3.10082292699694        0.91848451743255
H           -0.91837657468717       -3.21021873774417       -0.86802529091704
H           -2.42995734662074       -2.70359080504033       -0.05752392833739
H            1.13383239498999       -2.86321102154871        0.12594658061173
25
 energy: 6.690801193446 xtb: 6.6.1 (8d0f1dd)
C            3.25678129449771        1.10996244662800        0.28071898731095
N            2.34199373584245        0.07262530841915       -0.17989649331947
C            2.52117865484901       -1.24686199150333        0.00458998776322
N            1.33171408301261       -1.88521282745066        0.03502870451779
C            0.34224933937592       -0.95122899027150       -0.13404362229369
C            0.94810637129591        0.29242682111701       -0.26895704605632
C            0.13108384941150        1.45223774806716       -0.39886167717093
O            0.43106246706813        2.60928927950103       -0.63401308088963
N           -1.32800720285159        1.05079520835926       -0.21927048730817
C           -2.23986274189089        2.18910199938509       -0.00756895733558
C           -1.90829913386372       -0.19351686942846       -0.11742064413550
O           -3.08489420719073       -0.44620434438696       -0.01094805444728
N           -0.95827226870754       -1.25793838492844       -0.11598960811155
C           -1.30461436817313       -2.66698581570868       -0.00680899697473
H            4.06169465684323        0.61085643855130        0.89920573873348
H            3.66807170982371        1.61210495033740       -0.59697574812398
H            2.73782094267135        1.88709906966651        0.87904199580509
H            3.39895408665954       -1.82526613930515        0.04732753194335
H           -1.66394351721980        3.09143886452315       -0.08855707858555
H           -3.02176553083551        2.24871833523822       -0.76788047108276
H           -2.68608485737142        2.14230363114583        0.99581218318795
H           -0.93144588420472       -3.06856831211568        0.94826427776898
H           -0.84556908322006       -3.22763596293433       -0.83392186231282
H           -2.39107969812251       -2.76792895032521       -0.05234080552007
H            1.10534197023609       -2.84258291040837        0.17049912278450
25
 energy: 6.268528214496 xtb: 6.6.1 (8d0f1dd)
C            3.24363150506870        1.07321559624762        0.29721984547153
N            2.31075788326265        0.10687641613228       -0.21515827044723
C            2.53886846723866       -1.22406223397990        0.04423972394150
N            1.33384320753142       -1.89730456028352        0.02550905573841
C            0.34852099782499       -0.96776383564668       -0.14418069905000
C            0.91542554913922        0.27684271614039       -0.30390198605600
C            0.09645980013256        1.43077665879842       -0.43815681746139
O            0.50587524591567        2.56627023753340       -0.68125275786662
N           -1.29839581149202        1.07080918029324       -0.23739263615964
C           -2.22246540683328        2.18939755510286       -0.01107631345480
C           -1.88600759794715       -0.15781497646354       -0.12977947735001
O           -3.07524755162694       -0.35674000863751       -0.00784566368397
N           -0.97618755619819       -1.26527014724739       -0.13461410016393
C           -1.32291397593998       -2.65620481409822        0.00133519969369
H            4.05196860697054        0.52370773419545        0.75622718979440
H            3.55283919744776        1.78244963588552       -0.59263889001379
H            2.73793297460492        1.72533630485939        1.10444293110495
H            3.46164255016379       -1.74840867998615        0.05202157292457
H           -1.68196551717216        3.13492812020924       -0.11766050442905
H           -3.03472679642377        2.19040162307543       -0.73262379778152
H           -2.64103513618679        2.10782163930440        0.98881890688947
H           -0.95370699966211       -3.04650863373505        0.95581321515057
H           -0.85292085212895       -3.22507231300317       -0.80821927334176
H           -2.39159134202703       -2.78148173053902       -0.04275596806492
H            1.15161322627290       -2.86317288198516        0.19866341076279
25
 energy: 6.573809901022 xtb: 6.6.1 (8d0f1dd)
C            3.24239479560566        1.07936674516094        0.33517458940207
N            2.28963344352318        0.15763341479694       -0.22754267721609
C            2.53406813736658       -1.22745351074683        0.06930056318430
N            1.29326777757355       -1.88342420414731        0.00149124192838
C            0.35134730710058       -0.96029551169296       -0.16545098516244
C            0.88177607460045        0.29547343228795       -0.34645916311966
C            0.03565180980921        1.41348283260576       -0.51494506284496
O            0.44038539193926        2.57130507764577       -0.76009445354942
N           -1.31271926846904        1.07128771353035       -0.26946077643390
C           -2.22200187718714        2.18894756279044        0.00627172211082
C           -1.87691728856384       -0.15290006073811       -0.14525747423652
O           -3.07514988647701       -0.34210796495663        0.00654482049888
N           -0.99101242943064       -1.25818493051305       -0.16360981638418
C           -1.30188653082316       -2.65056422938986        0.00263122602995
H            4.05723356376620        0.51597471972169        0.71442568541145
H            3.56032997721553        1.74424933272086       -0.45792725073656
H            2.81603774916689        1.67171117619847        1.11083992763217
H            3.47711214301192       -1.75504562992478        0.03497125988858
H           -1.63333845532045        3.12116136344007       -0.10627861993478
H           -3.09031928360282        2.19723790857515       -0.67432141601592
H           -2.59840642241311        2.11354357372273        1.03137920487566
H           -0.91290781814227       -3.01828185089105        0.96205971601404
H           -0.81117579860999       -3.22528107549601       -0.79240181635818
H           -2.36514432284589       -2.81554674639615       -0.04085673367217
H            1.12395587914180       -2.86326053613200        0.21655018483572
25
 energy: 12.288932431610 xtb: 6.6.1 (8d0f1dd)
C            3.20490190557711        1.09313841569431        0.37091408993828
N            2.29215517297965        0.14501252892295       -0.25861200507852
C            2.51988162011453       -1.22288776300185        0.06609559135588
N            1.29686322372502       -1.87646451247453        0.00779852150366
C            0.34518580622612       -0.96087334699882       -0.19513786982917
C            0.89065254874108        0.29137346004492       -0.39139894091731
C            0.05234619345288        1.41923562837532       -0.59624211222754
O            0.41559470110806        2.57375769114344       -0.86854126483371
N           -1.31257617534600        1.07874099157187       -0.30979170746173
C           -2.21507154957935        2.19598344142909        0.00741848936158
C           -1.87861423781003       -0.15266083375143       -0.15691142386404
O           -3.06881822770148       -0.33886426010344        0.01482687171667
N           -0.98904185421597       -1.24753221532371       -0.19099511985265
C           -1.29035483251381       -2.64765130891839        0.01318367020583
H            4.16037507050227        0.38067594269278        0.64583150209357
H            3.46079778593408        1.83649556170018       -0.38694936116912
H            2.79591751104604        1.63473287265375        1.30408503120055
H            3.45512287379874       -1.74578275405239        0.00824358965670
H           -1.64009051672185        3.12171748982564       -0.13330787616588
H           -3.12250155558876        2.19417133609313       -0.63489396099846
H           -2.53853030894720        2.11646290280332        1.06899100731333
H           -0.90079813638005       -2.97906403547851        0.99407075854814
H           -0.78401029744557       -3.23727779059720       -0.76643392250837
H           -2.36046406808596       -2.83727749418044       -0.03677902605466
H            1.12329201506571       -2.84613334589753        0.25156936421422
25
 energy: 6.713488646025 xtb: 6.6.1 (8d0f1dd)
C            3.21452467903015        1.07255298203552        0.38560564860950
N            2.30777074205294        0.11477074379701       -0.24418963880748
C            2.51041558905817       -1.23880081493664        0.05261084299619
N            1.29857814819471       -1.88027223323724        0.00875442029980
C            0.34146569240850       -0.96327834818462       -0.21350811742850
C            0.90734196690032        0.28530580425304       -0.39837461063814
C            0.06001049228140        1.41620250033770       -0.62968101052502
O            0.37758029697557        2.57261962293232       -0.90194878043315
N           -1.31876451665960        1.07499784765866       -0.32214140612186
C           -2.20506122836266        2.19990281811159        0.01672869292874
C           -1.88491474569175       -0.16420650976770       -0.15820526851587
O           -3.06876985391514       -0.35500973276511        0.02516745610312
N           -0.98515294035681       -1.24239717426040       -0.20864357355068
C           -1.28804978604174       -2.64496957300795        0.01780650211300
H            4.10915101028999        0.44979517842938        0.69131851149783
H            3.50076840103348        1.87824752026160       -0.36925404022716
H            2.77288352127847        1.60146920876723        1.30074415934914
H            3.43355591027836       -1.76541357797697       -0.03229327394053
H           -1.62304469879087        3.10757184228961       -0.12909040190084
H           -3.10871735568367        2.21181293862356       -0.61406097408329
H           -2.51628338301844        2.12742326922718        1.07966049169295
H           -0.89936033864475       -2.95638740951967        1.00773588581955
H           -0.78324834739870       -3.24179662704965       -0.75625780545984
H           -2.36022082960340       -2.83103038884048       -0.02899796408976
H            1.11975624232076       -2.84008128500552        0.24754815045955
25