25
 energy: 0.000000000000 xtb: 6.6.1 (8d0f1dd)
C            3.23720163006194        1.16630919979326        0.08434469647475
N            2.29877817382611        0.07527477071623        0.03981603040599
C            2.58028210190900       -1.21425402444508        0.03006176031096
N            1.43813958087363       -1.93419271955128        0.00098261760884
C            0.39035688448383       -1.05887472636071       -0.00790371836672
C            0.93510056364412        0.21347819449412        0.01709077491437
C            0.09450143893243        1.40504303904423       -0.00410947031874
O            0.49712751527797        2.54126714362870       -0.00342325688240
N           -1.25076640035757        1.06271879480407       -0.03085478223738
C           -2.21907211982101        2.15522099834493       -0.05001256985998
C           -1.81739487048744       -0.20012725993278       -0.04692818574614
O           -2.99983886758376       -0.37846417018721       -0.07008878229737
N           -0.92618586207120       -1.30210215599479       -0.03682761578324
C           -1.46982264913417       -2.64643102187190       -0.06029820460571
H            3.71247264356769        1.21471455160235        1.06488849150277
H            4.00791497605742        1.03430808813993       -0.67357694370751
H            2.69910007168542        2.09770118228144       -0.09130154882931
H            3.56654120610678       -1.63682992603973        0.04233140067262
H           -1.67107961066214        3.09322851271934       -0.02552706933167
H           -2.82428953597071        2.09428624779827       -0.95318082946668
H           -2.87644029173232        2.07745725625962        0.81450067533302
H           -1.17061996399332       -3.19584890659852        0.83242232437030
H           -1.14560257411436       -3.17511610292205       -0.95688275822323
H           -2.55549792440841       -2.55659984320617       -0.07459039797972
H            1.38130855184625       -2.94313852034425       -0.01389874181052
25
 energy: -5.398513689208 xtb: 6.6.1 (8d0f1dd)
C            3.24391995556196        1.17742703408120        0.08675500751014
N            2.30802561913033        0.09552513512564        0.03770963581304
C            2.59947905182614       -1.23263236652692        0.03004659961516
N            1.42734922336039       -1.94020029428771        0.00080233762587
C            0.39633348662088       -1.05604371545054       -0.00827775060817
C            0.93019557621576        0.22264346114612        0.01523662572481
C            0.10165544642583        1.39610049206151       -0.00527008879195
O            0.49829704731791        2.56195899477020       -0.00465468483134
N           -1.26037206038444        1.05072498112793       -0.03111198140013
C           -2.22055794409555        2.14689158001814       -0.04984952796100
C           -1.82366476775080       -0.20056917864653       -0.04730916141537
O           -3.02030757191938       -0.38295148812646       -0.07040912894940
N           -0.93420361532074       -1.30078283329988       -0.03705271946331
C           -1.47175724642679       -2.64286727719300       -0.06020005966149
H            3.72211337166880        1.22328184571361        1.06883663259535
H            4.01198842547126        1.04257942980362       -0.67623595725681
H            2.69719539791803        2.10209163893198       -0.08880349077136
H            3.57765398171963       -1.65901968427910        0.04268338821447
H           -1.65894280610647        3.07813022890288       -0.02535801452908
H           -2.82595972330766        2.09347331696915       -0.95424936197967
H           -2.87813479680977        2.07684487867474        0.81602081604122
H           -1.16819072437063       -3.19401780647935        0.83190688387194
H           -1.14314941640246       -3.17349132950541       -0.95598427466249
H           -2.55706644838202       -2.55215262673685       -0.07457144946103
H            1.36031520597600       -2.94391581462297       -0.01362637912210
25
 energy: -6.544943568299 xtb: 6.6.1 (8d0f1dd)
C            3.25425526050215        1.18723461389663        0.09040113369678
N            2.31851042266969        0.10825428461426        0.03369320184103
C            2.61130394909476       -1.25013924932781        0.02993972612176
N            1.41164977452234       -1.93860962355082        0.00096196376772
C            0.39968295832956       -1.04924368447359       -0.00947260716844
C            0.92823264454633        0.23277571499159        0.01149132365592
C            0.10752622847416        1.38370430861230       -0.00878862066406
O            0.48278836760827        2.56800437455095       -0.00915454793130
N           -1.27272308282459        1.03630961724747       -0.03224346159991
C           -2.22161945832787        2.13620138151701       -0.04954843120166
C           -1.82980571229861       -0.20329297952562       -0.04803824903655
O           -3.03177572824588       -0.39261869860987       -0.07042704509796
N           -0.94157391121344       -1.29601361113456       -0.03756954329947
C           -1.47206323312380       -2.63668052862916       -0.05987445460440
H            3.74254379602160        1.23861278527404        1.07021564568839
H            4.02094401570885        1.06544219556974       -0.67873382417020
H            2.69927029507328        2.10879489224723       -0.07848257797239
H            3.58107427687951       -1.68957710517115        0.04362018546316
H           -1.63411879382758        3.05225799565286       -0.02510865976102
H           -2.82835109849824        2.09327604396114       -0.95447221682262
H           -2.87936587605035        2.07685244645665        0.81789096130996
H           -1.16485309617425       -3.18898669445601        0.83162142265890
H           -1.13971617912520       -3.16927447621877       -0.95448397431459
H           -2.55747428902921       -2.54453016808748       -0.07441013975745
H            1.32787313724472       -2.93972523323495       -0.01199331465430
25
 energy: -5.972186277246 xtb: 6.6.1 (8d0f1dd)
C            3.26567753223640        1.19523111658571        0.09524938748519
N            2.32972217585712        0.11202548119646        0.02867067690718
C            2.61352581057398       -1.26530737204167        0.02899305688113
N            1.39635179531057       -1.93437858532988        0.00161176868349
C            0.39980842377092       -1.04088563582015       -0.01184877649898
C            0.93132067777640        0.24119332560729        0.00572721837151
C            0.10771766875741        1.37654608317105       -0.01670843120604
O            0.45569464999324        2.57083475641136       -0.02019565906462
N           -1.28480624849210        1.02307089903438       -0.03558632695865
C           -2.22129587770639        2.12692772450999       -0.04930243930951
C           -1.83730325358712       -0.21025043270921       -0.04958520930853
O           -3.03959067456853       -0.40905254590742       -0.06998923124376
N           -0.94494621379529       -1.29137211481283       -0.03872397674469
C           -1.46892059492850       -2.63158390811336       -0.05895800245138
H            3.77161325864943        1.25037785164652        1.06809392438483
H            4.02956604557497        1.10387369954636       -0.68336306137139
H            2.70302745672378        2.11717250305555       -0.05367904942190
H            3.57369888241061       -1.72673203960265        0.04529164535412
H           -1.60142381698651        3.02260571662039       -0.02547631543806
H           -2.83106840203601        2.09593029560331       -0.95307386771377
H           -2.87726182045750        2.07921579201885        0.82069083256794
H           -1.15976180556846       -3.18157880402902        0.83347058008977
H           -1.13444014833680       -3.16430351467068       -0.95289239996776
H           -2.55451688944660       -2.53652095094587       -0.07371857278595
H            1.28982603621116       -2.93401073885245       -0.00766387509291
25
 energy: 3.495606829949 xtb: 6.6.1 (8d0f1dd)
C            3.30274211665389        1.22082256930829        0.11569891419021
N            2.36870045841557        0.11812050961705        0.00924786704278
C            2.61257409637619       -1.31438960349451        0.02322266215163
N            1.34553357471044       -1.91903818475031        0.00452690089960
C            0.39725525894734       -1.00973762559759       -0.02251044443152
C            0.94655962257743        0.26919319978525       -0.01875317485506
C            0.10358771767088        1.35900352019672       -0.05410199854484
O            0.35695993217134        2.58075666266987       -0.07322394060768
N           -1.32452152960056        0.97964666605497       -0.05278340323079
C           -2.21727415215337        2.09990024441584       -0.04888570150129
C           -1.86476084365250       -0.23769039830605       -0.05709754340498
O           -3.06508267626836       -0.47060139195589       -0.06745275598961
N           -0.95223762034669       -1.27673198962809       -0.04435700612428
C           -1.45154400702879       -2.61806319465630       -0.05407448267723
H            3.88324357257752        1.26815281409212        1.05725050696876
H            4.04643755227447        1.25766323611294       -0.70821756413211
H            2.70977556393163        2.14665915496948        0.06508186957579
H            3.53569069957654       -1.86048653869506        0.05272828805965
H           -1.48695625568114        2.92403767328059       -0.02932738869045
H           -2.84178842214729        2.11194989980370       -0.94497220841789
H           -2.86173361606537        2.09257004234135        0.83310678961417
H           -1.13659153284050       -3.15492089653445        0.84423907168587
H           -1.11056413146931       -3.15057441634404       -0.94551378041114
H           -2.53778844429674       -2.51423911014612       -0.06974363030069
H            1.15399773360351       -2.91297424036767        0.01294604927837
25
 energy: 26.149987181065 xtb: 6.6.1 (8d0f1dd)
C            3.33672222836206        1.24670670745011        0.14158202977735
N            2.40803473390097        0.12228474505919       -0.01425130165084
C            2.60714412086539       -1.36428177326538        0.01556111633922
N            1.29348259844718       -1.90125144570210        0.00877524617861
C            0.39306645328333       -0.97437631851489       -0.03649191828591
C            0.96397236245747        0.29970760454825       -0.04986213776913
C            0.10092248212387        1.34596247143390       -0.10417911051367
O            0.25529149021358        2.58963963695165       -0.14421090447686
N           -1.36556552195799        0.93768019861399       -0.07702778333342
C           -2.21081813557379        2.07567942651752       -0.04836654554949
C           -1.89407909652223       -0.26624284317974       -0.06737521287735
O           -3.09004424856177       -0.53641250651327       -0.06377353478357
N           -0.95736860438512       -1.26074258470525       -0.05246658418811
C           -1.42712846493892       -2.60573356706257       -0.04732882143507
H            4.00818217963925        1.25928349287237        1.04289453318281
H            4.04241695304871        1.42862231659857       -0.74205869473314
H            2.71231868541147        2.17923319813519        0.22185338084784
H            3.48795683007548       -2.00150394235146        0.06224810703763
H           -1.37264073122350        2.82471684694775       -0.03527393708145
H           -2.85254791736681        2.13058794287271       -0.93338869424508
H           -2.83554552906074        2.10498104193552        0.84999976368627
H           -1.10558972563118       -3.12417389412000        0.85934360264871
H           -1.07900868725965       -3.13863996793603       -0.93518910845884
H           -2.51446906548255       -2.49578006829945       -0.06395250603776
H            1.00750927807152       -2.88691811611450        0.03997291186851
25
 energy: 30.098279715951 xtb: 6.6.1 (8d0f1dd)
C            3.33541731198315        1.25227332019598        0.15728611767495
N            2.41870659793742        0.11371471720739       -0.02949650495955
C            2.59175920931923       -1.37534572969530        0.01482151606715
N            1.28444686928909       -1.88924355509884        0.01525900900012
C            0.38821704507686       -0.95601234675404       -0.04699909303740
C            0.97770777311874        0.31168577614895       -0.07225257595465
C            0.10939462169632        1.35956687429265       -0.14283898590909
O            0.23110170113753        2.58308777035583       -0.19789204040071
N           -1.37694280844984        0.93732413237675       -0.09680618192702
C           -2.20629080076328        2.07801857447115       -0.04545587317430
C           -1.90342407588781       -0.27482848376862       -0.07503128280448
O           -3.08812174956844       -0.56274340121534       -0.06039059086699
N           -0.94888134310173       -1.25285340772240       -0.06043867982117
C           -1.40417805272222       -2.60474277041453       -0.04338441671273
H            4.05540714053936        1.20400617694534        1.02877630887090
H            3.99455081624898        1.48999652587282       -0.75908731749061
H            2.71208253598482        2.19101597008703        0.32381816541711
H            3.44970267794162       -2.04788150068745        0.07002396904205
H           -1.36544739265263        2.80568468910419       -0.03656987146473
H           -2.85258816982000        2.13609194138339       -0.92130683366252
H           -2.80777473576734        2.09696636014862        0.86387350700410
H           -1.08356013341784       -3.10727735196402        0.87090354671144
H           -1.05698600031235       -3.13745485511846       -0.92930456789539
H           -2.49335381194857       -2.49669014649938       -0.06006603358277
H            0.95126944207487       -2.86533067747956        0.05959260602355
25
 energy: 24.969386313450 xtb: 6.6.1 (8d0f1dd)
C            3.31118057850786        1.23820268904180        0.18557141453305
N            2.41581915588831        0.07793779166893       -0.04957309785473
C            2.54608882015304       -1.35576547795999        0.02310058730622
N            1.30932991634833       -1.87706060609798        0.03273156935560
C            0.37451141585351       -0.93644390934567       -0.06861947164745
C            1.00618589536880        0.30994608178079       -0.11410408863147
C            0.13614317295092        1.40960803682052       -0.22185442586607
O            0.26429531967713        2.56496241448735       -0.32366708131224
N           -1.36743843685639        0.96321817475068       -0.14033546488754
C           -2.20595808284715        2.10624823476449       -0.03100668030127
C           -1.91025312562248       -0.27739513197864       -0.09175224489218
O           -3.07104350639774       -0.57991442396565       -0.05093233534795
N           -0.92010572863032       -1.25089079033137       -0.08169884176991
C           -1.35976134604780       -2.61936965978637       -0.03823471531542
H            4.08869093553495        1.06732342833108        0.98407825304729
H            3.86897221370229        1.54009597303511       -0.74689643401251
H            2.72263322268688        2.15768816501501        0.48443874608512
H            3.36858057907529       -2.05057741107708        0.08227835674899
H           -1.45505992291458        2.84565223366471       -0.02911183907368
H           -2.86411967002475        2.16631164561601       -0.88689734937991
H           -2.75984097204299        2.07946275761096        0.89985972161321
H           -1.04412973706429       -3.08886908224336        0.89209011824778
H           -1.01728985152776       -3.15206571083493       -0.92080389224140
H           -2.45192839879289       -2.52780306647451       -0.05371857239920
H            0.92671222095763       -2.82147375431972        0.09209166414295
25
 energy: 41.207501153325 xtb: 6.6.1 (8d0f1dd)
C            3.31811495585773        1.23772840089836        0.22327809350638
N            2.43622002124506        0.06258403659682       -0.07573476782973
C            2.52300271392053       -1.36928314720650        0.02485744098212
N            1.28787382018414       -1.86052846816457        0.04451487072754
C            0.36476148465031       -0.90478540623452       -0.08975119128332
C            1.02871136535820        0.32815158899181       -0.16019669049365
C            0.14758560685231        1.42755343058226       -0.30167276452156
O            0.21940829356746        2.58215811929097       -0.48414515853418
N           -1.38293814104967        0.95572216120375       -0.18256796658507
C           -2.20184870199886        2.11107135135297       -0.01871931188956
C           -1.92913144743869       -0.29117360856474       -0.10995336522533
O           -3.07753631945974       -0.62039823249047       -0.03982779664767
N           -0.91281330289931       -1.24245567282703       -0.10178490744670
C           -1.31888119419062       -2.62497414630041       -0.03223056858389
H            4.18412247738254        0.96015983984263        0.95001612116654
H            3.78299035337210        1.67234244339188       -0.76085389990684
H            2.72435549562533        2.14341420240277        0.69606820741011
H            3.30366901592434       -2.12421413223487        0.09753748784111
H           -1.43685415347203        2.83043919917114       -0.02723773940641
H           -2.88825542118238        2.20014234139405       -0.84912819251983
H           -2.71109381380596        2.07432575645453        0.93804092853660
H           -0.99940262095957       -3.06252877996203        0.91351079671596
H           -0.96716026241134       -3.16273244617392       -0.90659803373959
H           -2.41280816307783       -2.55000371344881       -0.05057976619026
H            0.83012260594162       -2.78368651579383        0.13019207006448
25
 energy: 38.823228546038 xtb: 6.6.1 (8d0f1dd)
C            3.33171275243326        1.20866156492013        0.25109859882982
N            2.44475514137757        0.04928104960194       -0.08456477881652
C            2.52319375449330       -1.32919296667569        0.03861215634472
N            1.27940931526383       -1.87119374433072        0.04798513516248
C            0.35811848351478       -0.89552722081639       -0.10141270166969
C            1.03945020107000        0.31723031414623       -0.19004952301523
C            0.13139455256084        1.42223494367389       -0.31784745035931
O            0.21430050793508        2.67604043455985       -0.67907458725107
N           -1.35683860585301        0.94664020302263       -0.20350968133619
C           -2.20460800966366        2.11727833051765       -0.00035834882402
C           -1.93581805837183       -0.29109542077607       -0.12869765952931
O           -3.09638971708050       -0.61524703824990       -0.02734704096897
N           -0.92413232792847       -1.26243245729653       -0.12404406116231
C           -1.30380701926381       -2.65091288228205       -0.03344311437064
H            4.21053430662819        0.88566554147423        0.88626297114668
H            3.70669665469231        1.75024264591273       -0.71168933777310
H            2.73782633984480        2.02543086573637        0.83230408710650
H            3.27947602368282       -2.10027574696860        0.10462720262960
H           -1.43317875414720        2.90723021839927       -0.02252977664325
H           -2.93250910357186        2.25548675811174       -0.80339291797030
H           -2.68997189607390        2.08220834068513        0.97266511958582
H           -0.97360726398254       -3.06693214316993        0.92285857618745
H           -0.92966783109577       -3.19863068227077       -0.89852033631125
H           -2.39132392203579       -2.60550193090187       -0.05524257144171
H            0.82719914350716       -2.76766037485099        0.15234393659709
25
 energy: 38.875392659364 xtb: 6.6.1 (8d0f1dd)
C            3.32299686203022        1.19257449959113        0.28760550672419
N            2.43495911500648        0.04901033741176       -0.10195478273042
C            2.50503248330214       -1.31538593600757        0.06084770686407
N            1.26077062464344       -1.85542051042529        0.05348918822424
C            0.34922054546784       -0.87579926372449       -0.13504002721704
C            1.03129607407389        0.33080117651701       -0.26888503223375
C            0.12459044969407        1.42875072605855       -0.45508861002853
O            0.23109633848289        2.65345769893278       -0.78379700847645
N           -1.35648072608578        0.95859699325615       -0.25719594823281
C           -2.20185780000714        2.12686308748824        0.02491708317392
C           -1.93737659599960       -0.27886785180793       -0.15789200159191
O           -3.09566707127238       -0.60833368075116       -0.01554151179381
N           -0.92980194554997       -1.25614972286542       -0.15918210241676
C           -1.27199114514987       -2.65779711395794       -0.02804303992853
H            4.25751099860576        0.80106854620941        0.83980366870304
H            3.62164838182079        1.81569981628313       -0.66923999769348
H            2.75131310685361        1.96328772095211        0.98068577367003
H            3.24472051778225       -2.10416799895567        0.12672011517549
H           -1.43972418928225        2.92821490653981       -0.01098645022945
H           -2.97294735260976        2.29196628677955       -0.74138016141916
H           -2.64145678171483        2.06652863482722        1.02702496221553
H           -0.92384737011904       -3.04513153905520        0.93958924609089
H           -0.87743236511219       -3.22410800842229       -0.87597676023580
H           -2.36018126216324       -2.65617941236170       -0.04887270140884
H            0.78582377523810       -2.74045079033989        0.19542678094262
25
 energy: 23.574748516043 xtb: 6.6.1 (8d0f1dd)
C            3.30267602070044        1.16784789499810        0.31145230192567
N            2.38813856718011        0.09127521328514       -0.11613636068651
C            2.50297073147937       -1.28277845329305        0.11154804549908
N            1.23086224775752       -1.84072386046727        0.04725916029534
C            0.35330710216192       -0.87447289725259       -0.17017700083654
C            0.97021337721980        0.34757126258144       -0.36657180121889
C            0.07077739221833        1.40461097661263       -0.63420679924407
O            0.30754596527231        2.56722320806608       -0.77883037818155
N           -1.34198910523517        0.98450436082941       -0.29870968021341
C           -2.19195290114383        2.12475099673395        0.05141300429881
C           -1.90826251302615       -0.23617049521108       -0.17602921895535
O           -3.08158944359345       -0.54530720918644       -0.01167261071742
N           -0.95504578704823       -1.25079438018619       -0.20269673689659
C           -1.26002201894715       -2.64887536159108       -0.02425509251298
H            4.24164906192082        0.77687600756110        0.75501761042027
H            3.54879014012738        1.81464721131964       -0.55247541128475
H            2.80038682855117        1.83749243196310        1.03901808618500
H            3.25878048577052       -2.04620725110978        0.13476143105605
H           -1.46887581913939        2.96792722163521        0.01057365173099
H           -3.00212324136049        2.30848688528993       -0.66879187439715
H           -2.60528045000597        2.03679777730580        1.06755398175759
H           -0.88164121380555       -3.02575942543318        0.94275957755728
H           -0.83423142736838       -3.24604779690829       -0.84788497900443
H           -2.34247276994179       -2.71186495481596       -0.03594177496072
H            0.80960343819125       -2.73198076055427        0.24005676453156
25
 energy: 24.111004529546 xtb: 6.6.1 (8d0f1dd)
C            3.27504449960047        1.13827122258264        0.34132866430621
N            2.36294810488797        0.09083861379486       -0.15450618418702
C            2.48398313086395       -1.26147351056010        0.14996450176769
N            1.23338734587218       -1.83227608439256        0.06154245874717
C            0.34647119431605       -0.87659398910453       -0.21100635502254
C            0.95288634805348        0.34455031814399       -0.42732398670757
C            0.05186828954589        1.41117408872404       -0.72787927299008
O            0.31102896628775        2.56184223382649       -0.96579043232078
N           -1.33427279459965        1.00717148189114       -0.34292619055665
C           -2.16798363240132        2.14359992332100        0.07591182544040
C           -1.90288043517249       -0.22005672141009       -0.19699212369673
O           -3.06866957385635       -0.50589819169953       -0.01181585991785
N           -0.95964999949963       -1.25075579662419       -0.25396420100095
C           -1.23836534522912       -2.65241476928805       -0.02493308694651
H            4.26101890345161        0.65882634646861        0.67388186536928
H            3.42989066077435        1.89232302915769       -0.49659875346186
H            2.81473716396439        1.73989246255840        1.23046268849010
H            3.24222328916636       -2.00512079584497        0.14270653902934
H           -1.49380163020432        3.00603655989072        0.03791816126487
H           -3.02290941300739        2.33994168519401       -0.59011984766555
H           -2.53243354480079        2.00472895801205        1.11065973419933
H           -0.84546568037011       -2.99164578497768        0.95482676725828
H           -0.79045504475617       -3.26905631182521       -0.82392730748200
H           -2.31968093155166       -2.77027429444087       -0.03144997053925
H            0.82329479659980       -2.71460207122551        0.30706426276993
25
 energy: 19.492461327572 xtb: 6.6.1 (8d0f1dd)
C            3.23852158249612        1.11117690344406        0.36327615733306
N            2.33100953339449        0.09871464323765       -0.19142038608041
C            2.46974220251050       -1.23591013818893        0.19911865676346
N            1.24629747476305       -1.83129293752237        0.07213993832810
C            0.34150221641792       -0.89906533685980       -0.25775104351705
C            0.93036919585252        0.32371453039824       -0.46247350850454
C            0.02169791982174        1.40311296537906       -0.76748173583338
O            0.31820034248073        2.56339689500160       -1.13627077879040
N           -1.32123199889876        1.03500833235408       -0.37539972267226
C           -2.14056172461655        2.15957269848145        0.09997604459973
C           -1.89261780205045       -0.20183096344847       -0.21990441892052
O           -3.05790947568125       -0.44292149031649       -0.00473662925971
N           -0.96506084495583       -1.25414443072018       -0.31450830914058
C           -1.23326459102600       -2.64964441019740       -0.03215108345881
H            4.22444377590332        0.59768959417943        0.58984203737500
H            3.33464899857909        1.94432859826486       -0.40074827846284
H            2.84185467249995        1.61456309242413        1.33569700804875
H            3.25899186323771       -1.94448609703912        0.12705446820882
H           -1.51140505220749        3.03812800673011        0.07094883103988
H           -3.03267814026118        2.35202221119937       -0.51072630855448
H           -2.46362054526158        1.97018408853558        1.14233845025945
H           -0.83010768631680       -2.95189376136260        0.95660720936315
H           -0.76522489330769       -3.27818122031679       -0.80529905852650
H           -2.30775603689794       -2.81552284608717       -0.03082164289252
H            0.87637368145961       -2.71769032539786        0.37972799944186
25
 energy: 17.208315355640 xtb: 6.6.1 (8d0f1dd)
C            3.19825656036361        1.09654075599798        0.38667911519593
N            2.30508738084199        0.11459815698486       -0.21612796852666
C            2.45773908820391       -1.21546618527075        0.25593900373549
N            1.25167459798014       -1.82900029497108        0.08809620280477
C            0.33772306525348       -0.92451631946673       -0.30230275642672
C            0.91337839373145        0.30781586544487       -0.51120002857305
C            0.00060697825977        1.38890249883646       -0.85173210650425
O            0.30853505533083        2.52686339457139       -1.25165432821177
N           -1.31409313094010        1.05611979005396       -0.41976186002059
C           -2.10976517811699        2.16965904000916        0.12932795976432
C           -1.88222280252729       -0.18843191068541       -0.25441530932041
O           -3.04926541130992       -0.38812357787190        0.00980070790783
N           -0.97349099015325       -1.25587900190919       -0.37812356470538
C           -1.23639367624113       -2.64124272485238       -0.04077629615372
H            4.17967131955165        0.57017914249550        0.51030227326176
H            3.24759856087946        1.98727993854887       -0.29542095232635
H            2.85743093988461        1.49089842932742        1.41399362609942
H            3.28720368751069       -1.88343541304287        0.09946624173295
H           -1.50005315841339        3.05178698790671        0.10309545000296
H           -3.04170942024686        2.35881392898318       -0.42379399897760
H           -2.38126409367664        1.93684159807983        1.18066851581040
H           -0.83026244317155       -2.89618915706212        0.96134340985827
H           -0.74438877566240       -3.28413629734708       -0.78437655435806
H           -2.30138908284853       -2.84352911343772       -0.03590277105727
H            0.93160720345162       -2.71732092915054        0.45390988513497
25