25
 energy: -42.494044190606 xtb: 6.6.1 (8d0f1dd)
C            3.20613236456371        1.45142214133233        0.16635550607060
N            2.52365080413955        0.18900598933471       -0.01746922091593
C            2.92250242699179       -1.07411798225475        0.11839287077344
N            1.84380759848130       -1.90963798699419        0.07431374166101
C            0.68382119430134       -1.16362853002295       -0.08360845985551
C            1.16633821717884        0.15212877278683       -0.17730069682696
C            0.29958391378011        1.28660111134902       -0.23087220624012
O            0.64298096214159        2.46096188485632       -0.30487665963453
N           -0.99894405835399        0.89580561027447       -0.12826279420609
C           -2.00426884558996        1.93594977001443       -0.04843532146181
C           -1.46097371748026       -0.42553557481334        0.01939574367723
O           -2.65228491740238       -0.45120005848411        0.25395595277176
N           -0.60235676067402       -1.49365482577112       -0.05347819445474
C           -2.94098964585464       -2.99172062263761       -0.17163967462557
H            4.06396039842711        1.34272815351886        0.82518555578048
H            3.55717962105743        1.86352274945147       -0.78610884722024
H            2.48893029967854        2.15932689918347        0.60294141119229
H            3.93767082372229       -1.40880962981715        0.18437323778811
H           -1.45250336276984        2.87136358616042       -0.08145010451474
H           -2.69165843040472        1.82901237600076       -0.88368466868634
H           -2.56262317937983        1.84124712129274        0.88192015021499
H           -2.74303820674571       -3.43204035252687        0.77000857178758
H           -2.69811519158162       -3.44112648994707       -1.09530662613240
H           -3.31843124989185       -2.00357138329476       -0.17229048966577
H            1.89893312960853       -2.91307115472984        0.16529541325667
