25
 energy: 0.000000000000 xtb: 6.6.1 (8d0f1dd)
C            3.23720132972391        1.16630909158653        0.08434468864950
N            2.29877796055224        0.07527476373246        0.03981602671198
C            2.58028186251803       -1.21425391179017        0.03006175752192
N            1.43813944744728       -1.93419254010258        0.00098261751768
C            0.39035684826767       -1.05887462812143       -0.00790371763344
C            0.93510047688824        0.21347817468824        0.01709077332874
C            0.09450143016486        1.40504290868848       -0.00410946993748
O            0.49712746915594        2.54126690785742       -0.00342325656480
N           -1.25076628431515        1.06271869620815       -0.03085477937476
C           -2.21907191394203        2.15522079838987       -0.05001256521996
C           -1.81739470187490       -0.20012724136556       -0.04692818139228
O           -2.99983858926755       -0.37846413507442       -0.07008877579474
N           -0.92618577614240       -1.30210203518959       -0.03682761236648
C           -1.46982251276835       -2.64643077634382       -0.06029819901142
H            3.71247229913541        1.21471443890471        1.06488839270555
H            4.00791460421487        1.03430799217987       -0.67357688121503
H            2.69909982127087        2.09770098766290       -0.09130154035862
H            3.56654087521359       -1.63682977417947        0.04233139674524
H           -1.67107945562430        3.09322822573871       -0.02552706696334
H           -2.82428927394145        2.09428605349656       -0.95318074103337
H           -2.87644002486466        2.07745706351925        0.81450059976605
H           -1.17061985538665       -3.19584861009707        0.83242224714061
H           -1.14560246782873       -3.17511580834413       -0.95688266944647
H           -2.55549768731684       -2.55659960601237       -0.07459039105944
H            1.38130842369251       -2.94313824728853       -0.01389874052104
25
 energy: -5.879655834445 xtb: 6.6.1 (8d0f1dd)
C            3.24893944339150        1.21027011930320        0.09825938543695
N            2.33204166431822        0.11239391456076        0.02304289999983
C            2.63319350372883       -1.24041177219734        0.03980579307542
N            1.44741093533337       -1.93773056914884        0.01256617941166
C            0.41752360591670       -1.07289979864064       -0.01086073994948
C            0.93798143438262        0.22111673157243       -0.00036339962269
C            0.12411359134501        1.37018977006280       -0.01699618942692
O            0.47015066166508        2.55586817684144       -0.01963563549437
N           -1.26446675018015        1.02064953838853       -0.03501985495042
C           -2.21435533920503        2.11826737870232       -0.04940554479042
C           -1.80681138660654       -0.22212305129186       -0.04936153488961
O           -3.00747275969825       -0.41378716532662       -0.07019241268447
N           -0.92731894391639       -1.32512905211170       -0.03819565238206
C           -1.54920338842357       -2.63257629491383       -0.06071154172075
H            3.75889445335112        1.24274068935624        1.06705757087227
H            4.00651537632888        1.14575331214556       -0.68833954563605
H            2.67849742517104        2.13303445343850       -0.02004967064271
H            3.60482918329036       -1.67500193887903        0.04559965174449
H           -1.64141685096237        3.04381168851304       -0.02705683460140
H           -2.82225559350824        2.06522475820370       -0.95204180905318
H           -2.86536100859230        2.04876548723242        0.82109465932317
H           -1.30934465001531       -3.21281276872325        0.83195425755089
H           -1.28357061261766       -3.19334014293292       -0.95870100470946
H           -2.62331753742601       -2.45402978208459       -0.07466073694941
H            1.38433904560218       -2.94093537596137        0.01708676643352
25
 energy: -3.048378996712 xtb: 6.6.1 (8d0f1dd)
C            3.24745685896874        1.24296525852471        0.10681853202327
N            2.35733161799856        0.11615716940767        0.01401390083259
C            2.67112786352879       -1.23719754709262        0.04437952097808
N            1.49145793288537       -1.94659067117506        0.02356021674251
C            0.44157348844115       -1.10437110192643       -0.01484095988560
C            0.95699523464426        0.19877758862000       -0.01731077824110
C            0.13603721854504        1.34185279575790       -0.03610790636779
O            0.46125490725583        2.53335583064716       -0.04837274470829
N           -1.24934476858850        0.98660068038666       -0.04125774023752
C           -2.19669817337379        2.08631351318044       -0.04932350096992
C           -1.78471754475243       -0.25566772129052       -0.05159734493454
O           -2.98761366538057       -0.43960504368974       -0.06706478279691
N           -0.91170705998015       -1.36949513784993       -0.04066090045432
C           -1.62139416675153       -2.64376860845745       -0.06108745237167
H            3.79595200149910        1.25981738471485        1.05532546844646
H            3.98233691044610        1.25018414213974       -0.70620459692571
H            2.64589651382232        2.15437623744859        0.05297758606990
H            3.64244172488617       -1.67909288798578        0.05774237333029
H           -1.61800705637875        3.00896654095005       -0.03115548371699
H           -2.80776682776742        2.03414063867551       -0.94861991461655
H           -2.83732649934710        2.02113051274489        0.82796203507211
H           -1.44837741792539       -3.24156912277615        0.83356378348180
H           -1.42202231670525       -3.22505615818187       -0.96129422837145
H           -2.67658876106053       -2.37169342884646       -0.07460005410563
H            1.44571200610433       -2.95045874429773        0.04647584864950
25
 energy: 1.514232752144 xtb: 6.6.1 (8d0f1dd)
C            3.24187351864002        1.27376996300544        0.11533593905799
N            2.37853197010025        0.11952005886173        0.00569268813366
C            2.70478703642521       -1.23212740180762        0.04639094744483
N            1.53151785499464       -1.95578929411692        0.03281948399141
C            0.45904143098354       -1.13738226197718       -0.01981799342716
C            0.97344633204563        0.17361740187740       -0.03317309568856
C            0.15484499101763        1.31630200613559       -0.05989898751777
O            0.47360649888757        2.50914184176403       -0.08869325294162
N           -1.22569387242214        0.96373108930730       -0.04889680795434
C           -2.16977103423027        2.06587895504608       -0.04807554773729
C           -1.76188291615040       -0.27438893305753       -0.05383895270394
O           -2.97060183613072       -0.42219548146242       -0.06023950983307
N           -0.90605583855698       -1.40781191645228       -0.04475800968299
C           -1.70115640985198       -2.64668234587832       -0.06360599815850
H            3.83399036673369        1.27457145724792        1.03814026677685
H            3.94526885133704        1.35208518920887       -0.72421249025118
H            2.61144167008830        2.16904140618552        0.12850858835155
H            3.68127201017373       -1.66532179838734        0.07923034443217
H           -1.58555148963297        2.98450203900944       -0.03365693241863
H           -2.78462809243275        2.01946382805371       -0.94342267332770
H           -2.80106601684405        2.00507504029260        0.83540062775581
H           -1.59117413798001       -3.25922765890367        0.83087941982617
H           -1.56397991151546       -3.24730662458384       -0.96206633339514
H           -2.73059292973858       -2.28919867054999       -0.07630355830102
H            1.50925339474605       -2.96045655058370        0.06658234855775
25
 energy: 7.715647178704 xtb: 6.6.1 (8d0f1dd)
C            3.23229685348120        1.30519826482199        0.12314617082695
N            2.39438919416996        0.12781554109301       -0.00654475735105
C            2.73131184142458       -1.21712018179334        0.05868082086473
N            1.56877487704103       -1.95907515079671        0.04357542169808
C            0.47471712829817       -1.16483838763903       -0.02779562664618
C            0.98568580884326        0.15496716487377       -0.05561189593358
C            0.17537178495706        1.30128255376180       -0.09058558658369
O            0.49306613281644        2.49378803563346       -0.13898947093927
N           -1.19981170581110        0.94749400273705       -0.05843439467950
C           -2.14410839496570        2.04829153032965       -0.04855830565298
C           -1.73703588623764       -0.28754083997701       -0.05383126532141
O           -2.95077229651753       -0.39751898006435       -0.04644177649087
N           -0.90350089591563       -1.44201086859844       -0.04957576700008
C           -1.78092818717325       -2.64507069148137       -0.06768240462799
H            3.87246711221521        1.28694105126912        1.01370200001462
H            3.89510628635833        1.45384345021469       -0.74197791272440
H            2.57650055010407        2.17903709326079        0.20794577739080
H            3.71484828189203       -1.63299843144343        0.08497956692165
H           -1.55636088555200        2.96400518925452       -0.04390881218050
H           -2.76931820202850        1.99523329094462       -0.93538920272126
H           -2.76204169678784        1.99445290189270        0.84408147331512
H           -1.73147536554729       -3.27039394012523        0.82469500371704
H           -1.70323867304998       -3.26178360862132       -0.96301072376900
H           -2.78295256574530       -2.21327430919546       -0.07904957302787
H            1.57137963634795       -2.96385287378986        0.08866465202684
25
 energy: 15.067192217892 xtb: 6.6.1 (8d0f1dd)
C            3.21690436754473        1.33490810611286        0.12875921367407
N            2.40222059995936        0.13979192689994       -0.02471398712234
C            2.74603112167266       -1.19544803079316        0.06881205784026
N            1.59818924644092       -1.95770545416463        0.04856578578506
C            0.48493546169806       -1.18574589247730       -0.04444300493051
C            0.99222576405693        0.14314100770259       -0.08717141509159
C            0.19775424652866        1.29735613705405       -0.11713160398755
O            0.52042099369692        2.49088279612912       -0.16301093921669
N           -1.17189264959380        0.94257934939390       -0.07420166118476
C           -2.12051093256001        2.03680708310405       -0.04909882429024
C           -1.71311007780517       -0.28912549609490       -0.05219860922149
O           -2.93083610615022       -0.36169110412420       -0.01635055007073
N           -0.90890391539380       -1.46685672752723       -0.06253522645977
C           -1.86207618716816       -2.63481107728666       -0.08072042572030
H            3.91346166078803        1.28152315756658        0.97369495949067
H            3.82583781781730        1.55385656783165       -0.76182510693809
H            2.54612429412823        2.18639846946268        0.29715331434249
H            3.73727472865837       -1.58914544152705        0.08508396347535
H           -1.53235666264968        2.95108259179217       -0.05129060587242
H           -2.75804919138209        1.97381183236102       -0.92641808330984
H           -2.72539740631114        1.97624080336797        0.85223725530248
H           -1.86790287779614       -3.26363492858460        0.81092260250512
H           -1.84229490547675       -3.25880327501696       -0.97376179157176
H           -2.83072041721267       -2.13177817458933       -0.08703363416000
H            1.62980909997802       -2.96230804011326        0.09752105705922
25
 energy: 23.434633954182 xtb: 6.6.1 (8d0f1dd)
C            3.20024810081652        1.34565974441462        0.12665169648263
N            2.40808742440236        0.13854137125812       -0.05082890255205
C            2.76002174797984       -1.18785152094763        0.07444143007426
N            1.62344610902505       -1.96427408223684        0.05489884895616
C            0.49324280298425       -1.21312642122017       -0.06347047787661
C            0.99780707798262        0.12249654635868       -0.12073951212443
C            0.21728178707705        1.28375523882526       -0.14019715119536
O            0.54642842134131        2.47721219832693       -0.18605672005216
N           -1.14834326082474        0.93030607422735       -0.08722511616185
C           -2.09712664921161        2.02308033578497       -0.04855024797831
C           -1.69346525310725       -0.29802834717729       -0.04045407536988
O           -2.91191455387151       -0.34001630965009        0.04292234426019
N           -0.91737891638922       -1.49580627367545       -0.08114479094468
C           -1.94122301454799       -2.63284340684214       -0.09670669915764
H            3.93180638133222        1.26698200317250        0.93691609465320
H            3.76107725495812        1.64230205719672       -0.77521164963116
H            2.51341206401661        2.16233580849362        0.36071264691325
H            3.75869015379126       -1.56701224897009        0.09798730723512
H           -1.50697351543130        2.93488346558729       -0.05555677073499
H           -2.74359314335531        1.95308360887045       -0.91908276429924
H           -2.69392408031912        1.95365488516524        0.85812385557522
H           -2.00147620706653       -3.25986900581147        0.79574790147820
H           -1.97527114767338       -3.26076187212315       -0.98575722210364
H           -2.87565120556027       -2.06758725860890       -0.09858814980307
H            1.68174347942024       -2.96773030735521        0.10830926738910
25
 energy: 52.913932342068 xtb: 6.6.1 (8d0f1dd)
C            3.21577235696625        1.38829836673357        0.14186171763372
N            2.46453878891117        0.16080310635709       -0.03461198613545
C            2.83205461585998       -1.12328846932678        0.07423840440957
N            1.72278099006955       -1.92561557947919        0.04837963648637
C            0.58331433795531       -1.14910601112102       -0.07162090472208
C            1.09337251095244        0.15950507409776       -0.14733480927761
C            0.25305358869805        1.31257387827593       -0.17112733710146
O            0.59778950454761        2.48911226959890       -0.22301440282827
N           -1.06063502370007        0.93934787154511       -0.09992695802433
C           -2.05208363158707        1.99402064822998       -0.04956502640922
C           -1.56005747455899       -0.36277781652347       -0.01814243429145
O           -2.76979434862458       -0.37428194776333        0.12355775814440
N           -0.72104355926426       -1.45377790169377       -0.06232768092607
C           -2.54094146261219       -2.93424321613644       -0.12360640371452
H            3.97367904157271        1.28153093258807        0.91533174377316
H            3.71200548037160        1.71049091298868       -0.77845377740839
H            2.50777693646264        2.17292725946006        0.43358737243430
H            3.83492135126544       -1.49545861351603        0.13738813690896
H           -1.49468008812343        2.92539865977858       -0.06241915912332
H           -2.71135855657006        1.90008888068390       -0.90878946389394
H           -2.63882178129628        1.90518523399649        0.86280549267916
H           -2.36909187031304       -3.40702011952800        0.81050481756152
H           -2.33366735436715       -3.40490285453506       -1.04859111050217
H           -3.11869219259303       -2.04897541326882       -0.12201032963045
H            1.75498356953575       -2.92971449105116        0.12997868830153
25
 energy: 53.937944305468 xtb: 6.6.1 (8d0f1dd)
C            3.21184999220191        1.41385917321942        0.15950398810599
N            2.49262524865415        0.17089886850594       -0.02201477875085
C            2.87520609952686       -1.10180407811423        0.09817275734440
N            1.78187055546353       -1.92024108101607        0.05818275595077
C            0.63131233731972       -1.15720970101006       -0.08107659858378
C            1.13022764804015        0.15405123148918       -0.16530908038070
C            0.27814198493550        1.29994705979861       -0.19944407346256
O            0.62472131990945        2.47482226099892       -0.25583749656729
N           -1.02692359625667        0.91950062703801       -0.11512048996800
C           -2.02617802958647        1.96625157498255       -0.04897325680524
C           -1.50947284775827       -0.39285671218629        0.00369462760731
O           -2.71066840559218       -0.40295363269643        0.19683886284784
N           -0.66269654506812       -1.47356239146122       -0.05741982300424
C           -2.76267681879802       -2.96975178813384       -0.14946552056053
H            4.02302572130325        1.30442782253932        0.87748253883117
H            3.63633227921726        1.76303354962370       -0.78325247426368
H            2.49622285720651        2.16788316379332        0.51504037594270
H            3.88509967592509       -1.45448703911619        0.16349963268091
H           -1.47251816371401        2.89999660222079       -0.07000144322209
H           -2.69893581113145        1.86531478813911       -0.89701939120525
H           -2.59969919615806        1.87308646144949        0.87177371008042
H           -2.55923596281138       -3.41914324171637        0.78831510045907
H           -2.51720365168918       -3.41544955970155       -1.07525852278247
H           -3.21526196166464       -2.01350740895236       -0.14301810527352
H            1.82553877591795       -2.92383297824636        0.14698867039039
25
 energy: 54.170702115741 xtb: 6.6.1 (8d0f1dd)
C            3.20613236456371        1.45142214133233        0.16635550607060
N            2.52365080413955        0.18900598933471       -0.01746922091593
C            2.92250242699179       -1.07411798225475        0.11839287077344
N            1.84380759848130       -1.90963798699419        0.07431374166101
C            0.68382119430134       -1.16362853002295       -0.08360845985551
C            1.16633821717884        0.15212877278683       -0.17730069682696
C            0.29958391378011        1.28660111134902       -0.23087220624012
O            0.64298096214159        2.46096188485632       -0.30487665963453
N           -0.99894405835399        0.89580561027447       -0.12826279420609
C           -2.00426884558996        1.93594977001443       -0.04843532146181
C           -1.46097371748026       -0.42553557481334        0.01939574367723
O           -2.65228491740238       -0.45120005848411        0.25395595277176
N           -0.60235676067402       -1.49365482577112       -0.05347819445474
C           -2.94098964585464       -2.99172062263761       -0.17163967462557
H            4.06396039842711        1.34272815351886        0.82518555578048
H            3.55717962105743        1.86352274945147       -0.78610884722024
H            2.48893029967854        2.15932689918347        0.60294141119229
H            3.93767082372229       -1.40880962981715        0.18437323778811
H           -1.45250336276984        2.87136358616042       -0.08145010451474
H           -2.69165843040472        1.82901237600076       -0.88368466868634
H           -2.56262317937983        1.84124712129274        0.88192015021499
H           -2.74303820674571       -3.43204035252687        0.77000857178758
H           -2.69811519158162       -3.44112648994707       -1.09530662613240
H           -3.31843124989185       -2.00357138329476       -0.17229048966577
H            1.89893312960853       -2.91307115472984        0.16529541325667
25
 energy: 53.512368210009 xtb: 6.6.1 (8d0f1dd)
C            3.20439339007544        1.48493290820487        0.18572845731795
N            2.55099186095592        0.20821861171449        0.00188442284786
C            2.96639364546999       -1.04655018136619        0.14478350124200
N            1.90166940043665       -1.89771135445346        0.08953670501523
C            0.73373377748418       -1.16560470096930       -0.08258961059867
C            1.19961944992714        0.15440317712152       -0.17840624194262
C            0.31766355563105        1.27518103681997       -0.26406163430062
O            0.65584694394172        2.44833594711523       -0.36655829823033
N           -0.97596393383567        0.87309606929172       -0.14852353756140
C           -1.98540792826029        1.90698999659164       -0.04759521533925
C           -1.41755683293129       -0.45636597624391        0.03047259361042
O           -2.59802364519311       -0.50336382153200        0.30074219602442
N           -0.54523109205588       -1.51038543266869       -0.05227067854560
C           -3.09065899944240       -3.01732870132901       -0.18524898415554
H            4.10898871263519        1.37833788201415        0.77436410132080
H            3.46761140651704        1.94705268450291       -0.77325411076966
H            2.50351715004339        2.15057066310166        0.70208139867482
H            3.98705422659482       -1.36184900822659        0.20536420789550
H           -1.43585732224143        2.84384194023329       -0.08932747252644
H           -2.69094429443697        1.79880340108349       -0.86628482565863
H           -2.52564857783110        1.80749934158996        0.89348167061468
H           -2.93515150836046       -3.47529021306592        0.75749782511547
H           -2.88387286817518       -3.49961236476925       -1.10359157155555
H           -3.38772202615635       -1.99888004356026       -0.19298146678289
H            1.96842023868789       -2.90083505511391        0.18166890333674
25
 energy: 51.759120052006 xtb: 6.6.1 (8d0f1dd)
C            3.20624068546842        1.51765997913105        0.19984193339763
N            2.57311829700673        0.23345598353289        0.01648510185203
C            3.00481184605988       -1.01306742519752        0.16201851866185
N            1.95378471567394       -1.87930170095028        0.10037472184851
C            0.77830737294399       -1.15862318526272       -0.08192842388305
C            1.22724352082393        0.16468215554113       -0.17906759340195
C            0.32924433396191        1.27053376917406       -0.29454241659943
O            0.66370331400918        2.44084109945630       -0.42746263557512
N           -0.96009455525415        0.85921170508314       -0.16213672826715
C           -1.97649432295805        1.88519650801625       -0.04153924568119
C           -1.38190654184572       -0.48036832286187        0.03629308518520
O           -2.55400209990526       -0.55620834076372        0.32762123663409
N           -0.49392589172344       -1.51753842891846       -0.05294114160014
C           -3.22730627604694       -3.05796320736015       -0.19766872405045
H            4.15307652049081        1.41444630300768        0.71435459531147
H            3.37429177291660        2.02137586548199       -0.75749048328476
H            2.53091636887259        2.14204107171105        0.79404524323419
H            4.03051449799218       -1.31036952040971        0.21812684280822
H           -1.45265226528390        2.83755533393134       -0.09258907723802
H           -2.70232688645136        1.77088800066808       -0.84093808937325
H           -2.49436174635173        1.77674210715912        0.91110967860878
H           -3.11305433755575       -3.53650164681559        0.74409548605061
H           -3.05601300272755       -3.56415496542214       -1.11509330781605
H           -3.46190837478653       -2.02054472727204       -0.20560909949222
H            2.03333655630019       -2.88192767869459        0.19634352956924
25
 energy: 50.151331021426 xtb: 6.6.1 (8d0f1dd)
C            3.21668605232857        1.54723994368256        0.22246351057986
N            2.59589052700626        0.26334860327167        0.02168556434549
C            3.04172992175625       -0.97572861138757        0.16836585837675
N            2.00389150705511       -1.85560408002176        0.10656585194141
C            0.82217511957368       -1.14549965456267       -0.08329393461260
C            1.25501195546106        0.18105057175731       -0.18214448639867
C            0.34399591054986        1.27241148694718       -0.31947892920603
O            0.67128262916582        2.44009427570494       -0.48285589357143
N           -0.94214834759178        0.84941683950860       -0.17399119306556
C           -1.96748049187798        1.86663689982144       -0.04092899369226
C           -1.34772593863068       -0.50086778542883        0.03282493119723
O           -2.51407883771728       -0.60717407076718        0.33058829626972
N           -0.44287997813127       -1.51925005168140       -0.05759222784251
C           -3.36756394656352       -3.08928885883621       -0.20519745344334
H            4.19886435505934        1.43597214033695        0.66471143828225
H            3.29351611907470        2.08968029050249       -0.72065581068129
H            2.56310404865535        2.12892049516790        0.88606339642556
H            4.07162375149280       -1.25619458014136        0.22579333769986
H           -1.47197606895922        2.83533589249260       -0.09659214325996
H           -2.70573830493442        1.74675200668191       -0.83002423794639
H           -2.46647690915381        1.74947903601302        0.92118261399726
H           -3.29242159758362       -3.58323019704781        0.73574727349489
H           -3.23425377299705       -3.60775764940266       -1.12651787818583
H           -3.54531194707796       -2.03900980599782       -0.21209571476420
H            2.09559805522247       -2.85744385322108        0.20771876031308
25
 energy: 48.471274823540 xtb: 6.6.1 (8d0f1dd)
C            3.23771298066982        1.58399045906052        0.21520030424314
N            2.61994415018629        0.30003935942913        0.01887309299896
C            3.07912147418835       -0.93210743751642        0.16616437783175
N            2.05462940115303       -1.82533768479747        0.11037099168632
C            0.86644188594411       -1.12668979272775       -0.08271700185316
C            1.28050617207159        0.20519160840026       -0.18324321163604
C            0.35698395403251        1.28068784157929       -0.33560908109055
O            0.66743350728222        2.44813535359248       -0.52875519583974
N           -0.92352891963598        0.83706354429525       -0.18294673805363
C           -1.95451884326441        1.84523358639593       -0.03924783339398
C           -1.31323679854941       -0.52164381492785        0.02539130051186
O           -2.47618188128102       -0.65954065994476        0.31894254106608
N           -0.38987268721747       -1.51930327063121       -0.06087736469934
C           -3.50613553167125       -3.12655704511919       -0.20579741910590
H            4.24596796043061        1.47281868953127        0.59573716787394
H            3.22728746650701        2.15180500560361       -0.71385866943049
H            2.62391171375775        2.13697071745816        0.93305962341587
H            4.11182010257034       -1.19815220124089        0.23333685765424
H           -1.46522844151234        2.81723487090459       -0.10411260766364
H           -2.69977963374299        1.71519739010654       -0.82073648739787
H           -2.43709661363037        1.72617424790390        0.93133697014066
H           -3.46921959873536       -3.63341043399785        0.73294399211758
H           -3.41476761654266       -3.65540411930636       -1.12871522097904
H           -3.62450104583321       -2.06693822004374       -0.21192249457915
H            2.15753682645355       -2.82581176503696        0.21803644636895
25
 energy: 47.223502817455 xtb: 6.6.1 (8d0f1dd)
C            3.25418230896644        1.63692917292201        0.19053225801563
N            2.64872002338413        0.34356996722660        0.01431963260441
C            3.12047820639165       -0.88274475154703        0.16697719465085
N            2.10974868952048       -1.79072048287071        0.11566433213504
C            0.91478644207187       -1.10356340770050       -0.07952794360098
C            1.30967728344988        0.23476113262109       -0.18170124971077
C            0.37081610009526        1.29446033252622       -0.34175275923305
O            0.65601653155929        2.46585963024608       -0.55067570805307
N           -0.90146019492609        0.82425590215978       -0.18471969346566
C           -1.93865491325359        1.82353824469692       -0.04011582057154
C           -1.27533984605286       -0.54128164270305        0.01775077839318
O           -2.43645880543749       -0.71075024712717        0.29993499823116
N           -0.33233641312155       -1.51697855467639       -0.06134631780507
C           -3.64049244323207       -3.17367571991433       -0.20757450149670
H            4.26925083975411        1.54209654198032        0.55662582664473
H            3.19309478915715        2.21739945909108       -0.73229001295124
H            2.65037783100431        2.18710192441238        0.91318637902688
H            4.15366668267845       -1.13478016841038        0.24658760040969
H           -1.44804603152659        2.79479455753194       -0.11376322780261
H           -2.68644100184242        1.68390815249952       -0.81830110221554
H           -2.40853006443940        1.70801919473792        0.93663239931404
H           -3.64634896200378       -3.69311628367800        0.72558072007051
H           -3.59910655151085       -3.69976511963233       -1.13612146156107
H           -3.68245219915334       -2.10933024052051       -0.20442733947659
H            2.22407988244385       -2.79036772308006        0.23349885617567
25