72
 energy: -103.309046997810 gnorm: 0.095513662296 xtb: 6.6.1 (8d0f1dd)
N           -1.48465276765440        2.76838505532344        2.23494468540820
C           -1.56061026278554        2.15826983186400        1.15516319996922
C           -2.74390090185266        2.06012601811917        0.24567742102897
C           -3.31371208233722        0.64852535403478        0.32792771549855
C           -4.29395866974075        0.24709065297839       -0.57737857429230
C           -4.84392614650771       -1.02172775305693       -0.53359271110702
O           -5.80351901614771       -1.49048170378614       -1.36999908918051
C           -6.37896543236252       -0.61192509146294       -2.30587873715746
C           -4.39786163890563       -1.94231548939568        0.44587265207479
O           -4.99141354105848       -3.16189565979613        0.41419634825362
C           -4.66952770949750       -4.09548708870468        1.41499798480824
C           -3.42482946943713       -1.53987937790189        1.34030822361109
C           -2.88766571775275       -0.25780746925977        1.28028152512418
C           -2.18511171968045        2.30404215212155       -1.17637526057235
C           -1.26270456963899        1.17800986628362       -1.66231073110338
C            0.01491069646992        1.12681604662579       -0.89418887184961
N            0.62663506340388       -0.03581886211092       -0.56888706871840
C            2.00472147646434       -0.03755614770327       -0.15477679789237
C            2.93424467115102       -0.55309678309820       -1.27510461258864
C            4.36166543574184       -0.45495483625072       -0.83247479994272
C            5.07514363115409        0.70454014214315       -1.02580187729591
C            6.37914964611213        0.80969360833178       -0.57878925073816
C            7.00837997181026       -0.24346160747975        0.09270651277526
O            8.30113316886694       -0.07101493842246        0.52528960712178
C            9.06904976459513        1.02109894053775        0.28895186650261
C            6.28261573430408       -1.44806830653931        0.29158164734128
O            6.94138020437367       -2.42998652324118        0.93029269483154
C            6.28811304032993       -3.65732925979875        1.13751556621982
C            4.97096028234573       -1.52800735434845       -0.16194054058129
C           -0.05367737944838       -1.30709943001297       -0.62109455324483
C           -3.87056059116816        3.07946649774336        0.58259760784281
C           -4.49705677180844        2.77661817038783        1.94113626760626
C           -3.39520998091166        4.52941887840420        0.54686306017209
H           -4.64678835758505        0.94372631730659       -1.32086813949601
H           -6.83429062914916        0.25641116067366       -1.81842649052421
H           -7.15299279173363       -1.18957811737655       -2.80791556644164
H           -5.64627857080595       -0.27326282806031       -3.04571106768786
H           -4.89384360383701       -3.70692171410433        2.41310594513146
H           -5.29746954129963       -4.96198297030737        1.21618261546983
H           -3.61635125704182       -4.39352060684440        1.36797804137038
H           -3.07777670218915       -2.21156141855839        2.10949806613684
H           -2.15176716639355        0.03019075702858        2.01800700116627
H           -3.01560874309998        2.39672737454344       -1.87914794627629
H           -1.64040469560829        3.24726218131345       -1.19235676346844
H           -1.80317095513611        0.23691307798175       -1.62548833745988
H           -1.00333372754951        1.38056044946134       -2.71056577153790
H           -0.68292934016720        1.64888890702574        0.66072686981101
H            0.64958124724690        1.98904731949738       -0.94600871046492
H            2.11732803138837       -0.67809142620002        0.73044515929063
H            2.30343717770869        0.97436653729389        0.11327364347253
H            2.77314501319541        0.06104697081065       -2.16080206854777
H            2.67553692989681       -1.58695708341987       -1.51631708818166
H            4.62427032751899        1.54188900615623       -1.53598530630108
H            6.92274209540047        1.72179214019384       -0.74885329662254
H            8.67681740483720        1.92059761637153        0.77239777414448
H            9.21944337896256        1.22012844974176       -0.77558632678772
H           10.03345375572533        0.78531884665701        0.73959444785844
H            7.02107389788260       -4.28777011276205        1.63897598861244
H            5.40932659085548       -3.54869564063168        1.78236899402303
H            5.99041661509076       -4.12675714157789        0.19516151800806
H            4.39941827711229       -2.43800197138372       -0.01504209265110
H           -0.22348410975676       -1.62362822249028       -1.65556371549381
H           -1.02038788354200       -1.24510129388128       -0.11521075760259
H            0.55496464350427       -2.05696098012212       -0.12361180641815
H           -4.64402884844086        2.95679824207101       -0.18598493915482
H           -3.76276862476143        2.90709687865968        2.72606441991836
H           -4.87671546476056        1.75900382360117        1.97590982895953
H           -5.32701721867032        3.45895284219686        2.12051223049230
H           -2.60309664649234        4.68709481461984        1.27135207336443
H           -3.03950400042285        4.81611511427686       -0.43957133301778
H           -4.22571181755745        5.18367137426809        0.80318200971883
H           -0.61432238602690        2.78962765844599        2.75040941743454
72
 energy: -103.313785851499 gnorm: 0.036784465255 xtb: 6.6.1 (8d0f1dd)
N           -1.50194595397331        2.79676421762656        2.24656794667758
C           -1.56504496610563        2.15677960679112        1.17138883321947
C           -2.74506058546691        2.06255466478644        0.25145115211163
C           -3.31688212736432        0.65239316960318        0.33125095594639
C           -4.29720988843468        0.24779677964105       -0.57542272125664
C           -4.84373464600877       -1.02148999048355       -0.53265166606709
O           -5.80631169029039       -1.49154068486461       -1.37083374533049
C           -6.37814940742029       -0.61178293261364       -2.30623087404220
C           -4.39895123830930       -1.94037690694586        0.44616326022977
O           -4.99310256019180       -3.16381956297310        0.41317101232029
C           -4.66898110036661       -4.09496140176285        1.41464242780234
C           -3.42839338671926       -1.53706242673323        1.34295963869532
C           -2.89393358036084       -0.25407836620637        1.28517745050819
C           -2.18820121658931        2.30317958672517       -1.17568980986966
C           -1.25700567529468        1.18706363872158       -1.67506285328854
C            0.01755405686354        1.13110474065822       -0.89993120770069
N            0.63475684334726       -0.04938962704236       -0.56246104830392
C            2.00840162627838       -0.04993797342618       -0.15602321364424
C            2.94120977378718       -0.55906692971405       -1.27643663804118
C            4.36800454175065       -0.45794900912933       -0.83852381308481
C            5.07764550504266        0.70951768921800       -1.03103268448891
C            6.38046996467964        0.81839035270067       -0.58059258549542
C            7.00655649530959       -0.23061057716897        0.08432627744477
O            8.29670307013358       -0.11863908520208        0.53973419079563
C            9.06296671609720        1.00481097452859        0.29520768090756
C            6.28851219119568       -1.43200253183331        0.29056141343371
O            6.94969327306856       -2.42618560964692        0.93314899982641
C            6.29386124458033       -3.65345462085345        1.13933310396312
C            4.98207282271583       -1.51823034279892       -0.16629279031935
C           -0.05193963205771       -1.31148721161155       -0.62110133633885
C           -3.87500202321195        3.07864896246925        0.58026864471069
C           -4.50111518089660        2.77812052105065        1.94004664988130
C           -3.39801497603969        4.52860248215681        0.54663587706509
H           -4.64578467031298        0.94309499781716       -1.32152407031353
H           -6.83252352340642        0.25683665416980       -1.81822283463913
H           -7.15300064984602       -1.18755755129807       -2.80982210979225
H           -5.64426199951643       -0.27221451853928       -3.04499251420115
H           -4.89228968859034       -3.70627731636296        2.41355698876416
H           -5.29535232545828       -4.96344430009107        1.21763178644406
H           -3.61538732965578       -4.39130648374070        1.36765567869377
H           -3.07674284454753       -2.21167609361177        2.10778985661754
H           -2.15203592935443        0.03115857326238        2.01552377038879
H           -3.02075332496906        2.40018223900361       -1.87554051187892
H           -1.63907434741782        3.24536770936423       -1.18742646723642
H           -1.79124294141005        0.24064464605668       -1.62766893607135
H           -1.02693446544742        1.38928531334886       -2.73208073928794
H           -0.69031831008368        1.64122750545845        0.68927001106097
H            0.66586374192031        1.98798029225484       -0.97483490100615
H            2.12714672125933       -0.68341040894085        0.73100606031772
H            2.30257017268794        0.96633616159259        0.11082639655451
H            2.77346018597762        0.05669990557566       -2.16128801422448
H            2.67921867628081       -1.59058195742580       -1.51630750619374
H            4.62207855542101        1.54453023044718       -1.54156337722723
H            6.92318705128907        1.73249278072541       -0.74956393399710
H            8.66584633438675        1.91217060519297        0.77182335097761
H            9.20705073585463        1.21134161393966       -0.77390798422606
H           10.03655472435464        0.78603761712347        0.73780488186985
H            7.02127419691800       -4.29076632645643        1.64004924972954
H            5.41259587153208       -3.54233651605762        1.78096113685141
H            5.99470397587137       -4.12018280980955        0.19490975353979
H            4.41519030990959       -2.42670056190510       -0.01691539538367
H           -0.22244038438474       -1.62970646587863       -1.65582378071926
H           -1.01883439577534       -1.24561611331280       -0.11481286197675
H            0.55297201774489       -2.06387296853635       -0.12150650083421
H           -4.64885565682982        2.95802535336697       -0.18778534847199
H           -3.76016830557005        2.90668463597510        2.72157130208854
H           -4.87867646714489        1.75925282077851        1.97622267094704
H           -5.32979830406977        3.45985886630480        2.12315874586390
H           -2.60372968536689        4.68033649752374        1.27104655956409
H           -3.03994819529970        4.81317763317352       -0.43962450498006
H           -4.22652510861524        5.18568188743812        0.80348955701020
H           -0.62431198535791        2.79220812141107        2.75700563728300
72
 energy: -103.314039396983 gnorm: 0.023326325859 xtb: 6.6.1 (8d0f1dd)
N           -1.48750539883487        2.78469851566081        2.23864963966703
C           -1.54924300241588        2.14779738654153        1.15590990333000
C           -2.74123154907745        2.06173069008109        0.24749941516273
C           -3.30872695913305        0.64976505591680        0.32478205036347
C           -4.29381289924534        0.24550272974564       -0.57854752034026
C           -4.83957102612312       -1.02288063096428       -0.53379912188927
O           -5.80716124960044       -1.49286540594360       -1.37083898349336
C           -6.37921397355931       -0.61352273255075       -2.30504417621826
C           -4.39488773527713       -1.94106073573547        0.44353954758507
O           -4.99365425833556       -3.16539518595170        0.41236422407170
C           -4.67092078734016       -4.09544426890870        1.41414904791093
C           -3.42305221030195       -1.53957396347230        1.33945488435195
C           -2.88631365893671       -0.25798221899757        1.27903144663369
C           -2.18988074537240        2.30532273276655       -1.18214215054697
C           -1.25928727467839        1.18316779123481       -1.66885348479673
C            0.00630711826905        1.13728074511533       -0.88725224722052
N            0.63335333023742       -0.04955519900632       -0.55001311546391
C            2.00258075372926       -0.04117829495696       -0.15034145911441
C            2.93529698966638       -0.55367906620927       -1.27003032017701
C            4.36003291683253       -0.46296702336018       -0.82791640104003
C            5.07199421874791        0.70577039069545       -1.02420599334463
C            6.37605073699324        0.81562448782642       -0.58020018835599
C            7.00371557634734       -0.22308647026075        0.07989459128311
O            8.29354150612143       -0.13166709522767        0.54188237935415
C            9.06270431921194        1.01569608198774        0.29138045548095
C            6.28636795028179       -1.42745609042716        0.29055746810739
O            6.94803738007353       -2.43284477325171        0.93288536673149
C            6.28851220207463       -3.65870177252968        1.13867261004087
C            4.97672165920693       -1.51965450169077       -0.16033015809048
C           -0.05303154833084       -1.30605066162237       -0.62220357147982
C           -3.86726150372184        3.07774025402762        0.58236354443776
C           -4.49734506497106        2.77722671053959        1.94109727659352
C           -3.39512229971264        4.53054447032076        0.54751744666488
H           -4.64489295887111        0.94281970737342       -1.32127358507937
H           -6.83427527431534        0.25531321240569       -1.81758804813321
H           -7.15438085380049       -1.19033850767288       -2.80726044560644
H           -5.64722431271567       -0.27363621096901       -3.04585473531488
H           -4.89420808771479       -3.70676001271049        2.41346431892629
H           -5.29927169705086       -4.96263839747776        1.21684243819616
H           -3.61802669479392       -4.39478344636678        1.36807680247744
H           -3.07634285087667       -2.21260210907605        2.10814209863641
H           -2.15020673124126        0.02896869826574        2.01341241070768
H           -3.01992914837435        2.39864939506329       -1.88374898390223
H           -1.63779653454748        3.24707848697669       -1.19460989552558
H           -1.79596141198816        0.23474646751009       -1.62156856935604
H           -1.01407037385485        1.37960578734520       -2.72125119270316
H           -0.68143781988276        1.64821374070182        0.66410815021397
H            0.65148780945745        1.99938875636863       -0.94299642235588
H            2.12100073144520       -0.67216366848428        0.73659021321246
H            2.29655153954396        0.97807166779436        0.11635450438407
H            2.77163570833575        0.06493798716721       -2.15514899645008
H            2.66779042383309       -1.58211203519478       -1.51310729527872
H            4.61638387104401        1.54012051982208       -1.53444469019477
H            6.91855999747392        1.72858295981107       -0.75439641834539
H            8.66815351153450        1.92587803491616        0.76841538466273
H            9.21326427352863        1.22192425348421       -0.77908613989184
H           10.03546666751348        0.79751230689311        0.73576025250500
H            7.01707073269138       -4.29462486214652        1.63831794269091
H            5.40764043699901       -3.54955527445546        1.78185970832886
H            5.98803660615345       -4.12815660244975        0.19479812845225
H            4.40785326053262       -2.42779460143543       -0.01049749344377
H           -0.22341296190281       -1.62023179097039       -1.65860589965013
H           -1.02071678308195       -1.24602574746396       -0.11556346409297
H            0.55399844670626       -2.05909061709379       -0.12531303423826
H           -4.64115747999426        2.95694412709253       -0.18482058313397
H           -3.76008398616884        2.90659965651998        2.72713165576738
H           -4.87404390901693        1.75768017858910        1.97641096953312
H           -5.32647248746186        3.45802061394211        2.11986392469367
H           -2.60131323999144        4.68763067242538        1.27166808119163
H           -3.03856249464135        4.81627544813590       -0.43907931141905
H           -4.22641848817436        5.18396922366193        0.80366330712990
H           -0.59253022643097        2.76790389531343        2.72526213637958
72
 energy: -103.314870916614 gnorm: 0.011019326074 xtb: 6.6.1 (8d0f1dd)
N           -1.51075073395781        2.78854376922842        2.24698493095100
C           -1.55821417872929        2.15416509810584        1.16285901418447
C           -2.74565924582785        2.06214940124907        0.24971364500716
C           -3.31395500115502        0.65104316843781        0.32904860912596
C           -4.29702382971949        0.24703403558272       -0.57595687604674
C           -4.84254002046303       -1.02126634762703       -0.53125726134921
O           -5.80745706751740       -1.49131639986873       -1.37085252206780
C           -6.37771303531135       -0.61174068961983       -2.30582865883125
C           -4.39803157792417       -1.93942388338653        0.44638083381730
O           -4.99386428387059       -3.16464824611587        0.41386890530641
C           -4.66864810234217       -4.09477103744035        1.41451540219052
C           -3.42673075729699       -1.53825810394132        1.34287443050517
C           -2.89129559604066       -0.25622170856862        1.28357969032994
C           -2.18729261402414        2.30504144357321       -1.17660593444376
C           -1.25967080057164        1.18170937180360       -1.66588111597613
C            0.00956756516762        1.13332726187453       -0.89302798439942
N            0.63540424754157       -0.05116767744137       -0.55989602400421
C            2.00545063516731       -0.04479010893393       -0.16030531565546
C            2.93993802680497       -0.55724373366448       -1.27905236903923
C            4.36381011502042       -0.46432493561078       -0.83356612943462
C            5.07700775502485        0.70371319786054       -1.02811239038085
C            6.37978218219378        0.81354255909189       -0.58012853155971
C            7.00675323486669       -0.22363999504783        0.08255700905200
O            8.29560754170504       -0.12091453021647        0.54081275066880
C            9.07056879841906        1.02002380126048        0.29198727210573
C            6.28763389398516       -1.43033875582241        0.28847436940435
O            6.94899708317949       -2.43193948930677        0.93334128997049
C            6.29061159233570       -3.65668446178913        1.13923371272139
C            4.97779622287051       -1.52423788227040       -0.16532537478970
C           -0.05288703053734       -1.30731649807673       -0.62306137224117
C           -3.87218302862233        3.07824860679865        0.58154493300085
C           -4.50108005209862        2.77805133138249        1.94071756234310
C           -3.39707944771255        4.52984528074748        0.54634937103182
H           -4.64698849168754        0.94429212620285       -1.31951202893227
H           -6.83372530414752        0.25721431101163       -1.81931433440257
H           -7.15198531715166       -1.18830057296848       -2.80964418353561
H           -5.64444017265302       -0.27202561221069       -3.04538313596077
H           -4.89283412463582       -3.70728162955279        2.41397539717663
H           -5.29528140075846       -4.96299185307951        1.21661897608991
H           -3.61503218136038       -4.39179224944888        1.36795508576999
H           -3.07925721485556       -2.21152010107523        2.11083552284299
H           -2.15538677577442        0.03119930701176        2.01882219136892
H           -3.01657834615616        2.39836692011915       -1.87817062892834
H           -1.63771372748237        3.24773549374625       -1.18847840641147
H           -1.80032140042175        0.23585648607716       -1.62449506844720
H           -1.01021931581791        1.38205993585268       -2.71594491491976
H           -0.68737456990698        1.65305090828930        0.67461954578247
H            0.65828018101948        1.99041754283320       -0.95523361289931
H            2.12307285793952       -0.67942712343206        0.72535062821521
H            2.30368059655417        0.97210653537203        0.10861717024496
H            2.77694725611499        0.05910527937383       -2.16546376144641
H            2.67725789810400       -1.58780869249479       -1.52096394815196
H            4.62468313668764        1.53940086583192       -1.53898687612696
H            6.92213470058645        1.72709704070440       -0.75062126045044
H            8.67604776133983        1.92392705934972        0.77397637899344
H            9.21967950508123        1.21897904803656       -0.77751696519884
H           10.03778054530360        0.78809474483722        0.73955803182753
H            7.02181335639237       -4.28821819893256        1.64040083442904
H            5.40985858429972       -3.54722734708466        1.78223227082391
H            5.99265032277692       -4.12678166710995        0.19517910283965
H            4.40723684964687       -2.43355720437539       -0.01846255052066
H           -0.22521488927624       -1.62802188368713       -1.65683371573794
H           -1.01967958166304       -1.24440392401429       -0.11509865176052
H            0.55374501568079       -2.05905714128995       -0.12308595260285
H           -4.64570109653596        2.95705072066084       -0.18631293534796
H           -3.76298635392525        2.90685836114949        2.72549681121831
H           -4.87925398176820        1.75919725261254        1.97626567507607
H           -5.32892317317930        3.46006597665435        2.12078227714536
H           -2.60363147577250        4.68526069596803        1.27096944652306
H           -3.03999798164079        4.81511961100438       -0.44015522197574
H           -4.22700236149692        5.18454219837602        0.80266738310030
H           -0.62204109729402        2.78384680243761        2.74320918296492
72
 energy: -103.314780225667 gnorm: 0.012751580296 xtb: 6.6.1 (8d0f1dd)
N           -1.49767960158529        2.79191125714344        2.24385855406419
C           -1.55230196524093        2.15446426732830        1.16369066275125
C           -2.74215068097805        2.06172858692506        0.25118488941894
C           -3.31412710020929        0.65174508111263        0.32985921481410
C           -4.29558753528401        0.24739817762388       -0.57681271024062
C           -4.84120516380916       -1.02136730211173       -0.53259632643700
O           -5.80583221199556       -1.49170562020553       -1.37166919802739
C           -6.37851290905988       -0.61242406046189       -2.30526743740506
C           -4.39678450154104       -1.93980198488669        0.44500729205046
O           -4.99286743457495       -3.16437822290226        0.41291335912329
C           -4.66975887343269       -4.09449716822787        1.41423277640103
C           -3.42471804054479       -1.53877047154366        1.34079054037384
C           -2.88985413345964       -0.25633162352431        1.28234785785561
C           -2.18776022141104        2.30313806765900       -1.17723172384141
C           -1.25828594004737        1.18449992748294       -1.67434391698431
C            0.01355542416840        1.13280807273029       -0.90361467766854
N            0.63456779291390       -0.04859325018244       -0.56172935791593
C            2.00308093114872       -0.04444961343458       -0.15186401332969
C            2.93758633156805       -0.55557211451581       -1.27089422621583
C            4.36302666999834       -0.45851523434848       -0.83116365790069
C            5.07530823228486        0.70872312540755       -1.02686950815164
C            6.37888625336835        0.81572352090279       -0.57878215007656
C            7.00546659113606       -0.22539662722927        0.08406043380313
O            8.29311813110592       -0.11791793244277        0.53862059569240
C            9.06633308717564        1.01832187829198        0.29006170050428
C            6.28571569040382       -1.43085044382691        0.28979790234373
O            6.94792916643971       -2.42996846551081        0.93343893652617
C            6.29026013075533       -3.65422518554198        1.13820592633454
C            4.97626650859451       -1.52079558596703       -0.16254534578303
C           -0.05217874706096       -1.30702829283112       -0.62156915228217
C           -3.87036824006067        3.07754020628009        0.58141120267882
C           -4.49819664074764        2.77694658022582        1.94064949021064
C           -3.39549724536362        4.52870383019076        0.54728212231745
H           -4.64397022707339        0.94364069695961       -1.32217942895252
H           -6.83330156166722        0.25629428077643       -1.81727584343989
H           -7.15397272425340       -1.18867374277323       -2.80776346929140
H           -5.64647403363570       -0.27262186021166       -3.04587870839149
H           -4.89332886993624       -3.70558705782738        2.41315619823101
H           -5.29773046206535       -4.96205026497095        1.21740674176210
H           -3.61665865349202       -4.39319255796408        1.36804518870118
H           -3.07386852427634       -2.21323475894522        2.10588241411836
H           -2.14820714832955        0.02914964937821        2.01320386851357
H           -3.02052224259482        2.39763849943785       -1.87521068489394
H           -1.64064332190559        3.24640932985433       -1.19091616304395
H           -1.79627332029327        0.23898137021555       -1.63088769516741
H           -1.02089680753120        1.38788936935822       -2.72793588415058
H           -0.68711412302297        1.63669141319721        0.67994755660013
H            0.66450351544313        1.98687940441670       -0.97105748479483
H            2.12081973811737       -0.67957125483343        0.73520755468509
H            2.30122460859174        0.97128777163955        0.11714023134892
H            2.77012922031998        0.05929474271995       -2.15671654334198
H            2.67637897663397       -1.58772566787121       -1.51011688174190
H            4.62234369673102        1.54552393325093       -1.53637865812144
H            6.92180541669548        1.72970120063809       -0.74835429389364
H            8.66284483878172        1.91462079185256        0.77244146163659
H            9.20524968349005        1.21229517047947       -0.77890090583708
H           10.03313841636507        0.78540068477619        0.73682770937054
H            7.02042140896483       -4.28885648645706        1.63767854113457
H            5.41028436120242       -3.54358649959645        1.78146511702303
H            5.99099556826947       -4.12059507100124        0.19332507610949
H            4.40564706737185       -2.42901453719789       -0.01313539575228
H           -0.22061643578443       -1.62851911662445       -1.65553361490984
H           -1.02055693123905       -1.24485644474026       -0.11681871268142
H            0.55232795320267       -2.06016759255539       -0.12011057288733
H           -4.64455813975358        2.95683431391912       -0.18642109676675
H           -3.75882110055537        2.90630585734373        2.72341371806186
H           -4.87525864129520        1.75787941924330        1.97624104334313
H           -5.32669086936131        3.45822804678413        2.12249412684790
H           -2.60192427548543        4.68189328247990        1.27194276852117
H           -3.03848876471967        4.81408992935363       -0.43908659140363
H           -4.22478346019901        5.18398396620028        0.80451810808131
H           -0.61073686364020        2.78490027469027        2.74372078054218
72
 energy: -103.315084926662 gnorm: 0.004033954719 xtb: 6.6.1 (8d0f1dd)
N           -1.50073914302300        2.78992538652701        2.24484223369561
C           -1.55469054450660        2.15319408657782        1.16368259661973
C           -2.74439557376035        2.06243929710548        0.25037618210556
C           -3.31426973143648        0.65150510796733        0.32847977350801
C           -4.29637373021779        0.24664177867587       -0.57736325144129
C           -4.84187922218107       -1.02202878229593       -0.53248318368667
O           -5.80701250442921       -1.49234020090536       -1.37154502707032
C           -6.37829917265997       -0.61289843757931       -2.30570950424492
C           -4.39767605888765       -1.94000344242314        0.44536462675959
O           -4.99357160379347       -3.16509569442559        0.41331943718498
C           -4.66958815422279       -4.09517559830093        1.41430054605071
C           -3.42671428588831       -1.53809395262159        1.34199977495644
C           -2.89140320247479       -0.25583708547937        1.28251372571285
C           -2.18866396465667        2.30429788458139       -1.17773733411969
C           -1.25814104054685        1.18384034023178       -1.66880183343631
C            0.01121185524681        1.13398425379180       -0.89471771594243
N            0.63514603896435       -0.04920405077389       -0.55761366629845
C            2.00501996226358       -0.04466866761652       -0.15490658185537
C            2.93895490716896       -0.55604738031759       -1.27497727346888