72
 energy: 0.000000000000 xtb: 6.6.1 (8d0f1dd)
N           -1.47310934822924        2.74401318561852        2.22063942287560
C           -1.55658894218425        2.16490305624665        1.13274284460745
C           -2.74549225258129        2.05621251263064        0.23826250649470
C           -3.31377583855761        0.64333417511334        0.32332515650284
C           -4.30230195924506        0.24487112428158       -0.58026167086503
C           -4.85238808050968       -1.02286499940159       -0.53363593669082
O           -5.81420026757557       -1.48606047972767       -1.36157895357670
C           -6.39655692584623       -0.60827005826649       -2.29568495601309
C           -4.39972542350640       -1.94646120241305        0.44396933240983
O           -4.98748357557592       -3.16146026488900        0.41085995818162
C           -4.66362171172287       -4.10093865802695        1.40909140816864
C           -3.42072545213514       -1.54561399150247        1.33436558640148
C           -2.88302826362110       -0.26315802838497        1.27400162590187
C           -2.19303818453636        2.30467021687947       -1.18742988123374
C           -1.26651549989641        1.17243380322503       -1.65249445018642
C            0.01082525039567        1.09745464658138       -0.89354811789923
N            0.61779399208289       -0.02034948241203       -0.57705527866251
C            2.00145228921113       -0.02376006609561       -0.15611401051620
C            2.92554961797610       -0.53865287672537       -1.27700100652360
C            4.35756883501756       -0.43050761225877       -0.83075552032494
C            5.07346182539911        0.73206415878124       -1.03980975472950
C            6.38628045899965        0.84224449235903       -0.60344828301384
C            7.00047329721665       -0.20824758267940        0.05722314949100
O            8.26703733840855       -0.21011315050632        0.52410948507466
C            9.06912311989339        0.92943609656965        0.31863060963839
C            6.27040022445068       -1.40439766990411        0.28033468609137
O            6.94830004375713       -2.38012947787858        0.92752007684741
C            6.31537376337817       -3.61583233633369        1.15217722400438
C            4.96302840674480       -1.49347485723979       -0.16064431849589
C           -0.05511211878686       -1.29906259857679       -0.62085692079872
C           -3.86758072907722        3.07992629005348        0.58498065642721
C           -4.49286201346546        2.77383518785172        1.94313307512182
C           -3.39165211343248        4.52917708609625        0.54797528556046
H           -4.66030069703099        0.94509076131725       -1.31640581036773
H           -6.85037992114187        0.25803164586058       -1.80468862056629
H           -7.17287509152171       -1.18600121846629       -2.79318183475679
H           -5.66836870040540       -0.26952968819383       -3.04040283452035
H           -4.88416765986127       -3.71589494995018        2.40913564538747
H           -5.29223619720187       -4.96637504833431        1.20969248126828
H           -3.61139846644506       -4.39919876145526        1.35529370415983
H           -3.07077825100221       -2.21868786295666        2.10002682176568
H           -2.14562774333496        0.02067850888151        2.01001363031684
H           -3.02188903413801        2.38238034416975       -1.88813562572432
H           -1.65198546223364        3.25146730843841       -1.20556295755141
H           -1.81103391047759        0.23006526775522       -1.62116316669324
H           -0.99335697743926        1.37490224954061       -2.69443281971844
H           -0.67628070635666        1.65183902374723        0.61785732877701
H            0.63525847086258        1.98466388206871       -0.92314029755375
H            2.11132572081740       -0.65949698961381        0.72532619960637
H            2.30680494458141        0.98978260887088        0.11078973822125
H            2.76694224489122        0.06750735773687       -2.17075272340394
H            2.67954606229959       -1.57455642411728       -1.51167757545099
H            4.62170041431221        1.56295626549351       -1.56123593485311
H            6.92357738865082        1.75715832247601       -0.79119604059515
H            8.65159193263071        1.81001840117181        0.81701562739969
H            9.20136256512460        1.14042868409438       -0.74698998879646
H           10.03428931104811        0.69003246578081        0.76064945022918
H            7.05567240429544       -4.23621211097668        1.65347581279537
H            5.43848051513375       -3.50813590722545        1.79970582482858
H            6.02060097762632       -4.09420535105165        0.21253284608183
H            4.40102799328555       -2.40127288651695       -0.00490198294521
H           -0.22071301762289       -1.61775598610935       -1.65116024301020
H           -1.01972267469312       -1.24102728946113       -0.10935207845464
H            0.55899959333766       -2.04486104898380       -0.12333731565713
H           -4.63991918782192        2.95501120214274       -0.18098089750912
H           -3.76095251366987        2.90314731895452        2.73380846416528
H           -4.87457659255110        1.75695657819473        1.97884621460846
H           -5.31925601899505        3.45579242388173        2.12325583951056
H           -2.60025614255587        4.69225089676674        1.27368930043085
H           -3.03987434616939        4.81897697030947       -0.43870979129779
H           -4.22191779840287        5.18069696155015        0.80616701440619
H           -0.59832439338922        2.77744720721660        2.72959009765665
72
 energy: -4.439109881028 xtb: 6.6.1 (8d0f1dd)
N           -1.49239115918329        2.78412811556671        2.24279672704050
C           -1.56062138051065        2.15799120379797        1.16155606324212
C           -2.74257949818502        2.06185773706854        0.24889991240668
C           -3.31295163048467        0.65095763128191        0.33010058422737
C           -4.29431502794122        0.24675722724753       -0.57792783081979
C           -4.84182580625385       -1.02157673794195       -0.53380843521428
O           -5.80359986623010       -1.49010682410301       -1.36953198487593
C           -6.37622459912511       -0.61246679071378       -2.30748641534727
C           -4.39715986835663       -1.94114332616676        0.44661774288334
O           -4.98961906798880       -3.16174061938675        0.41271614882475
C           -4.67016170504353       -4.09496510084639        1.41567248627863
C           -3.42643205680352       -1.53757507724523        1.34327004376413
C           -2.89017788528338       -0.25466669040394        1.28461327983565
C           -2.18642789761308        2.30426402744922       -1.17853524554049
C           -1.25732175405195        1.18475710775789       -1.67107962151615
C            0.01308144986219        1.11785247468529       -0.89368944372901
N            0.63131547734648       -0.04543556792386       -0.56379965591294
C            2.00581513778606       -0.04691182278964       -0.15341048757183
C            2.93415683344792       -0.55448965305671       -1.27445492266033
C            4.36122454915924       -0.45810350786690       -0.83114794503765
C            5.07484700524819        0.70732741967630       -1.02664018845421
C            6.38117536736560        0.81861967838617       -0.58580084251173
C            7.00197279661715       -0.22075937435099        0.07036761511146
O            8.28319240745856       -0.14174862219156        0.52362091493690
C            9.06940480287970        1.01294265191126        0.29162351058003
C            6.27553703951759       -1.43054473142052        0.28689567411153
O            6.94067606131930       -2.42788615088682        0.92982846756664
C            6.28686137091842       -3.65925204232371        1.13720285220068
C            4.96775386305286       -1.52159355018991       -0.16135237782619
C           -0.05399926593900       -1.30979264969463       -0.62164135138765
C           -3.87116377140689        3.07930272380296        0.58133550896250
C           -4.49920308409920        2.77800534783805        1.93990741013047
C           -3.39588779480657        4.52969774484974        0.54633970972586
H           -4.64337088794415        0.94334577516072       -1.32211544632428
H           -6.83172285331504        0.25601747593469       -1.82092446545852
H           -7.15010086677726       -1.19026653831639       -2.80978087118813
H           -5.64241133652818       -0.27407942194414       -3.04692908696767
H           -4.89539951018903       -3.70584718012151        2.41369232446475
H           -5.29782396053945       -4.96165627799506        1.21621848212426
H           -3.61728986539496       -4.39292757768134        1.37002914045091
H           -3.07805501119742       -2.21151717976342        2.10994122204292
H           -2.15147727117619        0.02944503324643        2.01797044697181
H           -3.01557168909034        2.39515559621422       -1.88046994667839
H           -1.63835556254655        3.24760366208151       -1.19057134665577
H           -1.79865845286532        0.24032926489287       -1.62711249788797
H           -1.01181256690106        1.38683202082218       -2.72249505475247
H           -0.68269558988095        1.64885889096665        0.66324310233240
H            0.65232135188756        1.98880926910157       -0.94714431542588
H            2.11675349796174       -0.67995573756928        0.73095604220144
H            2.30312077913686        0.96969210580922        0.11485235975601
H            2.77332480787668        0.06139818467672       -2.16101477696314
H            2.67534474803136       -1.58539772291917       -1.51569622102651
H            4.62468605739618        1.54350058030496       -1.53751705798619
H            6.92332904982245        1.73156904819443       -0.76175798180858
H            8.67734833530660        1.91442268610644        0.77570771815411
H            9.22028463961900        1.21753366429101       -0.77429352161840
H           10.03308948430520        0.78137983352748        0.74048518413374
H            7.01463747892905       -4.29744924224387        1.63631193997892
H            5.40604288677568       -3.55373864721652        1.78099007970578
H            5.98790519041624       -4.13018929545208        0.19406262295044
H            4.39769411966789       -2.42762231001698       -0.01178890708149
H           -0.22391669770870       -1.62344527244968       -1.65621325444550
H           -1.02022685491488       -1.24353398662052       -0.11313399871401
H            0.55253372865260       -2.06156580264771       -0.12436925301756
H           -4.64330473402300        2.95649041426621       -0.18664991365519
H           -3.76314255559976        2.90701177392984        2.72714479146918
H           -4.87670942036915        1.75905354453902        1.97582108325873
H           -5.32790237949035        3.45925153227517        2.11937432157232
H           -2.60297238341057        4.68818265171791        1.27147332816662
H           -3.03937066878261        4.81572094850281       -0.44009155245420
H           -4.22643301114891        5.18395801767832        0.80223304609189
H           -0.61274427178372        2.78921973897440        2.74899086331984
72
 energy: 0.198412760833 xtb: 6.6.1 (8d0f1dd)
N           -1.52381991801505        2.84367905391746        2.26514997399335
C           -1.56055560180647        2.15616424423695        1.19733865770272
C           -2.73648024641092        2.06917839238753        0.26289633523798
C           -3.30768527085446        0.65963258231367        0.33749856278229
C           -4.27941214508519        0.24846098051964       -0.57676755056307
C           -4.82416370095119       -1.01979144773984       -0.53420308566959
O           -5.78423548199750       -1.49607979073900       -1.38295709986017
C           -6.34043615977526       -0.61948998914905       -2.32786145804357
C           -4.39312470808785       -1.93254481837774        0.45164744031561
O           -4.99250761767231       -3.16108949448849        0.41657106381722
C           -4.68129787746072       -4.08401435095505        1.42727819397325
C           -3.43493461755536       -1.52622433173923        1.35867246994077
C           -2.89971335594337       -0.24396803431448        1.30098044894116
C           -2.17325095785131        2.31001626410649       -1.16465065071482
C           -1.24488230699151        1.19764172669786       -1.68275145395062
C            0.01892535916685        1.14117125542181       -0.89236254304259
N            0.64505736530414       -0.07687192358159       -0.54634714224705
C            2.00758486421176       -0.07717582042907       -0.14908565122292
C            2.94409569567849       -0.58077970829596       -1.26824865073345
C            4.36416939219014       -0.50219044804500       -0.82467437603155
C            5.07289281864063        0.66676618452428       -1.00344476064388
C            6.37028491318330        0.77618407013715       -0.55604855379090
C            7.00620166684832       -0.24652732740828        0.09309589584311
O            8.30883440746354       -0.01546501624743        0.52229884185202
C            9.07010619152000        1.15946319491999        0.24400363049052
C            6.28882200421239       -1.47606997744071        0.29805818050124
O            6.92523525980711       -2.51382212634125        0.93263766371454
C            6.23593461058339       -3.73610239665335        1.11106988006488
C            4.97840294785169       -1.56558346288433       -0.16114487619004
C           -0.05706681602445       -1.32080504299054       -0.62642854299313
C           -3.87233974118927        3.07867983044268        0.57723596817032
C           -4.50873687273601        2.78339182756514        1.93460843155487
C           -3.40137623274731        4.53194261423227        0.54256205906690
H           -4.61514764389631        0.94028207939070       -1.33232263364129
H           -6.80010982547302        0.25232513154441       -1.84957143028572
H           -7.10979575698341       -1.19724975746066       -2.83855602521464
H           -5.59746272981538       -0.28230257834391       -3.05903406617682
H           -4.91555519039553       -3.68892241579502        2.42186639239028
H           -5.30721530046590       -4.95276071052546        1.22779008990402
H           -3.62765628810853       -4.38278334220329        1.39585882851496
H           -3.09147243090751       -2.19981611384111        2.12889803078518
H           -2.16332091079902        0.04267275012963        2.03465090236485
H           -3.00377836418718        2.42011225510018       -1.86639942674888
H           -1.61430893278259        3.24802402037528       -1.16553657796405
H           -1.78086005357005        0.24954598911031       -1.63206550114437
H           -1.03337202003852        1.40467297362261       -2.74438902550641
H           -0.69146944163666        1.63763653539917        0.73708419172572
H            0.68368205659403        1.98458283739580       -0.97265843533026
H            2.12426099579096       -0.71057312599439        0.73806552398228
H            2.30059835024967        0.94055650655077        0.12436728529761
H            2.78567594343656        0.05020339501066       -2.14492557834629
H            2.66594464728525       -1.60385264300697       -1.52313671789998
H            4.62702675031629        1.51117276070424       -1.49929861243905
H            6.92392935102704        1.68477172275758       -0.70901009804735
H            8.71761376543621        2.09367244706485        0.70402533361378
H            9.24940018289511        1.34848706655074       -0.82293361496767
H           10.03016729755396        0.93459084994801        0.70671440567003
H            6.94356188979414       -4.40303444332728        1.60600693784596
H            5.34991329810032       -3.63140238291595        1.74944359468196
H            5.93206798357161       -4.19219235834047        0.16065233562359
H            4.39564313170067       -2.46921170379512       -0.02448965638986
H           -0.23052097373155       -1.63118582917816       -1.66563720447806
H           -1.02529944963714       -1.24873041330327       -0.12190080091987
H            0.53863272935165       -2.08306886632477       -0.12942111602270
H           -4.64230434955851        2.95553528546659       -0.19475524425437
H           -3.77001281592737        2.91457699523334        2.71887299134030
H           -4.88177975178950        1.76221140446616        1.97185800155854
H           -5.34027769369345        3.46354628566278        2.11034180315800
H           -2.60822360479424        4.68510160775590        1.26818884646329
H           -3.03888732285452        4.81291397941988       -0.44351583962758
H           -4.23299647581634        5.18798968858239        0.79469784202332
H           -0.63492011686979        2.80341717558630        2.76603349865647
72
 energy: 15.289425611863 xtb: 6.6.1 (8d0f1dd)
N           -1.55553654384468        2.89138273624477        2.28710848236280
C           -1.55904316057443        2.16127564392954        1.22928235461250
C           -2.73017758718129        2.07646766319551        0.27615287456892
C           -3.30070810126715        0.66723637189086        0.34409553269305
C           -4.26232964999057        0.24984901263993       -0.57749108523165
C           -4.80533654041180       -1.01814271326862       -0.53524252795582
O           -5.76216624693325       -1.50147126575449       -1.39690739354599
C           -6.30160095072948       -0.62698780063227       -2.34982829706204
C           -4.38898180344611       -1.92387566380110        0.45741095490909
O           -4.99441807500790       -3.15915416778673        0.42129504670140
C           -4.69331127226914       -4.07193144352617        1.44019670924504
C           -3.44309686849513       -1.51519166475709        1.37528332810240
C           -2.90820807777823       -0.23394408826523        1.31767339921613
C           -2.15904787784236        2.31838077115591       -1.15037914896821
C           -1.23380803353700        1.20902473109521       -1.68862357611996
C            0.02504235721663        1.16034097046918       -0.89366121550624
N            0.65542354692165       -0.10542327078775       -0.53091698260863
C            2.00824647222072       -0.10635227934285       -0.14323345125956
C            2.95190892006800       -0.60887355113520       -1.26124727486101
C            4.36592924332405       -0.54788500796419       -0.81483118575150
C            5.06888505677126        0.62539872330159       -0.97844853093920
C            6.35740614663064        0.73084636783194       -0.52467287280424
C            7.01317763501338       -0.27612621356317        0.11778283340981
O            8.33392478186046        0.12301877143171        0.51997556148508
C            9.07081914256730        1.31645478992558        0.19261305098335
C            6.30499864959823       -1.52477415345778        0.31037138897094
O            6.90560773774108       -2.60729158318637        0.93462122040423
C            6.18021107857139       -3.81929359254480        1.08274560087334
C            4.99084001610373       -1.61034973356226       -0.15977949874997
C           -0.06174652654891       -1.33085181801781       -0.63219836955862
C           -3.87245059176042        3.07874427432873        0.57409255529235
C           -4.51828529826194        2.78853986869365        1.92928243148699
C           -3.40628859263708        4.53480439180827        0.53813613165765
H           -4.58515656790938        0.93719485766497       -1.34347514782086
H           -6.76640640999515        0.24811465257393       -1.88092626588787
H           -7.06575915390352       -1.20488757642324       -2.86944012283899
H           -5.54907043971558       -0.29159597268784       -3.07254005374405
H           -4.93776860215417       -3.67090927906412        2.43091588623531
H           -5.31736548844659       -4.94269675410487        1.24049444857325
H           -3.63913832126094       -4.37222591310218        1.42413028035123
H           -3.10640775094512       -2.18718019227599        2.15046618090833
H           -2.17662696249390        0.05631963771838        2.05428680398547
H           -2.98977075641171        2.44696987112037       -1.85178432007236
H           -1.58871572104245        3.25018934120406       -1.13959643545140
H           -1.76476628939514        0.25790850724613       -1.63565305889070
H           -1.04947808433225        1.42226005891537       -2.75750873882274
H           -0.69909228905861        1.62827815358037        0.81145185583854
H            0.71501912318080        1.97670344268160       -0.99177861430435
H            2.13088093736753       -0.74192942943059        0.74562379856732
H            2.30079449019300        0.91091014095332        0.13554936787127
H            2.80011940755649        0.03729575915133       -2.12872257721193
H            2.65493737215918       -1.62369952147523       -1.53083336225406
H            4.62836304647366        1.47822961183784       -1.45945506110408
H            6.92464693553757        1.63407664101059       -0.65206479533453
H            8.75876404638352        2.28379985796702        0.62640900862110
H            9.27888369616391        1.48831294003939       -0.87491154586016
H           10.02650252877438        1.09666825173396        0.67069496060550
H            6.86710516913365       -4.51510994100301        1.57262657306660
H            5.28965631055200       -3.71460048131502        1.71604649015832
H            5.87263966148862       -4.25895059631382        0.12437412578399
H            4.39608672025872       -2.51228813123193       -0.03790381726429
H           -0.23682198542369       -1.63808666585536       -1.67534915994812
H           -1.03202693066757       -1.25462834544784       -0.13175926757686
H            0.52300039407424       -2.10445353285101       -0.13577050648791
H           -4.63863994261753        2.95276054515478       -0.20270921506680
H           -3.77950479218377        2.92330652032079        2.71249054497652
H           -4.88764620606025        1.76565954115693        1.96782185227358
H           -5.35243586401150        3.46750895671144        2.09935176009720
H           -2.61415921815841        4.68481371002905        1.26495932341776
H           -3.03887003879282        4.81114509126332       -0.44762171104847
H           -4.23945448849623        5.19117612157233        0.78604983626511
H           -0.65629772503785        2.81908681646253        2.77788916580241
72
 energy: 37.911362354808 xtb: 6.6.1 (8d0f1dd)
N           -1.58292895676532        2.92939864685435        2.31064117507918
C           -1.55973720860245        2.16871572691453        1.25856499668635
C           -2.72418442553249        2.08340805325666        0.28850716000832
C           -3.29353148912123        0.67430445995831        0.35099733983427
C           -4.24422518068093        0.25100854308599       -0.57899019526060
C           -4.78631405766646       -1.01673607441841       -0.53712005434393
O           -5.73865434149139       -1.50628118000957       -1.41050228612951
C           -6.26204402581119       -0.63453227505956       -2.37245301853897
C           -4.38474752809745       -1.91584790110681        0.46345630188574
O           -4.99532396333695       -3.15610476616719        0.42644623033741
C           -4.70560283761495       -4.05982127878426        1.45392507388769
C           -3.45095784138573       -1.50426190504008        1.39192244257826
C           -2.91582427898854       -0.22387130200048        1.33430130087146
C           -2.14484025476615        2.32679317044026       -1.13621288215250
C           -1.22340046306170        1.22058656920748       -1.69386312779706
C            0.03092924501183        1.17656510675278       -0.89426922043349
N            0.66500902022125       -0.13245822774614       -0.51679239566350
C            2.01011572773478       -0.13580710814516       -0.13647681173869
C            2.95876046089390       -0.63734915695013       -1.25400210993452
C            4.36778653992227       -0.59317597575321       -0.80440873676311
C            5.06514646645340        0.58473066142583       -0.95240636564520
C            6.34557606871239        0.68756299318139       -0.49318075977811
C            7.02170302688792       -0.30303298543368        0.14223716429374
O            8.35808869965592        0.25553398413855        0.51787776109211
C            9.07064439157277        1.46980124876811        0.14195743184163
C            6.32015744851179       -1.57251816574423        0.32229433197454
O            6.88509208026603       -2.69770223749201        0.93518635720841
C            6.12496688088963       -3.90080470177052        1.05331033204943
C            5.00246050603453       -1.65490450466024       -0.15773234255680
C           -0.06659713544599       -1.34171055011453       -0.63767976148673
C           -3.87288122889562        3.07921762147083        0.57106239563458
C           -4.52761524240378        2.79377317154714        1.92385333226005
C           -3.41100646446307        4.53758003844319        0.53358487434715
H           -4.55469736449725        0.93394260455767       -1.35481130088836
H           -6.73211261507312        0.24367710280765       -1.91322145550784
H           -7.02056432994997       -1.21309219868063       -2.90068862633084
H           -5.49976563836491       -0.30142284003424       -3.08655737847049
H           -4.96063170504023       -3.65261672048684        2.44030326745708
H           -5.32798011739992       -4.93215687760665        1.25342791287877
H           -3.65110122974204       -4.36164313854362        1.45322024539901
H           -3.12197492609035       -2.17413870231731        2.17283251790053
H           -2.19024063599175        0.06994621614632        2.07497129880380
H           -2.97453014487452        2.47320982649743       -1.83796373326060
H           -1.56344747789707        3.25242256199044       -1.11408884477769
H           -1.75081644227656        0.26726033768629       -1.63826281705191
H           -1.06155131418272        1.43904831870272       -2.76830436690938
H           -0.70467412867670        1.62141638568315        0.87960210164251
H            0.74351811775856        1.96907283992416       -1.00748911178117
H            2.13545032045398       -0.77334863867458        0.75323202087118
H            2.30232616411493        0.88102175905462        0.14699196378511
H            2.81479352227890        0.02334625076737       -2.11263822664840
H            2.64420864599080       -1.64390290110940       -1.53753976909921
H            4.62908985301814        1.44553814133502       -1.41898971920969
H            6.92255444707230        1.58679856618880       -0.59705676175321
H            8.79568862044224        2.46936332583204        0.54768863380263
H            9.30599619171888        1.62681682941719       -0.92578133353353
H           10.02312298474457        1.26068148309660        0.63394624372083
H            6.79046208420860       -4.62562580244945        1.53775997770956
H            5.22972869557241       -3.79781327333073        1.68179295225534
H            5.81360543455290       -4.32521643976047        0.08774290725225
H            4.39832096821130       -2.55616759278134       -0.05039655324562
H           -0.24260769559375       -1.64372947926235       -1.68492205768880
H           -1.03907316871438       -1.26033051520896       -0.14159846284022
H            0.50732303653769       -2.12579180649775       -0.14242874255907
H           -4.63466828999538        2.94974380566979       -0.21055565147699
H           -3.79012330577308        2.93225757584695        2.70740714966421
H           -4.89340057700450        1.76930532425260        1.96353747586291
H           -5.36460696855219        3.47146380591541        2.08763115081671
H           -2.62022354544459        4.68642589778086        1.26174290076077
H           -3.03905416544485        4.80980079870477       -0.45183886107626
H           -4.24599869848719        5.19405359514564        0.77701192828240
H           -0.67646544337425        2.83761564676918        2.79274172405717
72
 energy: 65.846423278941 xtb: 6.6.1 (8d0f1dd)
N           -1.60583143137250        2.95746293138575        2.33435413420044
C           -1.56128301251376        2.17867121964939        1.28394116647850
C           -2.71845825748766        2.08996569795540        0.29967570885189
C           -3.28586963747777        0.68052829259461        0.35764050009407
C           -4.22529018233068        0.25178243391096       -0.58127771181530
C           -4.76720156085971       -1.01558169476449       -0.53964674853442
O           -5.71426121326264       -1.51047821627158       -1.42354209973915
C           -6.22235020879351       -0.64208423205832       -2.39519248257877
C           -4.38039142881458       -1.90838459702372        0.46962245975641
O           -4.99530031310257       -3.15218701642267        0.43193676396637
C           -4.71799393668952       -4.04777459634265        1.46811852201342
C           -3.45837142077710       -1.49366575138338        1.40821603580430
C           -2.92242392027782       -0.21416077379719        1.35042129172881
C           -2.13091214855764        2.33570137104477       -1.12272127554979
C           -1.21436502313465        1.23155207905691       -1.69732995982998
C            0.03566213063231        1.19081447487522       -0.89401295793385
N            0.67366700901692       -0.15795055809991       -0.50418398156783
C            2.01267118973463       -0.16441475940597       -0.12905114395492
C            2.96420454216732       -0.66544884387120       -1.24685069588304
C            4.36871854761024       -0.63727430222195       -0.79323294669354