25
 energy: 0.000000000000 xtb: 6.6.1 (8d0f1dd)
C            3.23720132972391        1.16630909158653        0.08434468864950
N            2.29877796055224        0.07527476373246        0.03981602671198
C            2.58028186251803       -1.21425391179017        0.03006175752192
N            1.43813944744728       -1.93419254010258        0.00098261751768
C            0.39035684826767       -1.05887462812143       -0.00790371763344
C            0.93510047688824        0.21347817468824        0.01709077332874
C            0.09450143016486        1.40504290868848       -0.00410946993748
O            0.49712746915594        2.54126690785742       -0.00342325656480
N           -1.25076628431515        1.06271869620815       -0.03085477937476
C           -2.21907191394203        2.15522079838987       -0.05001256521996
C           -1.81739470187490       -0.20012724136556       -0.04692818139228
O           -2.99983858926755       -0.37846413507442       -0.07008877579474
N           -0.92618577614240       -1.30210203518959       -0.03682761236648
C           -1.46982251276835       -2.64643077634382       -0.06029819901142
H            3.71247229913541        1.21471443890471        1.06488839270555
H            4.00791460421487        1.03430799217987       -0.67357688121503
H            2.69909982127087        2.09770098766290       -0.09130154035862
H            3.56654087521359       -1.63682977417947        0.04233139674524
H           -1.67107945562430        3.09322822573871       -0.02552706696334
H           -2.82428927394145        2.09428605349656       -0.95318074103337
H           -2.87644002486466        2.07745706351925        0.81450059976605
H           -1.17061985538665       -3.19584861009707        0.83242224714061
H           -1.14560246782873       -3.17511580834413       -0.95688266944647
H           -2.55549768731684       -2.55659960601237       -0.07459039105944
H            1.38130842369251       -2.94313824728853       -0.01389874052104
25
 energy: -6.036791998007 xtb: 6.6.1 (8d0f1dd)
C            3.22687202424381        1.23327847191670        0.09039617397017
N            2.33052044532117        0.10444882955739        0.03612529385670
C            2.61344177738101       -1.25600478315440        0.03317797413897
N            1.42056128245805       -1.95458826844457        0.00158442992632
C            0.40366925584885       -1.07550258434488       -0.01071760936496
C            0.93642468244758        0.20670296423583        0.01119730785460
C            0.12825542921176        1.36430402684447       -0.00763484094850
O            0.51105508636915        2.53779099669965       -0.01048902855907
N           -1.25936123984390        1.03465270506848       -0.03178977951246
C           -2.20079837232131        2.14058983921934       -0.04866866561193
C           -1.81708255825619       -0.20682623841639       -0.04837612438409
O           -3.01811166487602       -0.38607010828690       -0.06983253634089
N           -0.94110914029813       -1.31038907408164       -0.03907919695520
C           -1.49646704904437       -2.64379016318774       -0.06165612053858
H            3.72347882053411        1.31680776849385        1.06429400223629
H            4.00423090753770        1.15061114540910       -0.67626550591338
H            2.64160963634651        2.13569145921403       -0.07677357703936
H            3.58053903065049       -1.69358309927882        0.04371088265583
H           -1.63535180433730        3.06933919725875       -0.02526151132288
H           -2.80568520990294        2.09616968403833       -0.95314576285230
H           -2.85218553725558        2.08057896861702        0.82125550755703
H           -1.20847451809648       -3.20460447903410        0.83040335609767
H           -1.18322235719559       -3.18483305843691       -0.95758654034558
H           -2.58091320316519       -2.53304188326810       -0.07595866864326
H            1.34296307095449       -2.95804642880443       -0.01172161268483
25
 energy: -3.750218164959 xtb: 6.6.1 (8d0f1dd)
C            3.20702783295183        1.29119747034487        0.09201704407627
N            2.36120870288906        0.09755227114913        0.04005775529777
C            2.62873856993095       -1.28023474707234        0.03846703349541
N            1.42570990377948       -1.97872336583364        0.00602859306584
C            0.41256397943429       -1.09593193967921       -0.01091920704485
C            0.95775781189283        0.18296909216755        0.00999398501666
C            0.14221874585857        1.33546980655857       -0.01029401712476
O            0.52400723964509        2.50800166811473       -0.02025456557394
N           -1.24901468316783        1.01512129063678       -0.03243347476129
C           -2.17812672761593        2.13197667388710       -0.04750743424739
C           -1.81342060043282       -0.22175336534926       -0.04987934335446
O           -3.01647631388345       -0.39553325190865       -0.07258859723062
N           -0.93855601053552       -1.32603567567487       -0.04092950457164
C           -1.52165281805778       -2.64826882394845       -0.06348848356934
H            3.71273822297773        1.41633274823119        1.05830137356824
H            3.98562696698988        1.26084809603252       -0.68091461237231
H            2.57298486099178        2.15880921242915       -0.06759999780319
H            3.58484484080534       -1.74280465879174        0.04655579479803
H           -1.60208106611105        3.05312128790830       -0.02520885794399
H           -2.78498136657826        2.10017759618952       -0.95089919099808
H           -2.82509194241042        2.08627666483444        0.82570961575265
H           -1.25171200668156       -3.21717437825379        0.82876228316981
H           -1.22441319853475       -3.19739122852152       -0.95954748249646
H           -2.60443546200169       -2.51063057029950       -0.07877862835614
H            1.32042765785830       -2.98130591581142       -0.00719253282827
25
 energy: 0.548229116140 xtb: 6.6.1 (8d0f1dd)
C            3.18947465184528        1.35043281744524        0.09399905502537
N            2.39285933982709        0.09172344623734        0.04723765554934
C            2.64497217872564       -1.30437465885335        0.04771504935245
N            1.43352206871926       -2.00350772379599        0.01218936932238
C            0.42412826494582       -1.11618912589796       -0.00988443597836
C            0.98021233440185        0.16059212923008        0.01073869599192
C            0.15726506148663        1.30905181319096       -0.01436601957133
O            0.53497162992352        2.48139630576441       -0.03276765268863
N           -1.23536846844817        0.99716908357006       -0.03478498745087
C           -2.15324877473196        2.12475852659421       -0.04654309094950
C           -1.80437693980254       -0.23589150715795       -0.05279788106065
O           -3.00802192673562       -0.40641301665869       -0.07694208384568
N           -0.93271828810436       -1.34248219816028       -0.04362771465144
C           -1.54498614304813       -2.65315652188724       -0.06544585631232
H            3.70706324484724        1.51553679368000        1.04895937082734
H            3.96418518753774        1.37216106928017       -0.68602077829425
H            2.50394819513038        2.17632268188274       -0.05521752957908
H            3.58920284519321       -1.79064706275236        0.04789045051553
H           -1.56556553474339        3.03772751242962       -0.02466184071103
H           -2.76267551213488        2.10553378688520       -0.94847952347664
H           -2.79531735923209        2.08861517952850        0.83009961784547
H           -1.29309682825959       -3.22939523742359        0.82685910353874
H           -1.26560679958702       -3.21041106010948       -0.96165078904097
H           -2.62554230058209       -2.48969080762563       -0.08056285452358
H            1.29869230956640       -3.00445349340074       -0.00351996919845
25
 energy: 7.051808123171 xtb: 6.6.1 (8d0f1dd)
C            3.17682143050055        1.41196250432970        0.09744521279510
N            2.42249811015592        0.08385900352229        0.05626004971506
C            2.66151547909320       -1.32977004741956        0.05696771677302
N            1.44488152225551       -2.03040320694329        0.01721908113435
C            0.43624939815827       -1.13912392808636       -0.01026816319173
C            1.00155521986696        0.13694296508180        0.01022030375297
C            0.17275134938254        1.28224286026517       -0.01959770540905
O            0.54489204390599        2.45467336065883       -0.04534610999595
N           -1.22073945407614        0.97957536778454       -0.03765139527502
C           -2.12762110559921        2.11742345090810       -0.04576083102050
C           -1.79392973412481       -0.24917341404504       -0.05583459492749
O           -2.99815255001610       -0.41343496205661       -0.08004718667041
N           -0.92652982168606       -1.35954448543384       -0.04668107369961
C           -1.56724581064830       -2.65768199789470       -0.06679292281701
H            3.70626115159032        1.61531268019994        1.03959425901612
H            3.94620752365687        1.48275914086618       -0.68830563605141
H            2.44186855799190        2.19486344653736       -0.03826675451068
H            3.59255870387346       -1.83908114712149        0.04644291500124
H           -1.52957607790573        3.02376261323937       -0.02460835426221
H           -2.73888391389212        2.10668836794888       -0.94627757346020
H           -2.76480614629933        2.08800627329070        0.83406352872676
H           -1.33171013886124       -3.23969609096954        0.82577771543903
H           -1.30537030775145       -3.22249778471539       -0.96303314765221
H           -2.64472725211924       -2.46917126730756       -0.08091485198816
H            1.28928747927626       -3.03228693990090        0.00280678309846
25
 energy: 15.497580391412 xtb: 6.6.1 (8d0f1dd)
C            3.16712635432673        1.47562087788481        0.10028083747322
N            2.44359296076355        0.06769409359436        0.05999006347296
C            2.67326503004691       -1.35721127466936        0.07279299133758
N            1.45607878434828       -2.05815121167696        0.02184079904102
C            0.44532177360937       -1.16536913929759       -0.01210046846589
C            1.01925911027873        0.11075484084202        0.00804918445843
C            0.18954848428455        1.25523639416738       -0.02347451059235
O            0.55934430941471        2.42804387274966       -0.05532488337430
N           -1.20437563526086        0.96282890540212       -0.03929556495503
C           -2.10226869897383        2.10899070491780       -0.04429966806474
C           -1.78296812482932       -0.26102072400312       -0.05788361678689
O           -2.98842817742008       -0.41205313623692       -0.08189496899207
N           -0.92243248669917       -1.37775055013788       -0.04972543613716
C           -1.59161911198644       -2.66232953645699       -0.06888557029474
H            3.69971855966149        1.71449187585411        1.03140187076288
H            3.92567770896864        1.59065771413727       -0.69155711900559
H            2.38521122218507        2.21498751813046       -0.02361811953801
H            3.59275126881642       -1.88695593969390        0.04757663134600
H           -1.49522924943701        3.00969006698845       -0.02417987185478
H           -2.71505247984960        2.10626704625036       -0.94341334295168
H           -2.73546799810445        2.08750200140586        0.83817645688577
H           -1.37268039798648       -3.25031766859552        0.82377708413913
H           -1.34615328587320       -3.23387124382334       -0.96519178807280
H           -2.66512515653306       -2.44725508297851       -0.08273486034873
H            1.30466453288019       -3.06320910968720        0.01098975279595
25
 energy: 26.381907260621 xtb: 6.6.1 (8d0f1dd)
C            3.17017025298250        1.53959731544769        0.10900101551490
N            2.45172784041806        0.04479722403337        0.06017303405079
C            2.66999457366309       -1.38231150252669        0.10078531819594
N            1.45512228433521       -2.08702970340082        0.03157574328153
C            0.44470759373787       -1.19245572052312       -0.00663698728585
C            1.02851163406808        0.08427160001643        0.01311830649193
C            0.20749063482088        1.23064147152853       -0.03040428243612
O            0.58309010236755        2.40413533278303       -0.06987711851029
N           -1.18686095423902        0.95012444056660       -0.04474813337292
C           -2.07884171420914        2.10167066359883       -0.04316389374232
C           -1.77461538899139       -0.26929803915557       -0.06271628379094
O           -2.98252346055377       -0.40025465095204       -0.08467215500259
N           -0.92504702977801       -1.39524484284145       -0.05123827864635
C           -1.61907194704532       -2.66937882483529       -0.07232482040584
H            3.70577904911311        1.82594402181766        1.02139375190898
H            3.90150474811459        1.67928510042739       -0.69424576385792
H            2.35462979745851        2.26084439258143       -0.00842218190393
H            3.58361964304472       -1.93050215254871        0.04156026648494
H           -1.46678574648488        2.99868916091028       -0.02412993642608
H           -2.69686560380129        2.10710327084099       -0.93845063927437
H           -2.70615123335903        2.08334480712631        0.84340562599168
H           -1.41456776449909       -3.26440578029948        0.81878934818290
H           -1.38951224655293       -3.24661517941786       -0.96893342034655
H           -2.68816822910489       -2.43001967754305       -0.08471066077818
H            1.32696777791972       -3.09566204492461        0.01168375225195
25
 energy: 41.674779481229 xtb: 6.6.1 (8d0f1dd)
C            3.27873190489066        1.89101628252186        0.12302304470895
N            2.42049995134605       -0.16018103709389        0.03563790030262
C            2.60405518622192       -1.45620421426186        0.06884825943145
N            1.42079433073155       -2.16738428296062        0.02876502734689
C            0.41926035471497       -1.24048557996623       -0.01443881692188
C            1.04592139609837        0.00829337776651       -0.00101033719219
C            0.22719288318418        1.20054762038383       -0.04005547680994
O            0.58093136796321        2.35547936927040       -0.09844207183765
N           -1.16103862399274        0.92870930940186       -0.04403534445817
C           -2.04940703918267        2.09009623727763       -0.04193676536827
C           -1.76999271407923       -0.28660189396143       -0.06142321914628
O           -2.97742708599327       -0.38862576860228       -0.08273999970489
N           -0.94168416961172       -1.42071311117898       -0.05354667252340
C           -1.65561298600686       -2.67801691076813       -0.07160763736455
H            3.73407207435666        1.98559263091191        1.06530477931542
H            3.92314075146952        1.85106139576835       -0.71908782630705
H            2.32459301865279        2.33392285490701        0.02033541447410
H            3.54693960433231       -1.98196140925891        0.05851116462298
H           -1.43130253009419        2.98096213342458       -0.02457940719382
H           -2.66803968821293        2.10267543076431       -0.93663938538644
H           -2.67356237167801        2.08192773696967        0.84668365784033
H           -1.46142567267473       -3.27197136992567        0.82191648344660
H           -1.43376016046087       -3.25838106251744       -0.96744308071402
H           -2.71722531834468       -2.40824715317769       -0.08595979581289
H            1.30855822189836       -3.17003909898484        0.02537025624513
25
 energy: 42.492012903483 xtb: 6.6.1 (8d0f1dd)
C            3.28285386172859        1.98876058220379        0.12911571468035
N            2.42238913316900       -0.20606279099620        0.04042620615436
C            2.58771234358161       -1.49887923667719        0.06823536932039
N            1.40377633153068       -2.20658302544050        0.02641142127674
C            0.41176403879247       -1.26846714260535       -0.01470335344050
C            1.05174021576119       -0.02454817443231       -0.00260882947855
C            0.24179955237683        1.17605584289166       -0.04874673595356
O            0.59277961207542        2.32715109933983       -0.12330723392218
N           -1.14411861734754        0.91538196400398       -0.04554584979783
C           -2.02451497597124        2.08418268669124       -0.03903048060103
C           -1.76502241573233       -0.29642220197867       -0.06275819988471
O           -2.97377450724829       -0.37709955823087       -0.08249261875190
N           -0.94939816956416       -1.43863993790285       -0.05574516559313
C           -1.68295914257139       -2.68615648805082       -0.07520540380348
H            3.73250068613083        2.09768931563535        1.06509913014613
H            3.88440429714070        1.95528347385841       -0.73297302758211
H            2.29097688598432        2.35222572538492        0.05010750214684
H            3.52716080252345       -2.03531526919411        0.05894078188275
H           -1.39788831088210        2.96771726239272       -0.02322278850255
H           -2.64568977535740        2.10497998885741       -0.93145915925283
H           -2.64292160497011        2.08195774953572        0.85323443397208
H           -1.50152068278833       -3.28525511348369        0.81745386642641
H           -1.47336923598698       -3.27022490341611       -0.97135775366393
H           -2.74053786597485       -2.39484655152805       -0.08945795025718
H            1.29734835594211       -3.21060638998090        0.03164968112939
25
 energy: 42.661770502389 xtb: 6.6.1 (8d0f1dd)
C            3.30969796446971        2.07781636175370        0.14096838347908
N            2.41946003453966       -0.24791821791334        0.03745248980299
C            2.56719178454582       -1.53910444978274        0.05811947690746
N            1.38250724285106       -2.24321308049825        0.02138913897875
C            0.39907225941994       -1.29537444171893       -0.01685143533747
C            1.05306714222647       -0.05738812725490       -0.00746818060736
C            0.25393761769688        1.14971045668322       -0.05669640715076
O            0.61571084869198        2.29403178353103       -0.13786870313678
N           -1.12976853738482        0.90192781884606       -0.04707433310920
C           -1.99938418221007        2.07985169620422       -0.03800680386988
C           -1.76296469983748       -0.30611620717887       -0.06363426058412
O           -2.97281520332804       -0.36545846975109       -0.08163885887020
N           -0.96153348220173       -1.45739228611698       -0.05758462491012
C           -1.71010400542322       -2.69811075929192       -0.07681724014013
H            3.75802859341920        2.21087204888241        1.06863654546448
H            3.85849428283938        2.06726197013972       -0.74860130088062
H            2.30434377612185        2.39325644854574        0.09483388888236
H            3.50122508355710       -2.07399499342788        0.04975313600167
H           -1.36257821532107        2.95497182881866       -0.02454457769315
H           -2.62223504339950        2.10836714100731       -0.92879210950769
H           -2.61310519965387        2.08694750261273        0.85712831544187
H           -1.53972186826323       -3.29978898272445        0.81578519425779
H           -1.51217170928158       -3.28558635843578       -0.97279916099054
H           -2.76699200461875       -2.39689228054995       -0.09149166886503
H            1.27840642484172       -3.24831404495629        0.03246359377146
25
 energy: 42.390845315675 xtb: 6.6.1 (8d0f1dd)
C            3.34295183704525        2.17032773350533        0.14794256775799
N            2.41513640129980       -0.29085593422477        0.03299821569733
C            2.54811021407564       -1.58153548358044        0.04396314776190
N            1.35822451380496       -2.27676918069755        0.01598119363392
C            0.38495289741125       -1.32039495712605       -0.01895691948615
C            1.05359716220980       -0.08974514955125       -0.01141942087556
C            0.26481436945626        1.12198569409869       -0.06250820803335
O            0.64036623814785        2.26017146874640       -0.14681019049470
N           -1.11768680811949        0.88706497387224       -0.04864451519187
C           -1.97543117864879        2.07565933429580       -0.03617980622542
C           -1.76367755789256       -0.31549443420220       -0.06425480344517
O           -2.97426528538631       -0.35356940648285       -0.08130388362739
N           -0.97523367657810       -1.47489217602638       -0.05933511179580
C           -1.73908515291731       -2.70731627570705       -0.07912068750789
H            3.81032738792701        2.31715391720020        1.06317216228268
H            3.84977298989950        2.18629856524553       -0.76339352408476
H            2.32457117629187        2.44629267842025        0.13127747287379
H            3.47780392564441       -2.12167575758006        0.04091148739591
H           -1.32811969012780        2.94184225467672       -0.02391825594819
H           -2.60047998122721        2.11391731700429       -0.92523417543105
H           -2.58462756663040        2.09281955583630        0.86184071337013
H           -1.58046774046474       -3.31396946483099        0.81261973435245
H           -1.55221664137098       -3.29980553230958       -0.97448227238979
H           -2.79227675052547       -2.38436355764822       -0.09448227995327
H            1.24850455131705       -3.28131715118841        0.03123905730212
25
 energy: 42.203442047210 xtb: 6.6.1 (8d0f1dd)
C            3.38121816188243        2.26135623796846        0.15220723191221
N            2.40510932251101       -0.33212299995691        0.02881022705080
C            2.52506957269441       -1.62250742344148        0.03417043130132
N            1.33201901189135       -2.30898258604172        0.01252314846060
C            0.36827751357349       -1.34498452500175       -0.02232249702723
C            1.04919879976300       -0.12131544848298       -0.01649924404954
C            0.26919305612713        1.09524739665613       -0.06670279536329
O            0.66764122450609        2.22680635453671       -0.13703296077097
N           -1.10945441890994        0.87317796142459       -0.05179744863661
C           -1.95203626565120        2.07408353166563       -0.03496272348772
C           -1.76864144888380       -0.32489243115206       -0.06509074836357
O           -2.97988958795547       -0.34556498321911       -0.08041872227148
N           -0.99195420799402       -1.49180893193035       -0.06111960522145
C           -1.76951538683201       -2.71618152993983       -0.08104696244338
H            3.84838835376073        2.42902229763048        1.06246589281101
H            3.85698612593756        2.30853245337537       -0.77153938562403
H            2.35338165220134        2.49210184718811        0.14484572847930
H            3.44822901316194       -2.16422926436641        0.03540261145907
H           -1.29172504109310        2.92919774562849       -0.02379962061866
H           -2.57915694020938        2.12346040818262       -0.92209911185748
H           -2.55522898463739        2.09981649092899        0.86654030627283
H           -1.62099654972442       -3.32733159720918        0.81009266197481
H           -1.59233454146524       -3.31379828308787       -0.97568943694367
H           -2.82045067623684       -2.37902603424767       -0.09714913153461
H            1.21072291821684       -3.31075059277357        0.02626015166024
25
 energy: 41.849445082281 xtb: 6.6.1 (8d0f1dd)
C            3.42154994134982        2.35135369325300        0.15617424091237
N            2.39374603468856       -0.37549401004527        0.02457164391609
C            2.50251997601244       -1.66607824757783        0.03017686326916
N            1.30733723293778       -2.34445790137040        0.01184994684971
C            0.35095180993841       -1.37168561154699       -0.02370400238110
C            1.04345910917574       -0.15470871130316       -0.02030001181277
C            0.27128459664656        1.06599169371317       -0.07114930595233
O            0.68274511461909        2.19210704259441       -0.14227045552050
N           -1.10347995364625        0.85953671812479       -0.05256322366425
C           -1.92972389024905        2.07278821830171       -0.03336023771317
C           -1.77702351229109       -0.33230229991009       -0.06466821079455
O           -2.98810808663584       -0.34149407230513       -0.08160664920245
N           -1.01063586883337       -1.50796915332139       -0.06184241941559
C           -1.80047517778001       -2.72527744410285       -0.08268384274698
H            3.88418853504739        2.54098854984555        1.06325796072218
H            3.87075462902840        2.43326743757067       -0.77579049465147
H            2.38639533928678        2.53145757740900        0.14637978362690
H            3.41965006095370       -2.21188339290704        0.03418155838171
H           -1.25821752095423        2.91881190491736       -0.02336803336202
H           -2.55829705830911        2.13185075287739       -0.91892441474081
H           -2.52676614504217        2.10533177033885        0.87156594461237
H           -1.66245816841529       -3.34067304203420        0.80756187313158
H           -1.63260280254986       -3.32753845677466       -0.97648277747416
H           -2.85068349131632       -2.37985148127972       -0.09904972552784
H            1.18116767237073       -3.34539796127718        0.02718493236893
25
 energy: 41.000935630812 xtb: 6.6.1 (8d0f1dd)
C            3.45633253873086        2.44222406490101        0.16451758079907
N            2.38214400543261       -0.41681781520336        0.02087099425819
C            2.48151476121939       -1.70746152576159        0.02756978161136
N            1.28212032369993       -2.37652275693583        0.01085012072160
C            0.33228260695613       -1.39208884051507       -0.02526539863191
C            1.03602636349200       -0.18189279456527       -0.02386252338939
C            0.27753067514780        1.04755304886303       -0.07371266766541
O            0.67728551020273        2.17920306897721       -0.13699258653741
N           -1.09383863229287        0.84950010023883       -0.05281757008373
C           -1.90733594026177        2.07174906930291       -0.03141598052629
C           -1.78326285382107       -0.33392250396380       -0.06391766178030
O           -2.99337517237931       -0.32564365612900       -0.08091735933805
N           -1.03008011952756       -1.51621553400954       -0.06167639950965
C           -1.82651389729564       -2.73193846331541       -0.08383548439856
H            3.92353955608386        2.64517415509725        1.06607844936785
H            3.88486424491033        2.55781659857837       -0.77398987225037
H            2.41449253459114        2.57865259312951        0.16232075961233
H            3.39797893060865       -2.25058302576865        0.05147802355565
H           -1.22792615491420        2.91388617856801       -0.02283602808473
H           -2.53703044692722        2.13767636897037       -0.91569938990017
H           -2.49872990416585        2.10222905531906        0.87699502499791
H           -1.70042244971965       -3.35144762964771        0.80499314126066
H           -1.67096711642257       -3.33700699763745       -0.97799469936462
H           -2.87408101525201       -2.38998331152261       -0.09807948721112
H            1.15366546136898       -3.37840172376938        0.02891078006801
25
 energy: 39.417459704036 xtb: 6.6.1 (8d0f1dd)
C            3.50019056536239        2.54238689303617        0.17607969944614
N            2.37221100411577       -0.46120319993116        0.02020082840636
C            2.46123217571525       -1.75224159554584        0.02374139965470
N            1.25491319363465       -2.40921190127181        0.01341880330290
C            0.31404587412631       -1.41453005202718       -0.02585946979308
C            1.02910597675213       -0.21164404386825       -0.02499477816366
C            0.29147796418478        1.02969463685730       -0.07566574801029
O            0.70301898233751        2.15788195759250       -0.13493527147997
N           -1.08142027735400        0.84270033624434       -0.05007927983030
C           -1.88383491008075        2.06940039467371       -0.02851053150892
C           -1.78562348008886       -0.33035199501151       -0.06332325832355
O           -2.99761644850439       -0.31092722488594       -0.07942209702374
N           -1.04962790073834       -1.52152188548822       -0.06158990529270
C           -1.85523920810842       -2.73551421374741       -0.08532774182106
H            3.97284320731922        2.74042669056778        1.07972451051241
H            3.94273734580085        2.65234664400769       -0.76072069415320
H            2.45458538306904        2.63046364523301        0.16566797554050
H            3.37163301143293       -2.30142878856700        0.05246687133977
H           -1.19398143422743        2.90485727911589       -0.02079293481233
H           -2.51393683104750        2.13923969316993       -0.91232475210847
H           -2.47155761127627        2.09912021444958        0.88207686624557
H           -1.73910497581488       -3.35778509296587        0.80298129357381
H           -1.70983448929831       -3.34300954432906       -0.97980974365900
H           -2.90278066998289       -2.39330631954243       -0.09916261222394
H            1.12142844865896       -3.41102808373309        0.02933679505355
25