25
 energy: -43.826523051888 gnorm: 0.139445661309 xtb: 6.6.1 (8d0f1dd)
C            3.22871817361028        1.23591843410042        0.05370307036278
N            2.32463864787145        0.11128446094254        0.01647938652663
C            2.72383095322259       -1.25956385094752        0.00310482546998
N            1.46446447906327       -1.97385372819512        0.01243632292720
C            0.42192124814450       -1.08019802958942       -0.00816658696201
C            0.93124491855690        0.19584706337672       -0.01718395942741
C            0.11163484771137        1.36114973734133        0.00003649904881
O            0.51434917427309        2.52713459548835        0.01800945322869
N           -1.27184994221583        1.03119059249934       -0.02115662312247
C           -2.21823613910949        2.14589419144141       -0.03696808625039
C           -1.83484264353854       -0.21595677573409       -0.04617861130818
O           -3.02406552461680       -0.38565961226930       -0.07154170385192
N           -0.94804556567174       -1.31532549963894       -0.03470184528164
C           -1.48822399939734       -2.64181809901613       -0.06311360032124
H            3.61792484647811        1.31789947425106        1.09376063038636
H            4.13176115278374        0.96882121762164       -0.57418682679220
H            2.69563655011508        2.10776351567054       -0.18464685824376
H            3.65413079543188       -1.65030774944228        0.01066428053031
H           -1.65793692439421        3.08037986145127       -0.01288810733379
H           -2.82631447633785        2.10411546806370       -0.94022781530149
H           -2.87771983163286        2.07688825655510        0.83009584383711
H           -1.20491563878032       -3.20030982367868        0.82660749525154
H           -1.16992170659477       -3.17436879928576       -0.96065230700979
H           -2.57576609792772       -2.53890846394367       -0.07979358682916
H            1.33317956042155       -2.95638222960960        0.00241088060051
25
 energy: -43.835727574525 gnorm: 0.039489857226 xtb: 6.6.1 (8d0f1dd)
C            3.24143462985831        1.20979931442729        0.07197855981943
N            2.32000598236572        0.10803127689767        0.01397361960268
C            2.66692240969571       -1.25168799432495        0.00515542161810
N            1.44678614299388       -1.96109660321284        0.00750092180878
C            0.42032993103141       -1.07421311709922       -0.01182446493456
C            0.93387240804244        0.20507643084532       -0.01361429570194
C            0.11442193429834        1.36702037780554       -0.00235136113342
O            0.49934199931938        2.53684070576297        0.01414007304956
N           -1.26519836749556        1.03377393501811       -0.02243944060998
C           -2.21491067077302        2.13969393986197       -0.03644657285916
C           -1.81992098990676       -0.21471615262169       -0.04485087587521
O           -3.01733333329225       -0.39571342026405       -0.07091897657218
N           -0.93253835491596       -1.31012407886904       -0.03502239937159
C           -1.48118752059939       -2.64126970237339       -0.06301141019803
H            3.62910385174610        1.32266282634875        1.09907858295389
H            4.10618542263104        0.99282036156185       -0.57959091405977
H            2.71172369981473        2.10497661136340       -0.19875000843372
H            3.63191850335792       -1.66457450931867        0.01743282052475
H           -1.64510707227450        3.06652728299471       -0.01066097198566
H           -2.82302015807448        2.09834475333610       -0.94023779063332
H           -2.87348465684918        2.07444343207719        0.83019859121431
H           -1.19618645724264       -3.20347829012027        0.82762655231433
H           -1.16357219165577       -3.17743641735589       -0.95995673217300
H           -2.56797337876947       -2.53753450061506       -0.08041948832072
H            1.33398309416034       -2.95653225467289       -0.00108726990912
25
 energy: -43.836092290405 gnorm: 0.020601262791 xtb: 6.6.1 (8d0f1dd)
C            3.24174485619581        1.19996135770235        0.06964716805561
N            2.32809945231855        0.10079383949345        0.00157712019483
C            2.66509607646296       -1.24709495062503       -0.00095671787715
N            1.46322330721935       -1.95674052600482        0.01144403325669
C            0.42656835119558       -1.08495456658112       -0.00895796695537
C            0.94030824566709        0.19816548541091       -0.01111179572003
C            0.12222495745326        1.35732024416201        0.00149428567748
O            0.51054645336667        2.52693631751700        0.01937504883843
N           -1.26442813876467        1.03537782547093       -0.02138981948162
C           -2.21695486984760        2.14196063571700       -0.03671374780143
C           -1.81574670371258       -0.21198978905620       -0.04461738840443
O           -3.01799304661752       -0.39308302635133       -0.07302610929123
N           -0.92750730376518       -1.31178598294129       -0.03166861129712
C           -1.49473279698085       -2.63977456130326       -0.06284002359223
H            3.60319811365623        1.31927264908342        1.09623800472566
H            4.11092781997236        0.99255635591602       -0.56386183546716
H            2.69960882969346        2.10447829835600       -0.20482722799648
H            3.65451009294863       -1.65013664723991        0.00344329748087
H           -1.66091972704170        3.07760596059660       -0.01152695009877
H           -2.82741265445960        2.10247802330306       -0.93929487058008
H           -2.87932887754503        2.07687310377220        0.82683285573907
H           -1.21487641418058       -3.20390434191195        0.82882603308645
H           -1.17894368137022       -3.17548646732105       -0.96081401450339
H           -2.58054080772599       -2.52816938365766       -0.08101816871218
H            1.36892532332792       -2.95902564605443        0.00964957085804
25
 energy: -43.836633100054 gnorm: 0.011488110408 xtb: 6.6.1 (8d0f1dd)
C            3.24587301496590        1.19896375293649        0.06919727294762
N            2.32811334563745        0.10127120448955        0.00623047494359
C            2.65836738264571       -1.25058132023759        0.01013607058460
N            1.45397248724115       -1.95363454381807        0.00783707149962
C            0.42007025539791       -1.08020071420067       -0.00964658566222
C            0.93684963453148        0.20351734275024       -0.00873221213414
C            0.11765572179081        1.36005750117334       -0.00232034004193
O            0.50285807060136        2.53255268304051        0.01450901737614
N           -1.27112728712524        1.03520114141430       -0.02319809852278
C           -2.21762172592834        2.14397320588558       -0.03647208687267
C           -1.82333633528317       -0.21054420684797       -0.04544411014425
O           -3.02511309948546       -0.39195193809150       -0.07127467973679
N           -0.93321278804683       -1.30953986837601       -0.03377715171101
C           -1.48594151769680       -2.64336012656126       -0.06397828394795
H            3.62387381197648        1.31619620553736        1.09004261061958
H            4.10742215113314        0.98478992372284       -0.57732456749630
H            2.70414421568096        2.10811514988763       -0.19143036849068
H            3.64576063607351       -1.65527952754604        0.01861581552409
H           -1.65244886477384        3.07465061329573       -0.01238826050972
H           -2.82763913219482        2.10516106529558       -0.93945790690726
H           -2.87642151200504        2.07932078360202        0.83010187467715
H           -1.19441882417866       -3.20174025687003        0.82733257753051
H           -1.16123750973911       -3.17518693104585       -0.96104065781021
H           -2.57204476895560       -2.54546862506762       -0.08018677169992
H            1.35119949520340       -2.95464830691566       -0.00142853388061
25
 energy: -43.836658318847 gnorm: 0.009145663101 xtb: 6.6.1 (8d0f1dd)
C            3.24408128301077        1.20581279846848        0.07233593299832
N            2.32957744106333        0.10248731525628        0.00749857176526
C            2.65925726672102       -1.25410458347914        0.00548932395381
N            1.45177831033066       -1.95622605694597        0.00775002181393
C            0.42085436946348       -1.07954889779869       -0.01108752334591
C            0.93741217589628        0.20537897871450       -0.01083000781304
C            0.12005226543945        1.36151946267290       -0.00256027271648
O            0.50256595873691        2.53575016828504        0.01539890671395
N           -1.26822434584241        1.03202426603833       -0.02251685634990
C           -2.21399513985847        2.13833668344677       -0.03649407635391
C           -1.81984806933214       -0.21257796405281       -0.04545322359329
O           -3.01933531419585       -0.39600372656095       -0.07102564325187
N           -0.93167442311311       -1.31063497154500       -0.03410440591200
C           -1.48773031695832       -2.64193043818052       -0.06273510161625
H            3.61921300904209        1.32965082753326        1.09759758917513
H            4.11087466482914        0.99559202905588       -0.57266818464451
H            2.70269386354502        2.10846758997493       -0.19720840805081
H            3.64064801320899       -1.66008006344213        0.00771261679700
H           -1.64450879589585        3.06611957212106       -0.01051602223572
H           -2.82050126354875        2.09631139062118       -0.94163497438500
H           -2.87311715928396        2.07112068774061        0.82967714780973
H           -1.20339804025849       -3.20244868319406        0.82924005650212
H           -1.16994538619433       -3.17745798297939       -0.95975352771330
H           -2.57208666885612       -2.53023039278249       -0.07965480221885
H            1.34095315951700       -2.95569380151518        0.00144503280605
25
 energy: -43.836805570595 gnorm: 0.003677830002 xtb: 6.6.1 (8d0f1dd)
C            3.24467121175777        1.20194676208880        0.07039668487189
N            2.32881729776522        0.10174266759582        0.00578559706415
C            2.66009587874893       -1.25236055262765        0.00748531080270
N            1.45526641540932       -1.95560884682514        0.00916636220978
C            0.42193697718067       -1.08074720238141       -0.01039964899831
C            0.93677554916640        0.20500449168397       -0.01063365417931
C            0.12023940734894        1.36115131201623       -0.00133347542268
O            0.50357225896911        2.53467793847675        0.01651868543433
N           -1.26939917299586        1.03419569388364       -0.02183420903957
C           -2.21709499909006        2.14135447855330       -0.03620579181963
C           -1.81928980327572       -0.21118346048679       -0.04480943172672
O           -3.01900280177412       -0.39522768083947       -0.07180604582746
N           -0.93086329882687       -1.31049792910166       -0.03346367168494
C           -1.48706771606309       -2.64233188299541       -0.06390708632125
H            3.61882988155586        1.31998075826589        1.09571234073025
H            4.10899620153051        0.98933117652588       -0.57487176987915
H            2.70534354135087        2.10625566273526       -0.19960987524830
H            3.64411761500942       -1.65528573468354        0.01207122013528
H           -1.65319065528717        3.07246438964841       -0.01144078347682
H           -2.82673457695490        2.10115717628167       -0.93933406965013
H           -2.87712800279677        2.07678672770982        0.82935830037209
H           -1.20191474499478       -3.20398571578946        0.82713100135481
H           -1.16763093036707       -3.17600667633208       -0.96138925340326
H           -2.57207976347636       -2.53515971001951       -0.08138172428762
H            1.34833108757609       -2.95601963593040        0.00469715812434
25
 energy: -43.836785677373 gnorm: 0.003913411115 xtb: 6.6.1 (8d0f1dd)
C            3.24266494587773        1.20221503017085        0.07208048461416
N            2.32851023554323        0.10099892412770        0.00599904099058
C            2.65977789355486       -1.25198199522832        0.00687651434947
N            1.45621489815157       -1.95534592679282        0.00549250788548
C            0.42124537837811       -1.08230607562334       -0.01107401121890
C            0.93615621247589        0.20360728319105       -0.01046799256398
C            0.12081673351009        1.35916273593114       -0.00222225781351
O            0.50432718092036        2.53240152133810        0.01479222900852
N           -1.26983306758386        1.03361938201794       -0.02319356095342
C           -2.21504802598104        2.14237718861266       -0.03732559509195
C           -1.82082499216202       -0.21079638652689       -0.04552935257353
O           -3.02126350433987       -0.39386639581016       -0.07154772122693
N           -0.93221912385606       -1.31101608723162       -0.03345128439770
C           -1.48843709550847       -2.64303187852492       -0.06169962725371
H            3.61859377764767        1.31990619379867        1.09557474267532
H            4.10763121426500        0.99262280667066       -0.57275140996006
H            2.70105992408952        2.10724186128554       -0.19339306988568
H            3.64554236072880       -1.65371370632048        0.01089690317573
H           -1.64900557620973        3.07232687874784       -0.01191595929309
H           -2.82414307892227        2.10389877265989       -0.94094895890403
H           -2.87485235124541        2.07788069700691        0.82848071775301
H           -1.20045538490073       -3.20175402755620        0.83025820145370
H           -1.16769715831136       -3.17725457459648       -0.95842568252777
H           -2.57403664524051       -2.53939778406671       -0.07805821830606
H            1.35087210658485       -2.95616022982812       -0.00254446980120
25
 energy: -43.836819140765 gnorm: 0.001764129642 xtb: 6.6.1 (8d0f1dd)
C            3.24427933213176        1.20220443697177        0.07006817789841
N            2.32920117098088        0.10126102353264        0.00625287069303
C            2.65953325523933       -1.25250142875058        0.00839365596913
N            1.45543741506273       -1.95494495573956        0.00880855207848
C            0.42125365566791       -1.08140032658274       -0.00987556792238
C            0.93643259275308        0.20460687703964       -0.00982310480909
C            0.12092735289920        1.35996615431739       -0.00165860485857
O            0.50353975903285        2.53360737307284        0.01557288781550
N           -1.26998802637801        1.03354742840018       -0.02237447396541
C           -2.21612954994540        2.14104544497618       -0.03626493966561
C           -1.82075726502680       -0.21066255497551       -0.04523820394492
O           -3.02099002243292       -0.39431277968577       -0.07160927270589
N           -0.93198603946090       -1.31045847641264       -0.03351934860121
C           -1.48811753343242       -2.64223695063863       -0.06387000826871
H            3.62000513406206        1.32248690920201        1.09368430662393
H            4.10959027407378        0.99014708604000       -0.57388541369250
H            2.70373606500410        2.10701838002205       -0.19748015350614
H            3.64452173092904       -1.65512147933317        0.01193232175341
H           -1.65069642755067        3.07133317125945       -0.01102130481124
H           -2.82498471358599        2.10098445338449       -0.93999418490215
H           -2.87564784745429        2.07522074764837        0.82973197169950
H           -1.20141871102362       -3.20239692547649        0.82757502354472
H           -1.16727402389621       -3.17545509538764       -0.96119523955248
H           -2.57345730050715       -2.53677063439699       -0.08104556022474
H            1.34858658032403       -2.95553367103441        0.00273778348936
25
 energy: -43.836795857275 gnorm: 0.003540444524 xtb: 6.6.1 (8d0f1dd)
C            3.24468057577057        1.20209880080787        0.07208806710181
N            2.32930964653298        0.10154274622477        0.00509277192634
C            2.65989484982064       -1.25297580530205        0.00556078036666
N            1.45525416273051       -1.95529928250847        0.00700677125867
C            0.42202791938725       -1.08069125712501       -0.01175860098921
C            0.93648909932429        0.20579500782677       -0.01180589343473
C            0.12116880071570        1.36152283046699       -0.00184922085789
O            0.50287191944416        2.53557909863992        0.01663892430791
N           -1.26998344130894        1.03414234616057       -0.02217650542145
C           -2.21719858107616        2.14142884044526       -0.03700107524461
C           -1.81931440326250       -0.21078506314665       -0.04481399005008
O           -3.01878189730092       -0.39602541960456       -0.07109043912115
N           -0.93060410644178       -1.31047804076125       -0.03364014130055
C           -1.48611731833700       -2.64251310020059       -0.06245463040837
H            3.61747294343624        1.31805462269288        1.09830543164670
H            4.10928543627424        0.98989384810591       -0.57379718089062
H            2.70542727417246        2.10653770380049       -0.19615305522143
H            3.64354300619171       -1.65603184675559        0.00944188760286
H           -1.65302822114382        3.07243824107271       -0.01308244869714
H           -2.82685786833931        2.10070479156130       -0.94012422752383
H           -2.87736136495262        2.07785605875133        0.82863148026784
H           -1.20054425484660       -3.20373387288553        0.82879013682164
H           -1.16781986167958       -3.17742476963040       -0.95966859328929
H           -2.57095558848204       -2.53436843727392       -0.07892709101946
H            1.34673813083688       -2.95563383390985        0.00268901230384
25
 energy: -43.836819915214 gnorm: 0.001584502377 xtb: 6.6.1 (8d0f1dd)
C            3.24385318180490        1.20247560740075        0.07102554024458
N            2.32911976401014        0.10134961270222        0.00579887137827
C            2.65988133776317       -1.25272587106515        0.00740881317139
N            1.45564374948319       -1.95540580099738        0.00765496584112
C            0.42176393564742       -1.08145061506511       -0.01090927036209
C            0.93628359674667        0.20503276914155       -0.01086447400961
C            0.12140692614632        1.36065023908139       -0.00168907664750
O            0.50335529043457        2.53452713353889        0.01621560687449
N           -1.26992290040458        1.03376948621311       -0.02228663361212
C           -2.21622026140205        2.14161553848226       -0.03654168176445
C           -1.81976963873914       -0.21078746769057       -0.04513742984730
O           -3.01947458109831       -0.39547682173111       -0.07172426153029
N           -0.93115838698937       -1.31084192103212       -0.03360526907674
C           -1.48711712198003       -2.64272379236308       -0.06306409736935
H            3.61822324719029        1.32040510574670        1.09614138442534
H            4.10847553822407        0.99068729546982       -0.57458692963842
H            2.70363948771295        2.10659701346535       -0.19730249238644
H            3.64413613215707       -1.65523895149031        0.01153607518619
H           -1.65117268245635        3.07210952753253       -0.01159318957009
H           -2.82557657079329        2.10206062271082       -0.93993272699475
H           -2.87629755339704        2.07738941602489        0.82910161315632
H           -1.20148193260596       -3.20364821129193        0.82831253241271
H           -1.16773972268439       -3.17706611525479       -0.96022125532542
H           -2.57217822349415       -2.53576969265613       -0.08012581053447
H            1.34792424619027       -2.95589989941973        0.00229136611309
25
 energy: -43.769089693201 gnorm: 0.330024108027 xtb: 6.6.1 (8d0f1dd)
C            3.20687815777454        1.30482861722316        0.02852810775751
N            2.35145599400942        0.14375663452288       -0.00997334004737
C            2.86914658970863       -1.29707680151288       -0.02747594787540
N            1.50010527821949       -2.00671814859334        0.02166989466559
C            0.45045612273246       -1.10534520432385       -0.00765163937084
C            0.94087568253072        0.15930552997128       -0.02146242719013
C            0.12819463988888        1.31683823101054        0.00204742687179
O            0.51481887804155        2.49140245529137        0.02967100440215
N           -1.29366441665967        0.99957949485197       -0.01243560687040
C           -2.21720184466126        2.13741619986511       -0.02360997910908
C           -1.83603715947840       -0.23957849135091       -0.04962275613349
O           -3.04652363240584       -0.39419018996891       -0.07383409725867
N           -0.95554991671166       -1.33913556985139       -0.03019368885968
C           -1.50664965730698       -2.63736497009081       -0.06596334414276
H            3.52313300322593        1.42139273175321        1.11946817049723
H            4.25152608497386        0.90686268507110       -0.46900218837126
H            2.69325567967219        2.11675263930684       -0.27803478893937
H            3.74195107015062       -1.65596664414012       -0.02128286941533
H           -1.64493569349489        3.06787546009075        0.00005808552626
H           -2.82762720584484        2.11440764748418       -0.92779689203896
H           -2.87881123369894        2.07596897713001        0.84551604459841
H           -1.23886262475274       -3.20543998220240        0.82015539410925
H           -1.19420505533506       -3.17361463956086       -0.96458567780043
H           -2.59594662854914       -2.52106691661683       -0.08364843579781
H            1.29122349202980       -2.97104587449336        0.02847318762247
25
 energy: -43.817737686519 gnorm: 0.084067376988 xtb: 6.6.1 (8d0f1dd)
C            3.23385300095466        1.25106566238122        0.05679383648652
N            2.34480137315505        0.12212389278231       -0.01265989555248
C            2.75297460205378       -1.26755440657925       -0.02460028269935
N            1.48378029559973       -1.99195673360269        0.01613526599327
C            0.44840016914253       -1.10346622847890       -0.00989725945596
C            0.94970236360983        0.17138773557975       -0.02048593729481
C            0.12869301678973        1.32971822890293        0.00041880063156
O            0.50253925680325        2.49730939566354        0.02683126111635
N           -1.27426132855747        1.01143742681961       -0.01385748342931
C           -2.21174695621913        2.13187432416382       -0.02361209326304
C           -1.81561630295743       -0.23550754826166       -0.04512213096183
O           -3.02146958817649       -0.40631557405381       -0.07452864200555
N           -0.92976490344173       -1.32970208102008       -0.02941188410099
C           -1.49926388201435       -2.64134064445571       -0.06594074028557
H            3.52759859492345        1.42595972482118        1.11890876191966
H            4.20405785076895        0.95177872506303       -0.47259333075954
H            2.72052950393375        2.11292777163922       -0.29941775692533
H            3.71554950077768       -1.66266410418056       -0.01453090923102
H           -1.63711163352641        3.05684330876845        0.00273561998631
H           -2.82348109116443        2.10679125508488       -0.92660878473080
H           -2.87276266189583        2.07252208315749        0.84324993075763
H           -1.23345377947716       -3.21403016039988        0.82285850716937
H           -1.19184973521231       -3.18079273032316       -0.96507924561992
H           -2.58715684717944       -2.52046487338150       -0.08500764716184
H            1.31246478536843       -2.97810057922349        0.02443567624633
25
 energy: -43.820996170620 gnorm: 0.024410996125 xtb: 6.6.1 (8d0f1dd)
C            3.24131811400831        1.22596550468379        0.05474805193031
N            2.35343781325323        0.09983615945221       -0.02541550748374
C            2.73035557657355       -1.25670722046491       -0.02688492946075
N            1.50215829418582       -1.96857693820984        0.01455071770640
C            0.45058175032344       -1.10516059369418       -0.00866458291564
C            0.95725509985685        0.17362165478542       -0.01829701592832
C            0.12748926510161        1.32794422364784        0.00282320992281
O            0.50631745222129        2.49631973940322        0.02782325844125
N           -1.27196848132598        1.01400988672623       -0.01435322036058
C           -2.21380663371100        2.13110593497469       -0.02265174336230
C           -1.81842529300609       -0.23326144107555       -0.04552274005916
O           -3.02404160705774       -0.40882838153219       -0.07365643346336
N           -0.92036867053637       -1.32504522267183       -0.02832674725549
C           -1.50415524109612       -2.64067605081830       -0.06616244157834
H            3.50589503396190        1.41274986839497        1.10653508102927
H            4.18493218467315        0.93575419998228       -0.44382833766874
H            2.71524993957744        2.10387753048500       -0.30846212655548
H            3.72006707304803       -1.65097490617275       -0.02041519916544
H           -1.64365681744704        3.05892775266727        0.00372303113716
H           -2.82675577350193        2.10896540284605       -0.92507380611549
H           -2.87640633871199        2.07285095176584        0.84277292613739
H           -1.23693196645188       -3.20956492013856        0.82462700116067
H           -1.19355134704571       -3.17558248229067       -0.96569636890528
H           -2.59057581183799       -2.51397749601305       -0.08516421022376
H            1.35259198900384       -2.96372928586624        0.02998576986626
25
 energy: -43.821146223093 gnorm: 0.018997303840 xtb: 6.6.1 (8d0f1dd)
C            3.24793197672115        1.23165311678110        0.06129017711399
N            2.35980627630437        0.09715757519736       -0.01732446452738
C            2.71550874007833       -1.26727472821504       -0.01378348124396
N            1.49050012993422       -1.97271485252937        0.01188894792212
C            0.44493757933457       -1.10523651613963       -0.00671263323604
C            0.95895030359807        0.17645417642628       -0.01137976392271
C            0.12728167814413        1.32768850269482        0.00152499221943
O            0.50642044567339        2.50000517194494        0.02546234131549
N           -1.27120450503450        1.01171145822197       -0.01585746576985
C           -2.20847672961197        2.13069374795558       -0.02522442050857
C           -1.82210628953237       -0.23300839059681       -0.04584971302851
O           -3.02663800457787       -0.40806230785544       -0.07502671447895
N           -0.92225517962521       -1.32622656191035       -0.02873634700708
C           -1.50258831279190       -2.64710181768807       -0.06685051479226
H            3.53280817523527        1.42409592884217        1.10738414366752
H            4.18467501523485        0.97426634942892       -0.48791937870176
H            2.70581513597616        2.11277633561967       -0.28051412595851
H            3.70712773151655       -1.66641318592456       -0.00938493437320
H           -1.63231709351979        3.05546078847003       -0.00018084057540
H           -2.82048217954370        2.10767503689521       -0.92844702784009
H           -2.86964037145852        2.07450693376119        0.84154603015071
H           -1.23019005894583       -3.21430568030247        0.82313771892056
H           -1.18843651888862       -3.18073614295864       -0.96539940700436
H           -2.58813871230223       -2.52538579935299       -0.08487899383335
H            1.32771637214008       -2.96783526789914        0.02024951232180
25
 energy: -43.821662516387 gnorm: 0.008779703256 xtb: 6.6.1 (8d0f1dd)
C            3.25033971623593        1.23412735826059        0.05986959021130
N            2.35782651712152        0.10300817206754       -0.01955823598715
C            2.72167051842622       -1.26634628290381       -0.02069871736924
N            1.49059878630361       -1.97607670156622        0.01235830792135
C            0.44614709645402       -1.10468089178632       -0.01070009024837
C            0.95677934978824        0.17921551877405       -0.01876696983309
C            0.12608227687787        1.32918625154380       -0.00222117877559
O            0.50321987995792        2.50279386151839        0.02470072181956
N           -1.27243688154191        1.01163403187676       -0.01527954612754
C           -2.21210765187006        2.12916722724450       -0.02188526380595
C           -1.82009137838572       -0.23290163509199       -0.04582946703147
O           -3.02331786478945       -0.41003972179609       -0.07348901998099
N           -0.92132114977196       -1.32657560484660       -0.02988819437554
C           -1.50241586943721       -2.64575177172927       -0.06634675462541
H            3.51519924491135        1.43246278021736        1.11490912984342
H            4.20062987214764        0.95194746185698       -0.45658003273022
H            2.72278879805404        2.11214325159240       -0.30714684903671
H            3.71276939037327       -1.66091935140959       -0.02103369034995
H           -1.63870448822045        3.05556962647289        0.00485505722771
H           -2.82490953079382        2.10545358339499       -0.92459244788711