      -----------------------------------------------------------      
     |                   =====================                   |     
     |                           x T B                           |     
     |                   =====================                   |     
     |                         S. Grimme                         |     
     |          Mulliken Center for Theoretical Chemistry        |     
     |                    University of Bonn                     |     
      -----------------------------------------------------------      

   * xtb version 6.6.1 (8d0f1dd) compiled by 'conda@1efc2f54142f' on 2023-08-01

   xtb is free software: you can redistribute it and/or modify it under
   the terms of the GNU Lesser General Public License as published by
   the Free Software Foundation, either version 3 of the License, or
   (at your option) any later version.
   
   xtb is distributed in the hope that it will be useful,
   but WITHOUT ANY WARRANTY; without even the implied warranty of
   MERCHANTABILITY or FITNESS FOR A PARTICULAR PURPOSE.  See the
   GNU Lesser General Public License for more details.
   
   Cite this work as:
   * C. Bannwarth, E. Caldeweyher, S. Ehlert, A. Hansen, P. Pracht,
     J. Seibert, S. Spicher, S. Grimme, WIREs Comput. Mol. Sci., 2020, 11,
     e01493. DOI: 10.1002/wcms.1493
   
   for GFN2-xTB:
   * C. Bannwarth, S. Ehlert and S. Grimme., J. Chem. Theory Comput., 2019,
     15, 1652-1671. DOI: 10.1021/acs.jctc.8b01176
   for GFN1-xTB:
   * S. Grimme, C. Bannwarth, P. Shushkov, J. Chem. Theory Comput., 2017,
     13, 1989-2009. DOI: 10.1021/acs.jctc.7b00118
   for GFN0-xTB:
   * P. Pracht, E. Caldeweyher, S. Ehlert, S. Grimme, ChemRxiv, 2019, preprint.
     DOI: 10.26434/chemrxiv.8326202.v1
   for GFN-FF:
   * S. Spicher and S. Grimme, Angew. Chem. Int. Ed., 2020, 59, 15665-15673.
     DOI: 10.1002/anie.202004239
   
   for ALPB and GBSA implicit solvation:
   * S. Ehlert, M. Stahn, S. Spicher, S. Grimme, J. Chem. Theory Comput.,
     2021, 17, 4250-4261. DOI: 10.1021/acs.jctc.1c00471
   
   for DFT-D4:
   * E. Caldeweyher, C. Bannwarth and S. Grimme, J. Chem. Phys., 2017,
     147, 034112. DOI: 10.1063/1.4993215
   * E. Caldeweyher, S. Ehlert, A. Hansen, H. Neugebauer, S. Spicher,
     C. Bannwarth and S. Grimme, J. Chem. Phys., 2019, 150, 154122.
     DOI: 10.1063/1.5090222
   * E. Caldeweyher, J.-M. Mewes, S. Ehlert and S. Grimme, Phys. Chem. Chem. Phys.
     2020, 22, 8499-8512. DOI: 10.1039/D0CP00502A
   
   for sTDA-xTB:
   * S. Grimme and C. Bannwarth, J. Chem. Phys., 2016, 145, 054103.
     DOI: 10.1063/1.4959605
   
   in the mass-spec context:
   * V. Asgeirsson, C. Bauer and S. Grimme, Chem. Sci., 2017, 8, 4879.
     DOI: 10.1039/c7sc00601b
   * J. Koopman and S. Grimme, ACS Omega 2019, 4, 12, 15120-15133.
     DOI: 10.1021/acsomega.9b02011
   
   for metadynamics refer to:
   * S. Grimme, J. Chem. Theory Comput., 2019, 155, 2847-2862
     DOI: 10.1021/acs.jctc.9b00143
   
   for SPH calculations refer to:
   * S. Spicher and S. Grimme, J. Chem. Theory Comput., 2021, 17, 1701-1714
     DOI: 10.1021/acs.jctc.0c01306
   
   with help from (in alphabetical order)
   P. Atkinson, C. Bannwarth, F. Bohle, G. Brandenburg, E. Caldeweyher
   M. Checinski, S. Dohm, S. Ehlert, S. Ehrlich, I. Gerasimov, C. Hölzer
   A. Katbashev, J. Koopman, C. Lavigne, S. Lehtola, F. März, M. Müller,
   F. Musil, H. Neugebauer, J. Pisarek, C. Plett, P. Pracht, F. Pultar,
   J. Seibert, P. Shushkov, S. Spicher, M. Stahn, M. Steiner, T. Strunk,
   J. Stückrath, T. Rose, and J. Unsleber
   
 * started run on 2024/04/06 at 11:13:41.866     

           -------------------------------------------------
          |                Calculation Setup                |
           -------------------------------------------------

          program call               : xtb struc.xyz --opt loose --input .xc1 --gfn2
          hostname                   : n-62-30-23
          coordinate file            : struc.xyz
          omp threads                :                     1

   ID    Z sym.   atoms
    1    7 N      1, 17
    2    6 C      2-6, 8, 9, 11-16, 18-23, 25, 26, 28-33
    3    8 O      7, 10, 24, 27
    4    1 H      34-72
constraining bond 19 30 to    6.0000000 Å, actual value:    3.1453292 Å

           -------------------------------------------------
          |                 G F N 2 - x T B                 |
           -------------------------------------------------

        Reference                      10.1021/acs.jctc.8b01176
      * Hamiltonian:
        H0-scaling (s, p, d)           1.850000    2.230000    2.230000
        zeta-weighting                 0.500000
      * Dispersion:
        s8                             2.700000
        a1                             0.520000
        a2                             5.000000
        s9                             5.000000
      * Repulsion:
        kExp                           1.500000    1.000000
        rExp                           1.000000
      * Coulomb:
        alpha                          2.000000
        third order                    shell-resolved
        anisotropic                    true
        a3                             3.000000
        a5                             4.000000
        cn-shift                       1.200000
        cn-exp                         4.000000
        max-rad                        5.000000


          ...................................................
          :                      SETUP                      :
          :.................................................:
          :  # basis functions                 171          :
          :  # atomic orbitals                 171          :
          :  # shells                          105          :
          :  # electrons                       180          :
          :  max. iterations                   250          :
          :  Hamiltonian                  GFN2-xTB          :
          :  restarted?                      false          :
          :  GBSA solvation                  false          :
          :  PC potential                    false          :
          :  electronic temp.         5000.0000000     K    :
          :  accuracy                    1.0000000          :
          :  -> integral cutoff          0.2500000E+02      :
          :  -> integral neglect         0.1000000E-07      :
          :  -> SCF convergence          0.1000000E-05 Eh   :
          :  -> wf. convergence          0.1000000E-03 e    :
          :  Broyden damping             0.4000000          :
          ...................................................

 iter      E             dE          RMSdq      gap      omega  full diag
   1   -100.5973919 -0.100597E+03  0.374E+00    3.20       0.0  T
   2   -100.7362642 -0.138872E+00  0.221E+00    1.08       1.0  T
   3   -100.7049001  0.313641E-01  0.141E+00    3.29       1.0  T
   4   -100.7721690 -0.672689E-01  0.526E-01    1.50       1.0  T
   5   -100.7894292 -0.172602E-01  0.190E-01    1.98       1.0  T
   6   -100.7911978 -0.176856E-02  0.792E-02    1.77       1.0  T
   7   -100.7914750 -0.277198E-03  0.375E-02    1.83       1.0  T
   8   -100.7914914 -0.164582E-04  0.140E-02    1.83       1.0  T
   9   -100.7914976 -0.616739E-05  0.474E-03    1.82       2.5  T
  10   -100.7914988 -0.118227E-05  0.172E-03    1.82       6.8  T
  11   -100.7914989 -0.139928E-06  0.766E-04    1.82      15.4  T
  12   -100.7914989 -0.773143E-08  0.318E-04    1.82      37.0  T

   *** convergence criteria satisfied after 12 iterations ***

         #    Occupation            Energy/Eh            Energy/eV
      -------------------------------------------------------------
         1        2.0000           -0.8078051             -21.9815
       ...           ...                  ...                  ...
        84        1.9966           -0.5157491             -14.0342
        85        1.9959           -0.5128261             -13.9547
        86        1.9840           -0.4911498             -13.3649
        87        1.9795           -0.4872543             -13.2589
        88        1.9640           -0.4782114             -13.0128
        89        1.8920           -0.4602041             -12.5228
        90        1.8557           -0.4553147             -12.3897 (HOMO)
        91        0.3166           -0.3884132             -10.5693 (LUMO)
        92        0.0218           -0.3434697              -9.3463
        93        0.0041           -0.3169887              -8.6257
        94        0.0034           -0.3139726              -8.5436
        95        0.0029           -0.3112618              -8.4699
       ...           ...                  ...                  ...
       171                          0.5822580              15.8440
      -------------------------------------------------------------
                  HL-Gap            0.0669015 Eh            1.8205 eV
             Fermi-level           -0.4148687 Eh          -11.2892 eV

 SCC (total)                   0 d,  0 h,  0 min,  0.189 sec
 SCC setup                      ...        0 min,  0.001 sec (  0.552%)
 Dispersion                     ...        0 min,  0.002 sec (  0.907%)
 classical contributions        ...        0 min,  0.000 sec (  0.229%)
 integral evaluation            ...        0 min,  0.018 sec (  9.607%)
 iterations                     ...        0 min,  0.098 sec ( 51.698%)
 molecular gradient             ...        0 min,  0.069 sec ( 36.659%)
 printout                       ...        0 min,  0.001 sec (  0.339%)

         :::::::::::::::::::::::::::::::::::::::::::::::::::::
         ::                     SUMMARY                     ::
         :::::::::::::::::::::::::::::::::::::::::::::::::::::
         :: total energy             -97.949074910459 Eh    ::
         :: gradient norm              0.764034636281 Eh/a0 ::
         :: HOMO-LUMO gap              1.820481192090 eV    ::
         ::.................................................::
         :: SCC energy              -100.791498925389 Eh    ::
         :: -> isotropic ES            0.109302908418 Eh    ::
         :: -> anisotropic ES          0.005415138735 Eh    ::
         :: -> anisotropic XC          0.042392697176 Eh    ::
         :: -> dispersion             -0.075527661009 Eh    ::
         :: repulsion energy           1.386151658689 Eh    ::
         :: add. restraining           1.455056003735 Eh    ::
         :: total charge               1.000000000108 e     ::
         :::::::::::::::::::::::::::::::::::::::::::::::::::::

      ----------------------------------------------------------- 
     |                   =====================                   |
     |                        A N C O P T                        |
     |                   =====================                   |
     |               Approximate Normal Coordinate               |
     |                Rational Function Optimizer                |
      ----------------------------------------------------------- 

          ...................................................
          :                      SETUP                      :
          :.................................................:
          :   optimization level             loose          :
          :   max. optcycles                   200          :
          :   ANC micro-cycles                  20          :
          :   degrees of freedom               210          :
          :.................................................:
          :   RF solver                   davidson          :
          :   write xtbopt.log                true          :
          :   linear?                        false          :
          :   energy convergence         0.5000000E-04 Eh   :
          :   grad. convergence          0.4000000E-02 Eh/α :
          :   maxmium RF displ.          1.0000000          :
          :   Hlow (freq-cutoff)         0.1000000E-01      :
          :   Hmax (freq-cutoff)         5.0000000          :
          :   S6 in model hess.         20.0000000          :
          ...................................................

generating ANC from model Hessian ...
Using Lindh-Hessian (1995)
 Shifting diagonal of input Hessian by    4.2779016332953758E-002
 Lowest  eigenvalues of input Hessian
    0.010000    0.017106    0.000000    0.000000    0.000000    0.000000
    0.000000    0.000000    0.042844    0.042868    0.042970    0.043093
    0.043110    0.043656    0.043945    0.043972    0.044517    0.045211
 Highest eigenvalues
    2.066215    2.078737    2.084589    2.212222    2.217383    2.219834


........................................................................
.............................. CYCLE    1 ..............................
........................................................................

 iter      E             dE          RMSdq      gap      omega  full diag
   1   -100.7914989 -0.100791E+03  0.114E-04    1.82       0.0  T
   2   -100.7914989 -0.678995E-10  0.713E-05    1.82     165.2  T
   3   -100.7914989  0.665210E-10  0.496E-05    1.82     237.5  T
     SCC iter.                  ...        0 min,  0.026 sec
     gradient                   ...        0 min,  0.069 sec
 * total energy  :   -97.9490749 Eh     change       -0.4035485E-08 Eh
   gradient norm :     0.7640345 Eh/α   predicted     0.0000000E+00 (-100.00%)
   displ. norm   :     0.6757438 α      lambda       -0.4632465E+00
   maximum displ.:     0.2331217 α      in ANC's #184, #138, #41, ...

........................................................................
.............................. CYCLE    2 ..............................
........................................................................

 iter      E             dE          RMSdq      gap      omega  full diag
   1   -100.7517139 -0.100752E+03  0.465E-01    1.55       0.0  T
   2   -100.7516256  0.882382E-04  0.356E-01    2.04       1.0  T
   3   -100.7532554 -0.162978E-02  0.230E-01    1.58       1.0  T
   4   -100.7553328 -0.207744E-02  0.933E-02    1.84       1.0  T
   5   -100.7560272 -0.694350E-03  0.123E-02    1.76       1.0  T
   6   -100.7560340 -0.676038E-05  0.598E-03    1.77       2.0  T
   7   -100.7560347 -0.740295E-06  0.225E-03    1.77       5.2  T
   8   -100.7560349 -0.206171E-06  0.550E-04    1.77      21.4  T
   9   -100.7560349 -0.130156E-07  0.256E-04    1.77      46.0  T
     SCC iter.                  ...        0 min,  0.073 sec
     gradient                   ...        0 min,  0.069 sec
 * total energy  :   -98.3225727 Eh     change       -0.3734978E+00 Eh
   gradient norm :     0.4349868 Eh/α   predicted    -0.3373998E+00 (  -9.66%)
   displ. norm   :     0.7355489 α      lambda       -0.2874419E+00
   maximum displ.:     0.2268247 α      in ANC's #41, #138, #184, ...

........................................................................
.............................. CYCLE    3 ..............................
........................................................................

 iter      E             dE          RMSdq      gap      omega  full diag
   1   -100.6597094 -0.100660E+03  0.423E-01    1.51       0.0  T
   2   -100.6585686  0.114079E-02  0.358E-01    2.05       1.0  T
   3   -100.6641891 -0.562044E-02  0.196E-01    1.63       1.0  T
   4   -100.6647522 -0.563141E-03  0.102E-01    1.80       1.0  T
   5   -100.6654480 -0.695770E-03  0.130E-02    1.73       1.0  T
   6   -100.6654574 -0.944860E-05  0.586E-03    1.74       2.0  T
   7   -100.6654576 -0.142904E-06  0.258E-03    1.74       4.6  T
   8   -100.6654579 -0.345185E-06  0.672E-04    1.74      17.5  T
   9   -100.6654579 -0.157015E-07  0.288E-04    1.74      40.9  T
     SCC iter.                  ...        0 min,  0.072 sec
     gradient                   ...        0 min,  0.069 sec
 * total energy  :   -98.5535342 Eh     change       -0.2309614E+00 Eh
   gradient norm :     0.2638226 Eh/α   predicted    -0.2214805E+00 (  -4.10%)
   displ. norm   :     0.7986409 α      lambda       -0.1923331E+00
   maximum displ.:     0.3177146 α      in ANC's #41, #36, #45, ...

........................................................................
.............................. CYCLE    4 ..............................
........................................................................

 iter      E             dE          RMSdq      gap      omega  full diag
   1   -100.5759585 -0.100576E+03  0.328E-01    1.58       0.0  T
   2   -100.5749137  0.104485E-02  0.302E-01    1.95       1.0  T
   3   -100.5806400 -0.572628E-02  0.146E-01    1.69       1.0  T
   4   -100.5804846  0.155332E-03  0.891E-02    1.80       1.0  T
   5   -100.5810207 -0.536029E-03  0.197E-02    1.72       1.0  T
   6   -100.5810558 -0.351572E-04  0.546E-03    1.74       2.2  T
   7   -100.5810560 -0.203977E-06  0.260E-03    1.74       4.5  T
   8   -100.5810562 -0.150442E-06  0.809E-04    1.74      14.6  T
   9   -100.5810562 -0.355015E-07  0.291E-04    1.74      40.5  T
     SCC iter.                  ...        0 min,  0.073 sec
     gradient                   ...        0 min,  0.069 sec
 * total energy  :   -98.7180774 Eh     change       -0.1645433E+00 Eh
   gradient norm :     0.2046236 Eh/α   predicted    -0.1575043E+00 (  -4.28%)
   displ. norm   :     0.8308469 α      lambda       -0.1521676E+00
   maximum displ.:     0.3650210 α      in ANC's #41, #36, #32, ...

........................................................................
.............................. CYCLE    5 ..............................
........................................................................

 iter      E             dE          RMSdq      gap      omega  full diag
   1   -100.5062947 -0.100506E+03  0.400E-01    1.32       0.0  T
   2   -100.4911963  0.150985E-01  0.588E-01    1.84       1.0  T
   3   -100.5241751 -0.329789E-01  0.198E-01    1.73       1.0  T
   4   -100.5245877 -0.412602E-03  0.115E-01    1.68       1.0  T
   5   -100.5252624 -0.674685E-03  0.434E-02    1.67       1.0  T
   6   -100.5254866 -0.224198E-03  0.161E-02    1.69       1.0  T
   7   -100.5255078 -0.212179E-04  0.627E-03    1.69       1.9  T
   8   -100.5255086 -0.768090E-06  0.401E-03    1.69       2.9  T
   9   -100.5255100 -0.135981E-05  0.122E-03    1.69       9.7  T
  10   -100.5255101 -0.113185E-06  0.328E-04    1.69      36.0  T
  11   -100.5255101 -0.532664E-08  0.165E-04    1.69      71.5  T
     SCC iter.                  ...        0 min,  0.088 sec
     gradient                   ...        0 min,  0.075 sec
 * total energy  :   -98.8543560 Eh     change       -0.1362786E+00 Eh
   gradient norm :     0.1835680 Eh/α   predicted    -0.1286050E+00 (  -5.63%)
   displ. norm   :     0.8532247 α      lambda       -0.1336430E+00
   maximum displ.:     0.3755126 α      in ANC's #41, #36, #32, ...

........................................................................
.............................. CYCLE    6 ..............................
........................................................................

 iter      E             dE          RMSdq      gap      omega  full diag
   1   -100.4634566 -0.100463E+03  0.558E-01    0.66       0.0  T
   2   -100.3698924  0.935642E-01  0.112E+00    1.39       1.0  T
   3   -100.4938854 -0.123993E+00  0.318E-01    1.29       1.0  T
   4   -100.4993370 -0.545155E-02  0.156E-01    1.16       1.0  T
   5   -100.4990235  0.313505E-03  0.121E-01    1.00       1.0  T
   6   -100.5010671 -0.204363E-02  0.225E-02    1.10       1.0  T
   7   -100.5011197 -0.525980E-04  0.101E-02    1.12       1.2  T
   8   -100.5011205 -0.774401E-06  0.966E-03    1.12       1.2  T
   9   -100.5011270 -0.656677E-05  0.413E-03    1.11       2.9  T
  10   -100.5011290 -0.193476E-05  0.714E-04    1.11      16.5  T
  11   -100.5011290  0.218356E-07  0.694E-04    1.11      17.0  T
  12   -100.5011290 -0.351846E-07  0.344E-04    1.11      34.3  T
     SCC iter.                  ...        0 min,  0.096 sec
     gradient                   ...        0 min,  0.069 sec
 * total energy  :   -98.9730153 Eh     change       -0.1186593E+00 Eh
   gradient norm :     0.1616296 Eh/α   predicted    -0.1154671E+00 (  -2.69%)
   displ. norm   :     0.8276520 α      lambda       -0.1093132E+00
   maximum displ.:     0.3463050 α      in ANC's #41, #36, #200, ...

........................................................................
.............................. CYCLE    7 ..............................
........................................................................

 iter      E             dE          RMSdq      gap      omega  full diag
   1   -100.4808551 -0.100481E+03  0.631E-01    0.26       0.0  T
   2   -100.3033639  0.177491E+00  0.138E+00    0.92       1.0  T
   3   -100.5096897 -0.206326E+00  0.218E-01    0.64       1.0  T
   4   -100.5085501  0.113957E-02  0.178E-01    0.72       1.0  T
   5   -100.5115531 -0.300299E-02  0.975E-02    0.59       1.0  T
   6   -100.5121710 -0.617970E-03  0.409E-02    0.63       1.0  T
   7   -100.5123542 -0.183178E-03  0.174E-02    0.66       1.0  T
   8   -100.5123775 -0.233083E-04  0.116E-02    0.66       1.0  T
   9   -100.5123873 -0.981460E-05  0.491E-03    0.66       2.4  T
  10   -100.5123895 -0.216614E-05  0.876E-04    0.65      13.5  T
  11   -100.5123896 -0.470817E-07  0.575E-04    0.65      20.5  T
  12   -100.5123896 -0.224746E-07  0.154E-04    0.65      76.8  T
     SCC iter.                  ...        0 min,  0.096 sec
     gradient                   ...        0 min,  0.069 sec
 * total energy  :   -99.0639047 Eh     change       -0.9088946E-01 Eh
   gradient norm :     0.1224607 Eh/α   predicted    -0.9209695E-01 (   1.33%)
   displ. norm   :     0.7469898 α      lambda       -0.7093751E-01
   maximum displ.:     0.2983553 α      in ANC's #41, #36, #32, ...

........................................................................
.............................. CYCLE    8 ..............................
........................................................................

 iter      E             dE          RMSdq      gap      omega  full diag
   1   -100.5282585 -0.100528E+03  0.588E-01    0.08       0.0  T
   2   -100.3579509  0.170308E+00  0.131E+00    0.75       1.0  T
   3   -100.5342563 -0.176305E+00  0.384E-01    0.16       1.0  T
   4   -100.5424951 -0.823875E-02  0.238E-01    0.39       1.0  T
   5   -100.5455177 -0.302264E-02  0.118E-01    0.38       1.0  T
   6   -100.5472702 -0.175249E-02  0.195E-02    0.37       1.0  T
   7   -100.5472897 -0.194410E-04  0.109E-02    0.37       1.1  T
   8   -100.5472983 -0.866248E-05  0.451E-03    0.37       2.6  T
   9   -100.5472989 -0.528304E-06  0.323E-03    0.37       3.7  T
  10   -100.5473001 -0.118430E-05  0.916E-04    0.37      12.9  T
  11   -100.5473001 -0.902055E-07  0.374E-04    0.37      31.5  T
  12   -100.5473001 -0.442868E-08  0.171E-04    0.37      68.9  T
     SCC iter.                  ...        0 min,  0.096 sec
     gradient                   ...        0 min,  0.069 sec
 * total energy  :   -99.1191081 Eh     change       -0.5520332E-01 Eh
   gradient norm :     0.0800210 Eh/α   predicted    -0.5526017E-01 (   0.10%)
   displ. norm   :     0.6589230 α      lambda       -0.3916669E-01
   maximum displ.:     0.2343441 α      in ANC's #41, #36, #32, ...

........................................................................
.............................. CYCLE    9 ..............................
........................................................................

 iter      E             dE          RMSdq      gap      omega  full diag
   1   -100.5675378 -0.100568E+03  0.401E-01    0.07       0.0  T
   2   -100.5026339  0.649040E-01  0.802E-01    0.55       1.0  T
   3   -100.5579007 -0.552668E-01  0.420E-01    0.03       1.0  T
   4   -100.5699109 -0.120103E-01  0.207E-01    0.20       1.0  T
   5   -100.5719862 -0.207532E-02  0.114E-01    0.22       1.0  T
   6   -100.5734802 -0.149394E-02  0.103E-02    0.23       1.1  T
   7   -100.5734914 -0.111825E-04  0.692E-03    0.22       1.7  T
   8   -100.5734970 -0.562496E-05  0.292E-03    0.22       4.0  T
   9   -100.5734975 -0.473421E-06  0.107E-03    0.22      11.0  T
  10   -100.5734975 -0.441751E-07  0.566E-04    0.22      20.8  T
  11   -100.5734975 -0.245108E-07  0.238E-04    0.22      49.6  T
     SCC iter.                  ...        0 min,  0.088 sec
     gradient                   ...        0 min,  0.075 sec
 * total energy  :   -99.1496658 Eh     change       -0.3055775E-01 Eh
   gradient norm :     0.0666904 Eh/α   predicted    -0.2808603E-01 (  -8.09%)
   displ. norm   :     0.6424000 α      lambda       -0.2721234E-01
   maximum displ.:     0.1982619 α      in ANC's #36, #41, #13, ...

........................................................................
.............................. CYCLE   10 ..............................
........................................................................

 iter      E             dE          RMSdq      gap      omega  full diag
   1   -100.5871080 -0.100587E+03  0.274E-01    0.12       0.0  T
   2   -100.5816725  0.543557E-02  0.259E-01    0.31       1.0  T
   3   -100.5687516  0.129209E-01  0.446E-01    0.13       1.0  T
   4   -100.5863557 -0.176041E-01  0.134E-01    0.17       1.0  T
   5   -100.5877199 -0.136414E-02  0.329E-02    0.16       1.0  T
   6   -100.5878470 -0.127177E-03  0.143E-02    0.16       1.0  T
   7   -100.5878671 -0.200593E-04  0.511E-03    0.16       2.3  T
   8   -100.5878693 -0.222040E-05  0.241E-03    0.16       4.9  T
   9   -100.5878696 -0.272458E-06  0.710E-04    0.16      16.6  T
  10   -100.5878696 -0.247110E-07  0.284E-04    0.16      41.5  T
     SCC iter.                  ...        0 min,  0.081 sec
     gradient                   ...        0 min,  0.069 sec
 * total energy  :   -99.1718062 Eh     change       -0.2214038E-01 Eh
   gradient norm :     0.0562545 Eh/α   predicted    -0.1922115E-01 ( -13.19%)
   displ. norm   :     0.6695715 α      lambda       -0.2173574E-01
   maximum displ.:     0.2010756 α      in ANC's #36, #13, #23, ...

........................................................................
.............................. CYCLE   11 ..............................
........................................................................

 iter      E             dE          RMSdq      gap      omega  full diag
   1   -100.5979500 -0.100598E+03  0.260E-01    0.17       0.0  T
   2   -100.5947341  0.321590E-02  0.242E-01    0.02       1.0  T
   3   -100.5879313  0.680278E-02  0.336E-01    0.36       1.0  T
   4   -100.5927217 -0.479046E-02  0.230E-01    0.05       1.0  T
   5   -100.5981946 -0.547290E-02  0.562E-02    0.14       1.0  T
   6   -100.5985489 -0.354222E-03  0.145E-02    0.14       1.0  T
   7   -100.5985745 -0.256647E-04  0.381E-03    0.14       3.1  T
   8   -100.5985745 -0.141694E-07  0.251E-03    0.14       4.7  T
   9   -100.5985753 -0.718197E-06  0.906E-04    0.14      13.0  T
  10   -100.5985753 -0.830676E-07  0.291E-04    0.14      40.5  T
     SCC iter.                  ...        0 min,  0.081 sec
     gradient                   ...        0 min,  0.069 sec
 * total energy  :   -99.1892158 Eh     change       -0.1740963E-01 Eh
   gradient norm :     0.0451062 Eh/α   predicted    -0.1574023E-01 (  -9.59%)
   displ. norm   :     0.6701646 α      lambda       -0.1591522E-01
   maximum displ.:     0.2086493 α      in ANC's #13, #23, #36, ...

........................................................................
.............................. CYCLE   12 ..............................
........................................................................

 iter      E             dE          RMSdq      gap      omega  full diag
   1   -100.6047238 -0.100605E+03  0.235E-01    0.18       0.0  T
   2   -100.5942966  0.104272E-01  0.351E-01    0.08       1.0  T
   3   -100.5997518 -0.545513E-02  0.253E-01    0.29       1.0  T
   4   -100.6036101 -0.385830E-02  0.130E-01    0.11       1.0  T
   5   -100.6053667 -0.175667E-02  0.205E-02    0.14       1.0  T
   6   -100.6054059 -0.391699E-04  0.104E-02    0.14       1.1  T
   7   -100.6054149 -0.901264E-05  0.390E-03    0.14       3.0  T
   8   -100.6054157 -0.783071E-06  0.142E-03    0.14       8.3  T
   9   -100.6054158 -0.925395E-07  0.665E-04    0.14      17.7  T
  10   -100.6054158 -0.428779E-07  0.227E-04    0.14      51.9  T
     SCC iter.                  ...        0 min,  0.081 sec
     gradient                   ...        0 min,  0.069 sec
 * total energy  :   -99.2015085 Eh     change       -0.1229268E-01 Eh
   gradient norm :     0.0398914 Eh/α   predicted    -0.1153156E-01 (  -6.19%)
   displ. norm   :     0.6364725 α      lambda       -0.1091803E-01
   maximum displ.:     0.1933090 α      in ANC's #23, #13, #9, ...

........................................................................
.............................. CYCLE   13 ..............................
........................................................................

 iter      E             dE          RMSdq      gap      omega  full diag
   1   -100.6111966 -0.100611E+03  0.218E-01    0.20       0.0  T
   2   -100.5983900  0.128066E-01  0.380E-01    0.10       1.0  T
   3   -100.6078582 -0.946825E-02  0.222E-01    0.27       1.0  T
   4   -100.6102162 -0.235799E-02  0.122E-01    0.14       1.0  T
   5   -100.6118245 -0.160832E-02  0.339E-02    0.14       1.0  T
   6   -100.6119439 -0.119345E-03  0.955E-03    0.15       1.2  T
   7   -100.6119518 -0.795146E-05  0.451E-03    0.15       2.6  T
   8   -100.6119528 -0.970774E-06  0.178E-03    0.15       6.6  T
   9   -100.6119530 -0.234440E-06  0.600E-04    0.14      19.7  T
  10   -100.6119531 -0.326410E-07  0.232E-04    0.14      50.7  T
     SCC iter.                  ...        0 min,  0.080 sec
     gradient                   ...        0 min,  0.074 sec
 * total energy  :   -99.2093621 Eh     change       -0.7853596E-02 Eh
   gradient norm :     0.0359636 Eh/α   predicted    -0.7670451E-02 (  -2.33%)
   displ. norm   :     0.5803864 α      lambda       -0.7711974E-02
   maximum displ.:     0.1852290 α      in ANC's #23, #13, #9, ...

........................................................................
.............................. CYCLE   14 ..............................
........................................................................

 iter      E             dE          RMSdq      gap      omega  full diag
   1   -100.6139579 -0.100614E+03  0.183E-01    0.18       0.0  T
   2   -100.6040115  0.994639E-02  0.327E-01    0.01       1.0  T
   3   -100.6130379 -0.902639E-02  0.151E-01    0.23       1.0  T
   4   -100.6107631  0.227483E-02  0.191E-01    0.07       1.0  T
   5   -100.6145960 -0.383292E-02  0.110E-02    0.14       1.1  T
   6   -100.6146069 -0.109242E-04  0.430E-03    0.15       2.7  T
   7   -100.6146073 -0.341174E-06  0.398E-03    0.15       3.0  T
   8   -100.6146088 -0.153314E-05  0.159E-03    0.15       7.4  T
   9   -100.6146090 -0.222474E-06  0.564E-04    0.15      20.9  T
  10   -100.6146091 -0.292641E-07  0.231E-04    0.15      51.0  T
     SCC iter.                  ...        0 min,  0.080 sec
     gradient                   ...        0 min,  0.069 sec
 * total energy  :   -99.2140773 Eh     change       -0.4715185E-02 Eh
   gradient norm :     0.0341228 Eh/α   predicted    -0.5154879E-02 (   9.33%)
   displ. norm   :     0.5102413 α      lambda       -0.5647285E-02
   maximum displ.:     0.1653233 α      in ANC's #23, #9, #2, ...

........................................................................
.............................. CYCLE   15 ..............................
........................................................................

 iter      E             dE          RMSdq      gap      omega  full diag
   1   -100.6181170 -0.100618E+03  0.191E-01    0.18       0.0  T
   2   -100.6121739  0.594309E-02  0.258E-01    0.02       1.0  T
   3   -100.6114687  0.705255E-03  0.282E-01    0.31       1.0  T
   4   -100.6180353 -0.656660E-02  0.481E-02    0.14       1.0  T
   5   -100.6183794 -0.344168E-03  0.247E-02    0.15       1.0  T
   6   -100.6184306 -0.511970E-04  0.101E-02    0.15       1.2  T
   7   -100.6184349 -0.428117E-05  0.680E-03    0.15       1.7  T
   8   -100.6184387 -0.377426E-05  0.208E-03    0.15       5.7  T
   9   -100.6184391 -0.370579E-06  0.507E-04    0.15      23.2  T
  10   -100.6184391 -0.201472E-07  0.217E-04    0.15      54.2  T
     SCC iter.                  ...        0 min,  0.081 sec
     gradient                   ...        0 min,  0.074 sec
 * total energy  :   -99.2171466 Eh     change       -0.3069337E-02 Eh
   gradient norm :     0.0309759 Eh/α   predicted    -0.3558767E-02 (  15.95%)
   displ. norm   :     0.3826735 α      lambda       -0.3842749E-02
   maximum displ.:     0.1304493 α      in ANC's #23, #9, #34, ...

........................................................................
.............................. CYCLE   16 ..............................
........................................................................

 iter      E             dE          RMSdq      gap      omega  full diag
   1   -100.6295298 -0.100630E+03  0.118E-01    0.16       0.0  T
   2   -100.6284077  0.112207E-02  0.133E-01    0.07       1.0  T
   3   -100.6273968  0.101087E-02  0.155E-01    0.24       1.0  T
   4   -100.6290645 -0.166769E-02  0.634E-02    0.13       1.0  T
   5   -100.6295727 -0.508204E-03  0.176E-02    0.14       1.0  T
   6   -100.6296004 -0.277130E-04  0.548E-03    0.14       2.1  T
   7   -100.6296018 -0.137222E-05  0.340E-03    0.14       3.5  T
   8   -100.6296027 -0.868311E-06  0.141E-03    0.15       8.4  T
   9   -100.6296028 -0.138845E-06  0.415E-04    0.15      28.4  T
  10   -100.6296028 -0.721867E-08  0.164E-04    0.15      71.7  T
     SCC iter.                  ...        0 min,  0.081 sec
     gradient                   ...        0 min,  0.068 sec
 * total energy  :   -99.2197570 Eh     change       -0.2610346E-02 Eh
   gradient norm :     0.0254289 Eh/α   predicted    -0.2202761E-02 ( -15.61%)
   displ. norm   :     0.4347116 α      lambda       -0.3550693E-02
   maximum displ.:     0.1529312 α      in ANC's #23, #9, #10, ...

........................................................................
.............................. CYCLE   17 ..............................
........................................................................

 iter      E             dE          RMSdq      gap      omega  full diag
   1   -100.6269572 -0.100627E+03  0.149E-01    0.15       0.0  T
   2   -100.6263391  0.618106E-03  0.116E-01    0.11       1.0  T
   3   -100.6201728  0.616634E-02  0.260E-01    0.28       1.0  T
   4   -100.6260202 -0.584746E-02  0.101E-01    0.08       1.0  T
   5   -100.6269604 -0.940168E-03  0.273E-02    0.15       1.0  T
   6   -100.6270440 -0.835934E-04  0.544E-03    0.14       2.2  T
   7   -100.6270465 -0.248509E-05  0.347E-03    0.14       3.4  T
   8   -100.6270471 -0.601704E-06  0.157E-03    0.14       7.5  T
   9   -100.6270473 -0.233568E-06  0.428E-04    0.14      27.5  T
  10   -100.6270473 -0.105788E-07  0.217E-04    0.14      54.4  T
     SCC iter.                  ...        0 min,  0.080 sec
     gradient                   ...        0 min,  0.069 sec
 * total energy  :   -99.2222527 Eh     change       -0.2495778E-02 Eh
   gradient norm :     0.0147743 Eh/α   predicted    -0.2110849E-02 ( -15.42%)
   displ. norm   :     0.4060107 α      lambda       -0.1842439E-02
   maximum displ.:     0.1364087 α      in ANC's #2, #23, #9, ...

........................................................................
.............................. CYCLE   18 ..............................
........................................................................

 iter      E             dE          RMSdq      gap      omega  full diag
   1   -100.6286691 -0.100629E+03  0.116E-01    0.14       0.0  T
   2   -100.6284211  0.248060E-03  0.824E-02    0.11       1.0  T
   3   -100.6242537  0.416738E-02  0.213E-01    0.25       1.0  T
   4   -100.6280689 -0.381524E-02  0.743E-02    0.09       1.0  T
   5   -100.6286849 -0.615988E-03  0.145E-02    0.14       1.0  T
   6   -100.6287092 -0.242573E-04  0.457E-03    0.13       2.6  T
   7   -100.6287109 -0.169952E-05  0.232E-03    0.14       5.1  T
   8   -100.6287111 -0.214824E-06  0.958E-04    0.14      12.3  T
   9   -100.6287112 -0.794218E-07  0.290E-04    0.13      40.7  T
     SCC iter.                  ...        0 min,  0.073 sec
     gradient                   ...        0 min,  0.068 sec
 * total energy  :   -99.2235798 Eh     change       -0.1327096E-02 Eh
   gradient norm :     0.0126584 Eh/α   predicted    -0.1073090E-02 ( -19.14%)
   displ. norm   :     0.3926002 α      lambda       -0.1201877E-02
   maximum displ.:     0.1502229 α      in ANC's #2, #23, #10, ...

........................................................................
.............................. CYCLE   19 ..............................
........................................................................

 iter      E             dE          RMSdq      gap      omega  full diag
   1   -100.6287784 -0.100629E+03  0.972E-02    0.13       0.0  T
   2   -100.6286304  0.148000E-03  0.663E-02    0.12       1.0  T
   3   -100.6254044  0.322601E-02  0.182E-01    0.22       1.0  T
   4   -100.6283399 -0.293543E-02  0.642E-02    0.09       1.0  T
   5   -100.6287860 -0.446155E-03  0.115E-02    0.13       1.0  T
   6   -100.6288005 -0.144458E-04  0.341E-03    0.13       3.5  T
   7   -100.6288011 -0.610152E-06  0.211E-03    0.13       5.6  T
   8   -100.6288013 -0.254139E-06  0.697E-04    0.13      16.9  T
   9   -100.6288014 -0.457459E-07  0.248E-04    0.13      47.5  T
     SCC iter.                  ...        0 min,  0.072 sec
     gradient                   ...        0 min,  0.068 sec
 * total energy  :   -99.2245057 Eh     change       -0.9258515E-03 Eh
   gradient norm :     0.0112573 Eh/α   predicted    -0.6935722E-03 ( -25.09%)
   displ. norm   :     0.4205590 α      lambda       -0.1192441E-02
   maximum displ.:     0.1938033 α      in ANC's #2, #10, #23, ...

........................................................................
.............................. CYCLE   20 ..............................
........................................................................

 iter      E             dE          RMSdq      gap      omega  full diag
   1   -100.6329181 -0.100633E+03  0.907E-02    0.12       0.0  T
   2   -100.6329023  0.157800E-04  0.549E-02    0.12       1.0  T
   3   -100.6321155  0.786834E-03  0.831E-02    0.13       1.0  T
   4   -100.6327517 -0.636243E-03  0.397E-02    0.10       1.0  T
   5   -100.6329182 -0.166464E-03  0.104E-02    0.13       1.1  T
   6   -100.6329273 -0.917389E-05  0.311E-03    0.12       3.8  T
   7   -100.6329280 -0.674592E-06  0.156E-03    0.12       7.6  T
   8   -100.6329281 -0.561885E-07  0.718E-04    0.12      16.4  T
   9   -100.6329281 -0.600901E-07  0.220E-04    0.12      53.6  T
     SCC iter.                  ...        0 min,  0.073 sec
     gradient                   ...        0 min,  0.068 sec
 * total energy  :   -99.2253935 Eh     change       -0.8878331E-03 Eh
   gradient norm :     0.0109594 Eh/α   predicted    -0.7016754E-03 ( -20.97%)
   displ. norm   :     0.4428588 α      lambda       -0.9641722E-03
   maximum displ.:     0.2023393 α      in ANC's #2, #10, #23, ...
 * RMSD in coord.:     1.0802875 α      energy gain  -0.1276319E+01 Eh

generating ANC from model Hessian ...
Using Lindh-Hessian (1995)
 Shifting diagonal of input Hessian by    1.0186141858720851E-002
 Lowest  eigenvalues of input Hessian
    0.010000    0.010124    0.000000    0.000000    0.000000    0.000000
    0.000000    0.000000    0.010192    0.010226    0.010245    0.010302
    0.010509    0.010552    0.010773    0.010808    0.010882    0.011039
 Highest eigenvalues
    2.021691    2.041881    2.114774    2.136911    2.180922    2.199768


........................................................................
.............................. CYCLE   21 ..............................
........................................................................

 iter      E             dE          RMSdq      gap      omega  full diag
   1   -100.6317163 -0.100632E+03  0.915E-02    0.12       0.0  T
   2   -100.6316381  0.782570E-04  0.596E-02    0.11       1.0  T
   3   -100.6278968  0.374131E-02  0.192E-01    0.22       1.0  T
   4   -100.6316367 -0.373992E-02  0.278E-02    0.11       1.0  T
   5   -100.6317194 -0.827091E-04  0.856E-03    0.12       1.4  T
   6   -100.6317258 -0.637469E-05  0.313E-03    0.12       3.8  T
   7   -100.6317265 -0.717868E-06  0.149E-03    0.12       7.9  T
   8   -100.6317266 -0.118432E-06  0.567E-04    0.12      20.8  T
   9   -100.6317266 -0.234513E-07  0.204E-04    0.12      57.8  T
     SCC iter.                  ...        0 min,  0.073 sec
     gradient                   ...        0 min,  0.068 sec
 * total energy  :   -99.2261058 Eh     change       -0.7122746E-03 Eh
   gradient norm :     0.0112765 Eh/α   predicted     0.0000000E+00 (-100.00%)
   displ. norm   :     0.2719229 α      lambda       -0.1383727E-02
   maximum displ.:     0.1520971 α      in ANC's #18, #15, #19, ...

........................................................................
.............................. CYCLE   22 ..............................
........................................................................

 iter      E             dE          RMSdq      gap      omega  full diag
   1   -100.6309594 -0.100631E+03  0.969E-02    0.12       0.0  T
   2   -100.6308324  0.127004E-03  0.696E-02    0.14       1.0  T
   3   -100.6273443  0.348800E-02  0.191E-01    0.05       1.0  T
   4   -100.6306668 -0.332241E-02  0.502E-02    0.15       1.0  T
   5   -100.6309724 -0.305680E-03  0.773E-03    0.12       1.5  T
   6   -100.6309771 -0.466462E-05  0.488E-03    0.12       2.4  T
   7   -100.6309789 -0.180069E-05  0.180E-03    0.12       6.6  T
   8   -100.6309791 -0.203493E-06  0.583E-04    0.12      20.2  T
   9   -100.6309791 -0.271297E-07  0.239E-04    0.12      49.4  T
     SCC iter.                  ...        0 min,  0.073 sec
     gradient                   ...        0 min,  0.069 sec
 * total energy  :   -99.2269246 Eh     change       -0.8187553E-03 Eh
   gradient norm :     0.0082154 Eh/α   predicted    -0.7439725E-03 (  -9.13%)
   displ. norm   :     0.3232800 α      lambda       -0.9661216E-03
   maximum displ.:     0.1915141 α      in ANC's #18, #21, #13, ...

........................................................................
.............................. CYCLE   23 ..............................
........................................................................

 iter      E             dE          RMSdq      gap      omega  full diag
   1   -100.6328779 -0.100633E+03  0.912E-02    0.12       0.0  T
   2   -100.6325823  0.295615E-03  0.741E-02    0.16       1.0  T
   3   -100.6295900  0.299226E-02  0.187E-01    0.05       1.0  T
   4   -100.6328578 -0.326777E-02  0.174E-02    0.13       1.0  T
   5   -100.6328915 -0.336772E-04  0.561E-03    0.12       2.1  T
   6   -100.6328942 -0.274091E-05  0.230E-03    0.12       5.1  T
   7   -100.6328944 -0.157562E-06  0.177E-03    0.12       6.7  T
   8   -100.6328947 -0.296450E-06  0.640E-04    0.12      18.4  T
   9   -100.6328947 -0.298109E-07  0.131E-04    0.12      89.9  T
     SCC iter.                  ...        0 min,  0.073 sec
     gradient                   ...        0 min,  0.068 sec
 * total energy  :   -99.2277136 Eh     change       -0.7890821E-03 Eh
   gradient norm :     0.0055936 Eh/α   predicted    -0.5335556E-03 ( -32.38%)
   displ. norm   :     0.5580986 α      lambda       -0.1214031E-02
   maximum displ.:     0.3070862 α      in ANC's #18, #13, #21, ...

........................................................................
.............................. CYCLE   24 ..............................
........................................................................

 iter      E             dE          RMSdq      gap      omega  full diag
   1   -100.6331864 -0.100633E+03  0.141E-01    0.12       0.0  T
   2   -100.6325897  0.596650E-03  0.114E-01    0.18       1.0  T
   3   -100.6256427  0.694697E-02  0.282E-01    0.08       1.0  T
   4   -100.6328837 -0.724096E-02  0.519E-02    0.13       1.0  T
   5   -100.6332194 -0.335713E-03  0.871E-03    0.13       1.4  T
   6   -100.6332257 -0.626687E-05  0.213E-03    0.13       5.5  T
   7   -100.6332258 -0.642670E-07  0.135E-03    0.13       8.7  T
   8   -100.6332258 -0.813777E-07  0.563E-04    0.13      20.9  T
   9   -100.6332259 -0.229497E-07  0.302E-04    0.13      39.0  T
     SCC iter.                  ...        0 min,  0.073 sec
     gradient                   ...        0 min,  0.068 sec
 * total energy  :   -99.2286652 Eh     change       -0.9515970E-03 Eh
   gradient norm :     0.0073152 Eh/α   predicted    -0.7960900E-03 ( -16.34%)
   displ. norm   :     0.5927401 α      lambda       -0.9393753E-03
   maximum displ.:     0.3053153 α      in ANC's #18, #14, #13, ...

........................................................................
.............................. CYCLE   25 ..............................
........................................................................

 iter      E             dE          RMSdq      gap      omega  full diag
   1   -100.6319876 -0.100632E+03  0.145E-01    0.12       0.0  T
   2   -100.6314563  0.531365E-03  0.114E-01    0.19       1.0  T
   3   -100.6250693  0.638695E-02  0.271E-01    0.07       1.0  T
   4   -100.6306871 -0.561777E-02  0.105E-01    0.16       1.0  T
   5   -100.6320339 -0.134678E-02  0.843E-03    0.13       1.4  T
   6   -100.6320399 -0.606525E-05  0.495E-03    0.14       2.4  T
   7   -100.6320426 -0.266703E-05  0.177E-03    0.14       6.6  T
   8   -100.6320427 -0.933259E-07  0.821E-04    0.14      14.4  T
   9   -100.6320427 -0.528879E-07  0.252E-04    0.14      46.8  T
     SCC iter.                  ...        0 min,  0.072 sec
     gradient                   ...        0 min,  0.068 sec
 * total energy  :   -99.2293997 Eh     change       -0.7344312E-03 Eh
   gradient norm :     0.0087188 Eh/α   predicted    -0.6347114E-03 ( -13.58%)
   displ. norm   :     0.5416785 α      lambda       -0.7559323E-03
   maximum displ.:     0.2424985 α      in ANC's #18, #14, #13, ...

........................................................................
.............................. CYCLE   26 ..............................
........................................................................

 iter      E             dE          RMSdq      gap      omega  full diag
   1   -100.6337497 -0.100634E+03  0.128E-01    0.13       0.0  T
   2   -100.6331108  0.638849E-03  0.113E-01    0.19       1.0  T
   3   -100.6301897  0.292113E-02  0.197E-01    0.05       1.0  T
   4   -100.6317758 -0.158617E-02  0.131E-01    0.18       1.0  T
   5   -100.6338137 -0.203783E-02  0.114E-02    0.13       1.0  T
   6   -100.6338270 -0.133679E-04  0.717E-03    0.14       1.6  T
   7   -100.6338332 -0.614154E-05  0.180E-03    0.14       6.5  T
   8   -100.6338333 -0.933419E-07  0.822E-04    0.14      14.3  T
   9   -100.6338333 -0.680203E-07  0.276E-04    0.14      42.7  T
     SCC iter.                  ...        0 min,  0.073 sec
     gradient                   ...        0 min,  0.068 sec
 * total energy  :   -99.2299761 Eh     change       -0.5763997E-03 Eh
   gradient norm :     0.0081573 Eh/α   predicted    -0.4888672E-03 ( -15.19%)
   displ. norm   :     0.4508027 α      lambda       -0.5755161E-03
   maximum displ.:     0.1900354 α      in ANC's #14, #18, #15, ...

........................................................................
.............................. CYCLE   27 ..............................
........................................................................

 iter      E             dE          RMSdq      gap      omega  full diag
   1   -100.6378981 -0.100638E+03  0.111E-01    0.12       0.0  T
   2   -100.6369781  0.920033E-03  0.119E-01    0.20       1.0  T
   3   -100.6361311  0.846998E-03  0.145E-01    0.06       1.0  T
   4   -100.6361199  0.112063E-04  0.126E-01    0.18       1.0  T
   5   -100.6379849 -0.186500E-02  0.123E-02    0.13       1.0  T
   6   -100.6380008 -0.159559E-04  0.719E-03    0.14       1.6  T
   7   -100.6380074 -0.655635E-05  0.125E-03    0.14       9.4  T
   8   -100.6380074  0.483448E-08  0.755E-04    0.14      15.6  T
   9   -100.6380074 -0.605861E-07  0.282E-04    0.14      41.8  T
     SCC iter.                  ...        0 min,  0.073 sec
     gradient                   ...        0 min,  0.069 sec
 * total energy  :   -99.2303987 Eh     change       -0.4226193E-03 Eh
   gradient norm :     0.0053706 Eh/α   predicted    -0.3462395E-03 ( -18.07%)
   displ. norm   :     0.4313387 α      lambda       -0.4287345E-03
   maximum displ.:     0.1782665 α      in ANC's #14, #13, #18, ...

........................................................................
.............................. CYCLE   28 ..............................
........................................................................

 iter      E             dE          RMSdq      gap      omega  full diag
   1   -100.6380930 -0.100638E+03  0.123E-01    0.12       0.0  T
   2   -100.6367330  0.135992E-02  0.142E-01    0.22       1.0  T
   3   -100.6364290  0.304011E-03  0.146E-01    0.06       1.0  T
   4   -100.6356476  0.781467E-03  0.151E-01    0.20       1.0  T
   5   -100.6382430 -0.259541E-02  0.151E-02    0.14       1.0  T
   6   -100.6382650 -0.220554E-04  0.879E-03    0.14       1.3  T
   7   -100.6382750 -0.100145E-04  0.145E-03    0.14       8.1  T
   8   -100.6382751 -0.220951E-07  0.784E-04    0.14      15.0  T
   9   -100.6382751 -0.708597E-07  0.288E-04    0.14      40.9  T
     SCC iter.                  ...        0 min,  0.073 sec
     gradient                   ...        0 min,  0.069 sec
 * total energy  :   -99.2307220 Eh     change       -0.3233023E-03 Eh
   gradient norm :     0.0065784 Eh/α   predicted    -0.2542512E-03 ( -21.36%)
   displ. norm   :     0.4672806 α      lambda       -0.5657029E-03
   maximum displ.:     0.1647301 α      in ANC's #9, #14, #2, ...

........................................................................
.............................. CYCLE   29 ..............................
........................................................................

 iter      E             dE          RMSdq      gap      omega  full diag
   1   -100.6419983 -0.100642E+03  0.147E-01    0.12       0.0  T
   2   -100.6400145  0.198377E-02  0.171E-01    0.24       1.0  T
   3   -100.6395036  0.510929E-03  0.176E-01    0.04       1.0  T
   4   -100.6390152  0.488423E-03  0.166E-01    0.20       1.0  T
   5   -100.6421996 -0.318442E-02  0.169E-02    0.14       1.0  T
   6   -100.6422270 -0.274263E-04  0.930E-03    0.15       1.3  T
   7   -100.6422383 -0.112533E-04  0.137E-03    0.15       8.6  T
   8   -100.6422382  0.489961E-07  0.900E-04    0.15      13.1  T
   9   -100.6422383 -0.840925E-07  0.343E-04    0.15      34.3  T
     SCC iter.                  ...        0 min,  0.072 sec
     gradient                   ...        0 min,  0.068 sec
 * total energy  :   -99.2311241 Eh     change       -0.4021041E-03 Eh
   gradient norm :     0.0088676 Eh/α   predicted    -0.3446186E-03 ( -14.30%)
   displ. norm   :     0.5432612 α      lambda       -0.5946665E-03
   maximum displ.:     0.2327084 α      in ANC's #9, #2, #14, ...

........................................................................
.............................. CYCLE   30 ..............................
........................................................................

 iter      E             dE          RMSdq      gap      omega  full diag
   1   -100.6369907 -0.100637E+03  0.177E-01    0.13       0.0  T
   2   -100.6341909  0.279985E-02  0.203E-01    0.27       1.0  T
   3   -100.6339984  0.192485E-03  0.199E-01    0.04       1.0  T
   4   -100.6319273  0.207108E-02  0.223E-01    0.26       1.0  T
   5   -100.6373723 -0.544500E-02  0.223E-02    0.15       1.0  T
   6   -100.6374215 -0.492251E-04  0.125E-02    0.17       1.0  T
   7   -100.6374411 -0.195418E-04  0.223E-03    0.16       5.3  T
   8   -100.6374412 -0.151848E-06  0.101E-03    0.16      11.7  T
   9   -100.6374413 -0.668831E-07  0.456E-04    0.16      25.9  T
  10   -100.6374413 -0.252188E-07  0.118E-04    0.16     100.3  T
     SCC iter.                  ...        0 min,  0.080 sec
     gradient                   ...        0 min,  0.068 sec
 * total energy  :   -99.2315974 Eh     change       -0.4732732E-03 Eh
   gradient norm :     0.0120340 Eh/α   predicted    -0.3850862E-03 ( -18.63%)
   displ. norm   :     0.5565261 α      lambda       -0.9320118E-03
   maximum displ.:     0.3031963 α      in ANC's #9, #2, #6, ...

........................................................................
.............................. CYCLE   31 ..............................
........................................................................

 iter      E             dE          RMSdq      gap      omega  full diag
   1   -100.6348926 -0.100635E+03  0.159E-01    0.18       0.0  T
   2   -100.6322329  0.265968E-02  0.194E-01    0.31       1.0  T
   3   -100.6323658 -0.132839E-03  0.181E-01    0.09       1.0  T
   4   -100.6317560  0.609756E-03  0.173E-01    0.27       1.0  T
   5   -100.6351828 -0.342678E-02  0.174E-02    0.19       1.0  T
   6   -100.6352143 -0.314901E-04  0.791E-03    0.20       1.5  T
   7   -100.6352213 -0.702126E-05  0.203E-03    0.20       5.8  T
   8   -100.6352215 -0.174226E-06  0.863E-04    0.20      13.7  T
   9   -100.6352215 -0.438198E-07  0.285E-04    0.20      41.4  T
     SCC iter.                  ...        0 min,  0.073 sec
     gradient                   ...        0 min,  0.068 sec
 * total energy  :   -99.2324265 Eh     change       -0.8290998E-03 Eh
   gradient norm :     0.0160927 Eh/α   predicted    -0.6103381E-03 ( -26.39%)
   displ. norm   :     0.7789328 α      lambda       -0.1801463E-02
   maximum displ.:     0.4667205 α      in ANC's #9, #16, #2, ...

........................................................................
.............................. CYCLE   32 ..............................
........................................................................

 iter      E             dE          RMSdq      gap      omega  full diag
   1   -100.6281411 -0.100628E+03  0.218E-01    0.29       0.0  T
   2   -100.6264403  0.170077E-02  0.193E-01    0.39       1.0  T
   3   -100.6192520  0.718832E-02  0.310E-01    0.10       1.0  T
   4   -100.6237652 -0.451323E-02  0.202E-01    0.41       1.0  T
   5   -100.6284128 -0.464753E-02  0.256E-02    0.31       1.0  T
   6   -100.6284636 -0.508605E-04  0.592E-03    0.31       2.0  T
   7   -100.6284653 -0.170342E-05  0.356E-03    0.30       3.3  T
   8   -100.6284665 -0.121127E-05  0.161E-03    0.30       7.3  T
   9   -100.6284667 -0.186444E-06  0.533E-04    0.30      22.1  T
  10   -100.6284668 -0.185780E-07  0.258E-04    0.30      45.6  T
     SCC iter.                  ...        0 min,  0.080 sec
     gradient                   ...        0 min,  0.068 sec
 * total energy  :   -99.2345988 Eh     change       -0.2172373E-02 Eh
   gradient norm :     0.0337537 Eh/α   predicted    -0.1447249E-02 ( -33.38%)
   displ. norm   :     0.6441425 α      lambda       -0.4050497E-02
   maximum displ.:     0.3335046 α      in ANC's #9, #16, #2, ...

........................................................................
.............................. CYCLE   33 ..............................
........................................................................

 iter      E             dE          RMSdq      gap      omega  full diag
   1   -100.6255391 -0.100626E+03  0.260E-01    0.45       0.0  T
   2   -100.6246709  0.868260E-03  0.184E-01    0.51       1.0  T
   3   -100.6155048  0.916605E-02  0.335E-01    0.24       1.0  T
   4   -100.6212616 -0.575677E-02  0.215E-01    0.60       1.0  T
   5   -100.6259366 -0.467504E-02  0.320E-02    0.45       1.0  T
   6   -100.6260385 -0.101899E-03  0.519E-03    0.45       2.3  T
   7   -100.6260388 -0.259331E-06  0.362E-03    0.45       3.3  T
   8   -100.6260396 -0.811206E-06  0.166E-03    0.45       7.1  T
   9   -100.6260398 -0.189169E-06  0.643E-04    0.45      18.3  T
  10   -100.6260398 -0.297207E-07  0.247E-04    0.45      47.7  T
     SCC iter.                  ...        0 min,  0.080 sec
     gradient                   ...        0 min,  0.068 sec
 * total energy  :   -99.2408249 Eh     change       -0.6226076E-02 Eh
   gradient norm :     0.0749534 Eh/α   predicted    -0.2865563E-02 ( -53.97%)
   displ. norm   :     0.6108130 α      lambda       -0.1425478E-01
   maximum displ.:     0.2712689 α      in ANC's #9, #16, #18, ...

........................................................................
.............................. CYCLE   34 ..............................
........................................................................

 iter      E             dE          RMSdq      gap      omega  full diag
   1   -100.6223740 -0.100622E+03  0.383E-01    0.73       0.0  T
   2   -100.6193762  0.299777E-02  0.274E-01    0.50       1.0  T
   3   -100.5943359  0.250403E-01  0.552E-01    1.11       1.0  T
   4   -100.6214904 -0.271546E-01  0.166E-01    0.64       1.0  T
   5   -100.6236011 -0.211070E-02  0.203E-02    0.65       1.0  T
   6   -100.6236427 -0.415754E-04  0.129E-02    0.67       1.0  T
   7   -100.6236599 -0.171859E-04  0.480E-03    0.66       2.5  T
   8   -100.6236611 -0.116511E-05  0.190E-03    0.66       6.2  T
   9   -100.6236614 -0.291195E-06  0.802E-04    0.66      14.7  T
  10   -100.6236614 -0.393763E-07  0.338E-04    0.66      34.9  T
     SCC iter.                  ...        0 min,  0.081 sec
     gradient                   ...        0 min,  0.068 sec
 * total energy  :   -99.2607987 Eh     change       -0.1997375E-01 Eh
   gradient norm :     0.1258272 Eh/α   predicted    -0.9786564E-02 ( -51.00%)
   displ. norm   :     0.6343772 α      lambda       -0.3159312E-01
   maximum displ.:     0.2726109 α      in ANC's #16, #9, #18, ...

........................................................................
.............................. CYCLE   35 ..............................
........................................................................

 iter      E             dE          RMSdq      gap      omega  full diag
   1   -100.6310229 -0.100631E+03  0.332E-01    0.80       0.0  T
   2   -100.6313057 -0.282836E-03  0.195E-01    0.79       1.0  T
   3   -100.6287669  0.253881E-02  0.192E-01    0.72       1.0  T
   4   -100.6260424  0.272444E-02  0.234E-01    0.98       1.0  T
   5   -100.6314576 -0.541514E-02  0.354E-02    0.75       1.0  T
   6   -100.6316164 -0.158838E-03  0.696E-03    0.79       1.7  T
   7   -100.6316197 -0.324503E-05  0.450E-03    0.78       2.6  T
   8   -100.6316208 -0.118054E-05  0.116E-03    0.79      10.2  T
   9   -100.6316209 -0.665926E-07  0.702E-04    0.79      16.8  T
  10   -100.6316210 -0.432101E-07  0.241E-04    0.79      48.9  T
     SCC iter.                  ...        0 min,  0.081 sec
     gradient                   ...        0 min,  0.068 sec
 * total energy  :   -99.2812547 Eh     change       -0.2045602E-01 Eh
   gradient norm :     0.1307936 Eh/α   predicted    -0.2215365E-01 (   8.30%)
   displ. norm   :     0.3980032 α      lambda       -0.2092436E-01
   maximum displ.:     0.1137668 α      in ANC's #9, #5, #15, ...

........................................................................
.............................. CYCLE   36 ..............................
........................................................................

 iter      E             dE          RMSdq      gap      omega  full diag
   1   -100.6503458 -0.100650E+03  0.202E-01    0.84       0.0  T
   2   -100.6462056  0.414023E-02  0.233E-01    0.63       1.0  T
   3   -100.6451854  0.102015E-02  0.259E-01    0.99       1.0  T
   4   -100.6505216 -0.533614E-02  0.726E-02    0.81       1.0  T
   5   -100.6509006 -0.379083E-03  0.159E-02    0.81       1.0  T
   6   -100.6509128 -0.121289E-04  0.854E-03    0.81       1.4  T
   7   -100.6509189 -0.612148E-05  0.317E-03    0.80       3.7  T
   8   -100.6509194 -0.494673E-06  0.985E-04    0.80      12.0  T
   9   -100.6509195 -0.123052E-06  0.247E-04    0.80      47.8  T
     SCC iter.                  ...        0 min,  0.074 sec
     gradient                   ...        0 min,  0.068 sec
 * total energy  :   -99.2947790 Eh     change       -0.1352437E-01 Eh
   gradient norm :     0.0681244 Eh/α   predicted    -0.1211946E-01 ( -10.39%)
   displ. norm   :     0.5063692 α      lambda       -0.1649587E-01
   maximum displ.:     0.2032120 α      in ANC's #9, #15, #16, ...

........................................................................
.............................. CYCLE   37 ..............................
........................................................................

 iter      E             dE          RMSdq      gap      omega  full diag
   1   -100.6971489 -0.100697E+03  0.200E-01    0.84       0.0  T
   2   -100.6962350  0.913846E-03  0.157E-01    0.72       1.0  T
   3   -100.6881976  0.803744E-02  0.308E-01    1.06       1.0  T
   4   -100.6971632 -0.896567E-02  0.478E-02    0.81       1.0  T
   5   -100.6973607 -0.197422E-03  0.921E-03    0.80       1.3  T
   6   -100.6973703 -0.962650E-05  0.389E-03    0.81       3.0  T
   7   -100.6973711 -0.818299E-06  0.248E-03    0.81       4.8  T
   8   -100.6973717 -0.554506E-06  0.555E-04    0.81      21.2  T
   9   -100.6973717 -0.147064E-07  0.288E-04    0.81      41.0  T
     SCC iter.                  ...        0 min,  0.074 sec
     gradient                   ...        0 min,  0.068 sec
 * total energy  :   -99.3011409 Eh     change       -0.6361841E-02 Eh
   gradient norm :     0.0536120 Eh/α   predicted    -0.1036279E-01 (  62.89%)
   displ. norm   :     0.5224969 α      lambda       -0.1190004E-01
   maximum displ.:     0.2244594 α      in ANC's #9, #42, #2, ...

........................................................................
.............................. CYCLE   38 ..............................
........................................................................

 iter      E             dE          RMSdq      gap      omega  full diag
   1   -100.6856660 -0.100686E+03  0.222E-01    0.83       0.0  T
   2   -100.6856915 -0.255261E-04  0.132E-01    0.80       1.0  T
   3   -100.6805893  0.510223E-02  0.231E-01    1.01       1.0  T
   4   -100.6853273 -0.473799E-02  0.691E-02    0.78       1.0  T
   5   -100.6857925 -0.465196E-03  0.168E-02    0.83       1.0  T
   6   -100.6858107 -0.182198E-04  0.822E-03    0.83       1.4  T
   7   -100.6858156 -0.487852E-05  0.143E-03    0.83       8.2  T
   8   -100.6858157 -0.142619E-06  0.726E-04    0.83      16.2  T
   9   -100.6858158 -0.361670E-07  0.304E-04    0.83      38.8  T
     SCC iter.                  ...        0 min,  0.073 sec
     gradient                   ...        0 min,  0.068 sec
 * total energy  :   -99.3007958 Eh     change        0.3451190E-03 Eh
   gradient norm :     0.0808300 Eh/α   predicted    -0.7574393E-02 (*******%)
   displ. norm   :     0.4008727 α      lambda       -0.1410485E-01
   maximum displ.:     0.2026947 α      in ANC's #23, #19, #22, ...

........................................................................
.............................. CYCLE   39 ..............................
........................................................................

 iter      E             dE          RMSdq      gap      omega  full diag
   1   -100.6922553 -0.100692E+03  0.192E-01    0.86       0.0  T
   2   -100.6878059  0.444940E-02  0.256E-01    0.66       1.0  T
   3   -100.6906221 -0.281613E-02  0.165E-01    0.94       1.0  T
   4   -100.6923170 -0.169498E-02  0.518E-02    0.77       1.0  T
   5   -100.6926447 -0.327668E-03  0.105E-02    0.82       1.1  T
   6   -100.6926472 -0.252890E-05  0.814E-03    0.82       1.4  T
   7   -100.6926516 -0.438217E-05  0.329E-03    0.82       3.6  T
   8   -100.6926524 -0.785603E-06  0.106E-03    0.82      11.1  T
   9   -100.6926525 -0.112773E-06  0.297E-04    0.82      39.6  T
  10   -100.6926525 -0.130881E-08  0.121E-04    0.82      97.1  T
     SCC iter.                  ...        0 min,  0.080 sec
     gradient                   ...        0 min,  0.068 sec
 * total energy  :   -99.3041585 Eh     change       -0.3362727E-02 Eh
   gradient norm :     0.0672796 Eh/α   predicted    -0.8185741E-02 ( 143.43%)
   displ. norm   :     0.5083191 α      lambda       -0.1234729E-01
   maximum displ.:     0.2133807 α      in ANC's #19, #9, #23, ...

........................................................................
.............................. CYCLE   40 ..............................
........................................................................

 iter      E             dE          RMSdq      gap      omega  full diag
   1   -100.6846883 -0.100685E+03  0.274E-01    0.80       0.0  T
   2   -100.6843618  0.326597E-03  0.167E-01    0.75       1.0  T
   3   -100.6674511  0.169106E-01  0.423E-01    1.11       1.0  T
   4   -100.6846208 -0.171696E-01  0.445E-02    0.76       1.0  T
   5   -100.6847838 -0.163084E-03  0.206E-02    0.81       1.0  T
   6   -100.6848225 -0.386474E-04  0.686E-03    0.80       1.7  T
   7   -100.6848242 -0.169657E-05  0.354E-03    0.80       3.3  T
   8   -100.6848255 -0.131731E-05  0.542E-04    0.79      21.7  T
   9   -100.6848255 -0.850683E-08  0.383E-04    0.79      30.8  T
  10   -100.6848255 -0.693684E-08  0.170E-04    0.79      69.3  T
     SCC iter.                  ...        0 min,  0.080 sec
     gradient                   ...        0 min,  0.068 sec
 * total energy  :   -99.3028789 Eh     change        0.1279597E-02 Eh
   gradient norm :     0.0699307 Eh/α   predicted    -0.7768839E-02 (-707.13%)
   displ. norm   :     0.3034365 α      lambda       -0.1044694E-01
   maximum displ.:     0.0979636 α      in ANC's #23, #19, #60, ...

........................................................................
.............................. CYCLE   41 ..............................
........................................................................

 iter      E             dE          RMSdq      gap      omega  full diag
   1   -100.6980547 -0.100698E+03  0.160E-01    0.83       0.0  T
   2   -100.6979925  0.621578E-04  0.101E-01    0.79       1.0  T
   3   -100.6938528  0.413969E-02  0.204E-01    1.00       1.0  T
   4   -100.6976938 -0.384094E-02  0.695E-02    0.79       1.0  T
   5   -100.6981229 -0.429133E-03  0.796E-03    0.81       1.5  T
   6   -100.6981298 -0.690842E-05  0.318E-03    0.82       3.7  T
   7   -100.6981301 -0.317630E-06  0.240E-03    0.82       4.9  T
   8   -100.6981307 -0.533078E-06  0.528E-04    0.82      22.3  T
   9   -100.6981307 -0.146604E-07  0.260E-04    0.82      45.4  T
     SCC iter.                  ...        0 min,  0.073 sec
     gradient                   ...        0 min,  0.068 sec
 * total energy  :   -99.3087706 Eh     change       -0.5891736E-02 Eh
   gradient norm :     0.0177137 Eh/α   predicted    -0.5704417E-02 (  -3.18%)
   displ. norm   :     0.4251148 α      lambda       -0.2798727E-02
   maximum displ.:     0.2282531 α      in ANC's #9, #2, #42, ...

........................................................................
.............................. CYCLE   42 ..............................
........................................................................

 iter      E             dE          RMSdq      gap      omega  full diag
   1   -100.6915941 -0.100692E+03  0.102E-01    0.84       0.0  T
   2   -100.6909484  0.645727E-03  0.100E-01    0.76       1.0  T
   3   -100.6899076  0.104080E-02  0.140E-01    0.93       1.0  T
   4   -100.6916471 -0.173953E-02  0.136E-02    0.82       1.0  T
   5   -100.6916617 -0.145253E-04  0.412E-03    0.82       2.9  T
   6   -100.6916625 -0.788625E-06  0.195E-03    0.82       6.1  T
   7   -100.6916626 -0.122044E-06  0.714E-04    0.82      16.5  T
   8   -100.6916626 -0.235939E-07  0.239E-04    0.82      49.4  T
     SCC iter.                  ...        0 min,  0.064 sec
     gradient                   ...        0 min,  0.068 sec
 * total energy  :   -99.3092930 Eh     change       -0.5223929E-03 Eh
   gradient norm :     0.0309424 Eh/α   predicted    -0.1652265E-02 ( 216.29%)
   displ. norm   :     0.4716977 α      lambda       -0.2957208E-02
   maximum displ.:     0.1577103 α      in ANC's #40, #6, #35, ...
 * RMSD in coord.:     0.7085986 α      energy gain  -0.8389951E-01 Eh

generating ANC from model Hessian ...
Using Lindh-Hessian (1995)
 Shifting diagonal of input Hessian by    1.0040322626118821E-002
 Lowest  eigenvalues of input Hessian
    0.010000    0.000000    0.000000    0.000000    0.000000    0.000000
    0.000000    0.010095    0.010131    0.010198    0.010325    0.010401
    0.010623    0.010664    0.010725    0.010814    0.010892    0.010937
 Highest eigenvalues
    2.040039    2.043333    2.104937    2.122455    2.185849    2.187160


........................................................................
.............................. CYCLE   43 ..............................
........................................................................

 iter      E             dE          RMSdq      gap      omega  full diag
   1   -100.7018045 -0.100702E+03  0.165E-01    0.83       0.0  T
   2   -100.7015106  0.293898E-03  0.117E-01    0.78       1.0  T
   3   -100.6961982  0.531238E-02  0.245E-01    1.01       1.0  T
   4   -100.7015044 -0.530618E-02  0.664E-02    0.78       1.0  T
   5   -100.7019565 -0.452150E-03  0.562E-03    0.83       2.1  T
   6   -100.7019577 -0.115744E-05  0.284E-03    0.82       4.1  T
   7   -100.7019577 -0.779098E-07  0.128E-03    0.83       9.2  T
   8   -100.7019579 -0.129399E-06  0.720E-04    0.82      16.4  T
   9   -100.7019579 -0.720933E-07  0.150E-04    0.83      78.7  T
     SCC iter.                  ...        0 min,  0.073 sec
     gradient                   ...        0 min,  0.069 sec
 * total energy  :   -99.3104116 Eh     change       -0.1118587E-02 Eh
   gradient norm :     0.0253167 Eh/α   predicted     0.0000000E+00 (-100.00%)
   displ. norm   :     0.2260808 α      lambda       -0.2324497E-02
   maximum displ.:     0.1012804 α      in ANC's #13, #16, #10, ...

........................................................................
.............................. CYCLE   44 ..............................
........................................................................

 iter      E             dE          RMSdq      gap      omega  full diag
   1   -100.6997640 -0.100700E+03  0.920E-02    0.84       0.0  T
   2   -100.6990332  0.730812E-03  0.101E-01    0.76       1.0  T
   3   -100.6986642  0.368989E-03  0.117E-01    0.91       1.0  T
   4   -100.6998020 -0.113782E-02  0.170E-02    0.83       1.0  T
   5   -100.6998248 -0.227518E-04  0.367E-03    0.83       3.2  T
   6   -100.6998254 -0.599308E-06  0.123E-03    0.83       9.5  T
   7   -100.6998254 -0.319921E-07  0.478E-04    0.83      24.7  T
   8   -100.6998254 -0.163112E-07  0.192E-04    0.83      61.5  T
     SCC iter.                  ...        0 min,  0.065 sec
     gradient                   ...        0 min,  0.069 sec
 * total energy  :   -99.3118506 Eh     change       -0.1439020E-02 Eh
   gradient norm :     0.0097911 Eh/α   predicted    -0.1221694E-02 ( -15.10%)
   displ. norm   :     0.2751828 α      lambda       -0.9696073E-03
   maximum displ.:     0.1352050 α      in ANC's #16, #13, #18, ...

........................................................................
.............................. CYCLE   45 ..............................
........................................................................

 iter      E             dE          RMSdq      gap      omega  full diag
   1   -100.6997093 -0.100700E+03  0.870E-02    0.83       0.0  T
   2   -100.6996976  0.117029E-04  0.524E-02    0.84       1.0  T
   3   -100.6984487  0.124891E-02  0.115E-01    0.75       1.0  T
   4   -100.6996858 -0.123716E-02  0.171E-02    0.84       1.0  T
   5   -100.6997189 -0.330777E-04  0.339E-03    0.82       3.5  T
   6   -100.6997197 -0.765118E-06  0.147E-03    0.83       8.0  T
   7   -100.6997198 -0.165205E-06  0.574E-04    0.83      20.5  T
   8   -100.6997199 -0.414478E-07  0.172E-04    0.83      68.7  T
     SCC iter.                  ...        0 min,  0.065 sec
     gradient                   ...        0 min,  0.068 sec
 * total energy  :   -99.3125755 Eh     change       -0.7248322E-03 Eh
   gradient norm :     0.0064469 Eh/α   predicted    -0.5215173E-03 ( -28.05%)
   displ. norm   :     0.4728859 α      lambda       -0.1120553E-02
   maximum displ.:     0.2328954 α      in ANC's #16, #13, #10, ...

........................................................................
.............................. CYCLE   46 ..............................
........................................................................

 iter      E             dE          RMSdq      gap      omega  full diag
   1   -100.6980746 -0.100698E+03  0.151E-01    0.84       0.0  T
   2   -100.6977518  0.322852E-03  0.105E-01    0.78       1.0  T
   3   -100.6908532  0.689861E-02  0.270E-01    1.05       1.0  T
   4   -100.6981019 -0.724878E-02  0.116E-02    0.84       1.0  T
   5   -100.6981167 -0.147196E-04  0.354E-03    0.83       3.3  T
   6   -100.6981162  0.403881E-06  0.282E-03    0.83       4.2  T
   7   -100.6981173 -0.108439E-05  0.604E-04    0.83      19.5  T
   8   -100.6981174 -0.466491E-07  0.214E-04    0.83      55.1  T
   9   -100.6981174 -0.224753E-08  0.134E-04    0.83      87.7  T
     SCC iter.                  ...        0 min,  0.073 sec
     gradient                   ...        0 min,  0.074 sec
 * total energy  :   -99.3134210 Eh     change       -0.8455325E-03 Eh
   gradient norm :     0.0127352 Eh/α   predicted    -0.6855726E-03 ( -18.92%)
   displ. norm   :     0.4824227 α      lambda       -0.9524351E-03
   maximum displ.:     0.2283881 α      in ANC's #16, #13, #18, ...

........................................................................
.............................. CYCLE   47 ..............................
........................................................................

 iter      E             dE          RMSdq      gap      omega  full diag
   1   -100.6985753 -0.100699E+03  0.142E-01    0.84       0.0  T
   2   -100.6985463  0.290244E-04  0.861E-02    0.81       1.0  T
   3   -100.6950470  0.349925E-02  0.185E-01    0.99       1.0  T
   4   -100.6985645 -0.351748E-02  0.197E-02    0.82       1.0  T
   5   -100.6986051 -0.406448E-04  0.380E-03    0.83       3.1  T
   6   -100.6986056 -0.440982E-06  0.201E-03    0.83       5.9  T
   7   -100.6986057 -0.153427E-06  0.728E-04    0.83      16.2  T
   8   -100.6986058 -0.811631E-07  0.261E-04    0.83      45.2  T
     SCC iter.                  ...        0 min,  0.065 sec
     gradient                   ...        0 min,  0.069 sec
 * total energy  :   -99.3140701 Eh     change       -0.6491011E-03 Eh
   gradient norm :     0.0141253 Eh/α   predicted    -0.5870529E-03 (  -9.56%)
   displ. norm   :     0.3375592 α      lambda       -0.7167054E-03
   maximum displ.:     0.1716219 α      in ANC's #16, #13, #10, ...

........................................................................
.............................. CYCLE   48 ..............................
........................................................................

 iter      E             dE          RMSdq      gap      omega  full diag
   1   -100.7033751 -0.100703E+03  0.828E-02    0.84       0.0  T
   2   -100.7032314  0.143690E-03  0.648E-02    0.80       1.0  T
   3   -100.7017041  0.152734E-02  0.130E-01    0.94       1.0  T
   4   -100.7033702 -0.166615E-02  0.170E-02    0.82       1.0  T
   5   -100.7033980 -0.278246E-04  0.261E-03    0.83       4.5  T
   6   -100.7033981 -0.982346E-07  0.136E-03    0.83       8.6  T
   7   -100.7033982 -0.858464E-07  0.368E-04    0.83      32.0  T
   8   -100.7033982 -0.607309E-08  0.246E-04    0.83      48.0  T
     SCC iter.                  ...        0 min,  0.065 sec
     gradient                   ...        0 min,  0.069 sec
 * total energy  :   -99.3145048 Eh     change       -0.4347183E-03 Eh
   gradient norm :     0.0090788 Eh/α   predicted    -0.3991905E-03 (  -8.17%)
   displ. norm   :     0.2589604 α      lambda       -0.4031248E-03
   maximum displ.:     0.1127566 α      in ANC's #10, #18, #13, ...

........................................................................
.............................. CYCLE   49 ..............................
........................................................................

 iter      E             dE          RMSdq      gap      omega  full diag
   1   -100.7065381 -0.100707E+03  0.918E-02    0.83       0.0  T
   2   -100.7065425 -0.441824E-05  0.540E-02    0.83       1.0  T
   3   -100.7065094  0.330923E-04  0.206E-02    0.84       1.0  T
   4   -100.7065463 -0.368593E-04  0.344E-03    0.83       3.4  T
   5   -100.7065443  0.193656E-05  0.559E-03    0.84       2.1  T
   6   -100.7065473 -0.302448E-05  0.101E-03    0.83      11.7  T
   7   -100.7065474 -0.254336E-07  0.441E-04    0.83      26.7  T
   8   -100.7065474 -0.346951E-07  0.167E-04    0.83      70.7  T
     SCC iter.                  ...        0 min,  0.066 sec
     gradient                   ...        0 min,  0.073 sec
 * total energy  :   -99.3147578 Eh     change       -0.2529711E-03 Eh
   gradient norm :     0.0067096 Eh/α   predicted    -0.2150825E-03 ( -14.98%)
   displ. norm   :     0.2202274 α      lambda       -0.2577920E-03
   maximum displ.:     0.1160847 α      in ANC's #10, #12, #28, ...

........................................................................
.............................. CYCLE   50 ..............................
........................................................................

 iter      E             dE          RMSdq      gap      omega  full diag
   1   -100.7079917 -0.100708E+03  0.637E-02    0.84       0.0  T
   2   -100.7079863  0.541431E-05  0.388E-02    0.83       1.0  T
   3   -100.7073573  0.628965E-03  0.774E-02    0.90       1.0  T
   4   -100.7079889 -0.631570E-03  0.844E-03    0.83       1.4  T
   5   -100.7079950 -0.610212E-05  0.136E-03    0.84       8.6  T
   6   -100.7079950 -0.185553E-07  0.714E-04    0.84      16.5  T
   7   -100.7079951 -0.366978E-07  0.299E-04    0.84      39.4  T
     SCC iter.                  ...        0 min,  0.058 sec
     gradient                   ...        0 min,  0.068 sec
 * total energy  :   -99.3149572 Eh     change       -0.1993804E-03 Eh
   gradient norm :     0.0058187 Eh/α   predicted    -0.1351481E-03 ( -32.22%)
   displ. norm   :     0.3723387 α      lambda       -0.3507544E-03
   maximum displ.:     0.2088410 α      in ANC's #10, #12, #15, ...

........................................................................
.............................. CYCLE   51 ..............................
........................................................................

 iter      E             dE          RMSdq      gap      omega  full diag
   1   -100.7071341 -0.100707E+03  0.102E-01    0.85       0.0  T
   2   -100.7071287  0.540194E-05  0.610E-02    0.83       1.0  T
[...]
         ::                     SUMMARY                     ::
         :::::::::::::::::::::::::::::::::::::::::::::::::::::
         :: total energy             -99.364881370121 Eh    ::
         :: gradient norm              0.002505811713 Eh/a0 ::
         :: HOMO-LUMO gap              1.108942046127 eV    ::
         ::.................................................::
         :: SCC energy              -100.731533939982 Eh    ::
         :: -> isotropic ES            0.109789283334 Eh    ::
         :: -> anisotropic ES          0.004341639371 Eh    ::
         :: -> anisotropic XC          0.050019388425 Eh    ::
         :: -> dispersion             -0.074021144899 Eh    ::
         :: repulsion energy           1.365279577920 Eh    ::
         :: add. restraining           0.000000206022 Eh    ::
         :: total charge               1.000000000000 e     ::
         :::::::::::::::::::::::::::::::::::::::::::::::::::::

           -------------------------------------------------
          |                Property Printout                |
           -------------------------------------------------

    * Orbital Energies and Occupations

         #    Occupation            Energy/Eh            Energy/eV
      -------------------------------------------------------------
         1        2.0000           -0.8337078             -22.6863
       ...           ...                  ...                  ...
        78        1.9961           -0.5291437             -14.3987
        79        1.9957           -0.5278069             -14.3624
        80        1.9946           -0.5241512             -14.2629
        81        1.9937           -0.5217090             -14.1964
        82        1.9928           -0.5196116             -14.1394
        83        1.9916           -0.5170135             -14.0687
        84        1.9907           -0.5153636             -14.0238
        85        1.9799           -0.5031534             -13.6915
        86        1.9595           -0.4919080             -13.3855
        87        1.9557           -0.4904486             -13.3458
        88        1.9133           -0.4794577             -13.0467
        89        1.8808           -0.4741485             -12.9022
        90        1.7196           -0.4591851             -12.4951 (HOMO)
        91        0.6372           -0.4184322             -11.3861 (LUMO)
        92        0.0096           -0.3459877              -9.4148
        93        0.0052           -0.3363179              -9.1517
        94        0.0022           -0.3224594              -8.7746
        95        0.0014           -0.3150895              -8.5740
        96        0.0012           -0.3129005              -8.5145
        97        0.0000           -0.2524954              -6.8707
        98        0.0000           -0.1907794              -5.1914
        99                         -0.0924683              -2.5162
       100                         -0.0744393              -2.0256
       101                         -0.0681994              -1.8558
       ...                                ...                  ...
       171                          0.5680517              15.4575
      -------------------------------------------------------------
                  HL-Gap            0.0407529 Eh            1.1089 eV
             Fermi-level           -0.4304686 Eh          -11.7136 eV

     #   Z          covCN         q      C6AA      α(0)
     1   7 N        1.774    -0.263    27.643     7.786
     2   6 C        2.828     0.103    25.709     8.308
     3   6 C        3.907     0.009    20.365     6.414
     4   6 C        2.975     0.025    27.448     8.594
     5   6 C        2.905    -0.078    29.960     8.975
     6   6 C        2.859     0.153    24.683     8.143
     7   8 O        1.706    -0.184    17.076     5.579
     8   6 C        3.645     0.016    20.650     6.531
     9   6 C        3.793     0.147    18.230     6.080
    10   8 O        1.701    -0.290    18.828     5.858
    11   6 C        3.634     0.033    20.402     6.501
    12   6 C        2.908    -0.047    29.164     8.855
    13   6 C        2.905    -0.038    28.950     8.822
    14   6 C        3.811    -0.060    21.646     6.622
    15   6 C        3.807    -0.071    21.860     6.656
    16   6 C        2.846     0.082    26.156     8.382
    17   7 N        1.829    -0.213    26.482     7.626
    18   6 C        3.766     0.023    20.224     6.410
    19   6 C        3.810    -0.064    21.726     6.635
    20   6 C        2.967     0.012    27.734     8.638
    21   6 C        2.923    -0.042    29.035     8.836
    22   6 C        2.912    -0.065    29.606     8.922
    23   6 C        2.864     0.136    25.018     8.199
    24   8 O        1.706    -0.212    17.516     5.651
    25   6 C        3.645     0.023    20.529     6.512
    26   6 C        2.862     0.137    25.005     8.196
    27   8 O        1.706    -0.214    17.557     5.657
    28   6 C        3.644     0.024    20.513     6.510
    29   6 C        2.918    -0.074    29.848     8.959
    30   6 C        3.760    -0.115    22.745     6.799
    31   6 C        3.853    -0.006    20.642     6.462
    32   6 C        3.755    -0.117    22.799     6.808
    33   6 C        3.755    -0.122    22.892     6.822
    34   1 H        0.926     0.062     2.181     2.310
    35   1 H        0.924     0.068     2.104     2.268
    36   1 H        0.925     0.093     1.847     2.125
    37   1 H        0.924     0.063     2.163     2.300
    38   1 H        0.924     0.044     2.394     2.420
    39   1 H        0.925     0.078     1.999     2.211
    40   1 H        0.924     0.044     2.393     2.419
    41   1 H        0.926     0.065     2.141     2.288
    42   1 H        0.926     0.056     2.245     2.343
    43   1 H        0.924     0.058     2.226     2.333
    44   1 H        0.924     0.058     2.228     2.334
    45   1 H        0.925     0.062     2.178     2.308
    46   1 H        0.924     0.072     2.067     2.248
    47   1 H        0.923     0.020     2.735     2.586
    48   1 H        0.923     0.017     2.772     2.604
    49   1 H        0.924     0.053     2.283     2.363
    50   1 H        0.923     0.023     2.686     2.563
    51   1 H        0.924     0.057     2.239     2.340
    52   1 H        0.925     0.060     2.196     2.317
    53   1 H        0.926     0.053     2.278     2.360
    54   1 H        0.926     0.062     2.174     2.305
    55   1 H        0.924     0.059     2.211     2.325
    56   1 H        0.924     0.060     2.193     2.316
    57   1 H        0.925     0.086     1.919     2.167
    58   1 H        0.925     0.085     1.926     2.170
    59   1 H        0.924     0.056     2.246     2.344
    60   1 H        0.924     0.058     2.219     2.329
    61   1 H        0.926     0.058     2.228     2.334
    62   1 H        0.925     0.076     2.019     2.222
    63   1 H        0.925     0.054     2.267     2.355
    64   1 H        0.925     0.061     2.183     2.311
    65   1 H        0.924     0.039     2.460     2.453
    66   1 H        0.925     0.066     2.129     2.282
    67   1 H        0.925     0.035     2.516     2.481
    68   1 H        0.925     0.055     2.257     2.349
    69   1 H        0.925     0.072     2.066     2.248
    70   1 H        0.925     0.041     2.437     2.441
    71   1 H        0.925     0.058     2.218     2.329
    72   1 H        0.860     0.162     1.320     1.799

 Mol. C6AA /au·bohr⁶  :      47182.362921
 Mol. C8AA /au·bohr⁸  :    1074063.133220
 Mol. α(0) /au        :        332.351949


Wiberg/Mayer (AO) data.
largest (>0.10) Wiberg bond orders for each atom

 ---------------------------------------------------------------------------
     #   Z sym  total        # sym  WBO       # sym  WBO       # sym  WBO
 ---------------------------------------------------------------------------
     1   7 N    3.013 --     2 C    1.957    72 H    0.939
     2   6 C    3.939 --     1 N    1.957     3 C    0.989    47 H    0.921
     3   6 C    3.969 --     4 C    0.998     2 C    0.989    14 C    0.944
                            31 C    0.929
     4   6 C    3.710 --     5 C    1.341    13 C    1.250     3 C    0.998
     5   6 C    3.950 --     6 C    1.450     4 C    1.341    34 H    0.953
     6   6 C    3.749 --     5 C    1.450     7 O    1.189     9 C    0.973
     7   8 O    2.312 --     6 C    1.189     8 C    0.963
     8   6 C    3.919 --    36 H    0.976    35 H    0.971    37 H    0.971
                             7 O    0.963
     9   6 C    3.950 --    12 C    1.006     6 C    0.973    10 O    0.963
                            30 C    0.915
    10   8 O    2.062 --    11 C    0.989     9 C    0.963
    11   6 C    3.932 --    10 O    0.989    39 H    0.972    40 H    0.971
                            38 H    0.970
    12   6 C    3.759 --    13 C    1.661     9 C    1.006    41 H    0.963
    13   6 C    3.976 --    12 C    1.661     4 C    1.250    42 H    0.956
    14   6 C    3.978 --    15 C    0.993    44 H    0.970    43 H    0.967
                             3 C    0.944
    15   6 C    3.986 --    16 C    1.029    14 C    0.993    45 H    0.965
                            46 H    0.942
    16   6 C    3.948 --    17 N    1.879    15 C    1.029    48 H    0.930
    17   7 N    3.040 --    16 C    1.879    18 C    1.029
    18   6 C    3.967 --    17 N    1.029    19 C    0.960    49 H    0.959
                            50 H    0.957
    19   6 C    3.984 --    20 C    1.015    52 H    0.973    51 H    0.966
                            18 C    0.960
    20   6 C    3.918 --    29 C    1.391    21 C    1.379    19 C    1.015
    21   6 C    3.920 --    22 C    1.432    20 C    1.379    53 H    0.967
    22   6 C    3.946 --    21 C    1.432    23 C    1.367    54 H    0.962
    23   6 C    3.864 --    22 C    1.367    26 C    1.206    24 O    1.121
    24   8 O    2.246 --    23 C    1.121    25 C    0.974
    25   6 C    3.923 --    57 H    0.976    24 O    0.974    55 H    0.971
                            56 H    0.970
    26   6 C    3.872 --    29 C    1.380    23 C    1.206    27 O    1.117
    27   8 O    2.249 --    26 C    1.117    28 C    0.975
    28   6 C    3.925 --    58 H    0.976    27 O    0.975    60 H    0.971
                            59 H    0.971
    29   6 C    3.946 --    20 C    1.391    26 C    1.380    61 H    0.961
    30   6 C    3.932 --    63 H    0.984    62 H    0.977    64 H    0.977
                             9 C    0.915
    31   6 C    3.955 --    32 C    1.008    33 C    1.008    65 H    0.959
                             3 C    0.929
    32   6 C    3.976 --    31 C    1.008    67 H    0.980    68 H    0.980
                            66 H    0.974
    33   6 C    3.970 --    31 C    1.008    70 H    0.981    71 H    0.976
                            69 H    0.970
    34   1 H    0.995 --     5 C    0.953
    35   1 H    0.990 --     8 C    0.971
    36   1 H    0.991 --     8 C    0.976
    37   1 H    0.990 --     8 C    0.971
    38   1 H    0.989 --    11 C    0.970
    39   1 H    0.991 --    11 C    0.972
    40   1 H    0.992 --    11 C    0.971
    41   1 H    0.994 --    12 C    0.963
    42   1 H    0.995 --    13 C    0.956
    43   1 H    0.995 --    14 C    0.967
    44   1 H    0.995 --    14 C    0.970
    45   1 H    0.995 --    15 C    0.965
    46   1 H    0.992 --    15 C    0.942
    47   1 H    0.975 --     2 C    0.921
    48   1 H    0.982 --    16 C    0.930
    49   1 H    0.993 --    18 C    0.959
    50   1 H    0.987 --    18 C    0.957
    51   1 H    0.992 --    19 C    0.966
    52   1 H    0.994 --    19 C    0.973
    53   1 H    0.996 --    21 C    0.967
    54   1 H    0.994 --    22 C    0.962
    55   1 H    0.988 --    25 C    0.971
    56   1 H    0.988 --    25 C    0.970
    57   1 H    0.992 --    25 C    0.976
    58   1 H    0.992 --    28 C    0.976
    59   1 H    0.989 --    28 C    0.971
    60   1 H    0.989 --    28 C    0.971
    61   1 H    0.995 --    29 C    0.961
    62   1 H    0.991 --    30 C    0.977
    63   1 H    0.996 --    30 C    0.984
    64   1 H    0.994 --    30 C    0.977
    65   1 H    0.989 --    31 C    0.959
    66   1 H    0.990 --    32 C    0.974
    67   1 H    0.996 --    32 C    0.980
    68   1 H    0.993 --    32 C    0.980
    69   1 H    0.988 --    33 C    0.970
    70   1 H    0.995 --    33 C    0.981
    71   1 H    0.991 --    33 C    0.976
    72   1 H    0.965 --     1 N    0.939
 ---------------------------------------------------------------------------

Topologies differ in total number of bonds
Writing topology from bond orders to xtbtopo.mol

molecular dipole:
                 x           y           z       tot (Debye)
 q only:        0.218       0.025      -0.651
   full:        0.727       0.214      -0.705       2.630
molecular quadrupole (traceless):
                xx          xy          yy          xz          yz          zz
 q only:       67.523       2.769     -21.609      11.949      -5.461     -45.913
  q+dip:       60.170       8.355     -17.969      14.518      -9.003     -42.201
   full:       60.644       8.029     -20.324      11.713      -9.300     -40.320

           -------------------------------------------------
          |                Geometry Summary                 |
           -------------------------------------------------

      molecular mass/u    :      455.6105846
   center of mass at/Å    :        0.0767131       0.0378255      -0.0168097
  moments of inertia/u·Å² :        0.2709034E+04   0.1042936E+05   0.1187844E+05
rotational constants/cm⁻¹ :        0.6222746E-02   0.1616364E-02   0.1419179E-02

 * 63 selected distances

     #   Z          #   Z                                           value/Å
     1   7 N        2   6 C                                       1.2497947
     4   6 C        5   6 C                                       1.4004875
     5   6 C        6   6 C                                       1.3734592
     6   6 C        7   8 O                                       1.3244965
     7   8 O        8   6 C                                       1.4132631
     9   6 C       10   8 O                                       1.4203126
    10   8 O       11   6 C                                       1.4075781
     4   6 C       13   6 C                                       1.4151601
    12   6 C       13   6 C                                       1.3511354
    14   6 C       15   6 C                                       1.5336454
    16   6 C       17   7 N                                       1.2559028
    17   7 N       18   6 C                                       1.4283224
    18   6 C       19   6 C                                       1.5407040 (max)
    20   6 C       21   6 C                                       1.3907381
    21   6 C       22   6 C                                       1.3837508
    22   6 C       23   6 C                                       1.3898287
    23   6 C       24   8 O                                       1.3428943
    24   8 O       25   6 C                                       1.4093323
    23   6 C       26   6 C                                       1.4254792
    26   6 C       27   8 O                                       1.3441731
    27   8 O       28   6 C                                       1.4083632
    20   6 C       29   6 C                                       1.3909493
    26   6 C       29   6 C                                       1.3888891
    31   6 C       32   6 C                                       1.5266850
    31   6 C       33   6 C                                       1.5256590
     5   6 C       34   1 H                                       1.0783244
     8   6 C       35   1 H                                       1.0930508
     8   6 C       36   1 H                                       1.0883067
     8   6 C       37   1 H                                       1.0939086
    11   6 C       38   1 H                                       1.0971286
    11   6 C       39   1 H                                       1.0894167
    11   6 C       40   1 H                                       1.0943581
    12   6 C       41   1 H                                       1.0778197
    13   6 C       42   1 H                                       1.0804761
    14   6 C       43   1 H                                       1.0904833
    14   6 C       44   1 H                                       1.0914315
    15   6 C       45   1 H                                       1.0900095
    15   6 C       46   1 H                                       1.0952949
     2   6 C       47   1 H                                       1.0996783
    16   6 C       48   1 H                                       1.1012817
    18   6 C       49   1 H                                       1.0936995
    18   6 C       50   1 H                                       1.1023366
    19   6 C       51   1 H                                       1.0922757
    19   6 C       52   1 H                                       1.0897472
    21   6 C       53   1 H                                       1.0794073
    22   6 C       54   1 H                                       1.0777824 (min)
    25   6 C       55   1 H                                       1.0941696
    25   6 C       56   1 H                                       1.0940456
    25   6 C       57   1 H                                       1.0882527
    28   6 C       58   1 H                                       1.0883712
    28   6 C       59   1 H                                       1.0942506
    28   6 C       60   1 H                                       1.0941328
    29   6 C       61   1 H                                       1.0786103
    30   6 C       62   1 H                                       1.0869085
    30   6 C       63   1 H                                       1.0871515
    30   6 C       64   1 H                                       1.0867533
    31   6 C       65   1 H                                       1.0966320
    32   6 C       66   1 H                                       1.0857994
    32   6 C       67   1 H                                       1.0878284
    32   6 C       68   1 H                                       1.0869333
    33   6 C       69   1 H                                       1.0855279
    33   6 C       70   1 H                                       1.0863886
    33   6 C       71   1 H                                       1.0871517

 * 4 distinct bonds (by element types)

   Z      Z             #   av. dist./Å        max./Å        min./Å
   1 H    6 C          38     1.0896086     1.1023366     1.0777824
   6 C    6 C          14     1.4311836     1.5407040     1.3511354
   6 C    7 N           3     1.3113400     1.4283224     1.2497947
   6 C    8 O           8     1.3838016     1.4203126     1.3244965


optimized geometry written to: xtbopt.xyz


           -------------------------------------------------
          | TOTAL ENERGY              -99.364881370121 Eh   |
          | GRADIENT NORM               0.002505811713 Eh/α |
          | HOMO-LUMO GAP               1.108942046127 eV   |
           -------------------------------------------------

------------------------------------------------------------------------
 * finished run on 2024/04/06 at 11:13:56.388     
------------------------------------------------------------------------
 total:
 * wall-time:     0 d,  0 h,  0 min, 14.521 sec
 *  cpu-time:     0 d,  0 h,  0 min, 14.499 sec
 * ratio c/w:     0.998 speedup
 SCF:
 * wall-time:     0 d,  0 h,  0 min,  0.190 sec
 *  cpu-time:     0 d,  0 h,  0 min,  0.190 sec
 * ratio c/w:     1.000 speedup
 ANC optimizer:
 * wall-time:     0 d,  0 h,  0 min, 14.289 sec
 *  cpu-time:     0 d,  0 h,  0 min, 14.286 sec
 * ratio c/w:     1.000 speedup

