      -----------------------------------------------------------      
     |                   =====================                   |     
     |                           x T B                           |     
     |                   =====================                   |     
     |                         S. Grimme                         |     
     |          Mulliken Center for Theoretical Chemistry        |     
     |                    University of Bonn                     |     
      -----------------------------------------------------------      

   * xtb version 6.6.1 (8d0f1dd) compiled by 'conda@1efc2f54142f' on 2023-08-01

   xtb is free software: you can redistribute it and/or modify it under
   the terms of the GNU Lesser General Public License as published by
   the Free Software Foundation, either version 3 of the License, or
   (at your option) any later version.
   
   xtb is distributed in the hope that it will be useful,
   but WITHOUT ANY WARRANTY; without even the implied warranty of
   MERCHANTABILITY or FITNESS FOR A PARTICULAR PURPOSE.  See the
   GNU Lesser General Public License for more details.
   
   Cite this work as:
   * C. Bannwarth, E. Caldeweyher, S. Ehlert, A. Hansen, P. Pracht,
     J. Seibert, S. Spicher, S. Grimme, WIREs Comput. Mol. Sci., 2020, 11,
     e01493. DOI: 10.1002/wcms.1493
   
   for GFN2-xTB:
   * C. Bannwarth, S. Ehlert and S. Grimme., J. Chem. Theory Comput., 2019,
     15, 1652-1671. DOI: 10.1021/acs.jctc.8b01176
   for GFN1-xTB:
   * S. Grimme, C. Bannwarth, P. Shushkov, J. Chem. Theory Comput., 2017,
     13, 1989-2009. DOI: 10.1021/acs.jctc.7b00118
   for GFN0-xTB:
   * P. Pracht, E. Caldeweyher, S. Ehlert, S. Grimme, ChemRxiv, 2019, preprint.
     DOI: 10.26434/chemrxiv.8326202.v1
   for GFN-FF:
   * S. Spicher and S. Grimme, Angew. Chem. Int. Ed., 2020, 59, 15665-15673.
     DOI: 10.1002/anie.202004239
   
   for ALPB and GBSA implicit solvation:
   * S. Ehlert, M. Stahn, S. Spicher, S. Grimme, J. Chem. Theory Comput.,
     2021, 17, 4250-4261. DOI: 10.1021/acs.jctc.1c00471
   
   for DFT-D4:
   * E. Caldeweyher, C. Bannwarth and S. Grimme, J. Chem. Phys., 2017,
     147, 034112. DOI: 10.1063/1.4993215
   * E. Caldeweyher, S. Ehlert, A. Hansen, H. Neugebauer, S. Spicher,
     C. Bannwarth and S. Grimme, J. Chem. Phys., 2019, 150, 154122.
     DOI: 10.1063/1.5090222
   * E. Caldeweyher, J.-M. Mewes, S. Ehlert and S. Grimme, Phys. Chem. Chem. Phys.
     2020, 22, 8499-8512. DOI: 10.1039/D0CP00502A
   
   for sTDA-xTB:
   * S. Grimme and C. Bannwarth, J. Chem. Phys., 2016, 145, 054103.
     DOI: 10.1063/1.4959605
   
   in the mass-spec context:
   * V. Asgeirsson, C. Bauer and S. Grimme, Chem. Sci., 2017, 8, 4879.
     DOI: 10.1039/c7sc00601b
   * J. Koopman and S. Grimme, ACS Omega 2019, 4, 12, 15120-15133.
     DOI: 10.1021/acsomega.9b02011
   
   for metadynamics refer to:
   * S. Grimme, J. Chem. Theory Comput., 2019, 155, 2847-2862
     DOI: 10.1021/acs.jctc.9b00143
   
   for SPH calculations refer to:
   * S. Spicher and S. Grimme, J. Chem. Theory Comput., 2021, 17, 1701-1714
     DOI: 10.1021/acs.jctc.0c01306
   
   with help from (in alphabetical order)
   P. Atkinson, C. Bannwarth, F. Bohle, G. Brandenburg, E. Caldeweyher
   M. Checinski, S. Dohm, S. Ehlert, S. Ehrlich, I. Gerasimov, C. Hölzer
   A. Katbashev, J. Koopman, C. Lavigne, S. Lehtola, F. März, M. Müller,
   F. Musil, H. Neugebauer, J. Pisarek, C. Plett, P. Pracht, F. Pultar,
   J. Seibert, P. Shushkov, S. Spicher, M. Stahn, M. Steiner, T. Strunk,
   J. Stückrath, T. Rose, and J. Unsleber
   
 * started run on 2024/06/05 at 19:58:43.107     

           -------------------------------------------------
          |                Calculation Setup                |
           -------------------------------------------------

          program call               : xtb struc.xyz --opt loose --input .xc1 --gfn2
          hostname                   : n-62-29-9
          coordinate file            : struc.xyz
          omp threads                :                     1

   ID    Z sym.   atoms
    1    6 C      1, 3, 5-7, 10, 11, 14
    2    7 N      2, 4, 9, 13
    3    8 O      8, 12
    4    1 H      15-25
constraining bond 3 16 to    5.1400000 Å, actual value:    2.7548643 Å

           -------------------------------------------------
          |                 G F N 2 - x T B                 |
           -------------------------------------------------

        Reference                      10.1021/acs.jctc.8b01176
      * Hamiltonian:
        H0-scaling (s, p, d)           1.850000    2.230000    2.230000
        zeta-weighting                 0.500000
      * Dispersion:
        s8                             2.700000
        a1                             0.520000
        a2                             5.000000
        s9                             5.000000
      * Repulsion:
        kExp                           1.500000    1.000000
        rExp                           1.000000
      * Coulomb:
        alpha                          2.000000
        third order                    shell-resolved
        anisotropic                    true
        a3                             3.000000
        a5                             4.000000
        cn-shift                       1.200000
        cn-exp                         4.000000
        max-rad                        5.000000


          ...................................................
          :                      SETUP                      :
          :.................................................:
          :  # basis functions                  67          :
          :  # atomic orbitals                  67          :
          :  # shells                           39          :
          :  # electrons                        74          :
          :  max. iterations                   250          :
          :  Hamiltonian                  GFN2-xTB          :
          :  restarted?                      false          :
          :  GBSA solvation                  false          :
          :  PC potential                    false          :
          :  electronic temp.         7500.0000000     K    :
          :  accuracy                    1.0000000          :
          :  -> integral cutoff          0.2500000E+02      :
          :  -> integral neglect         0.1000000E-07      :
          :  -> SCF convergence          0.1000000E-05 Eh   :
          :  -> wf. convergence          0.1000000E-03 e    :
          :  Broyden damping             0.4000000          :
          ...................................................

 iter      E             dE          RMSdq      gap      omega  full diag
   1    -42.5960780 -0.425961E+02  0.440E+00    3.52       0.0  T
   2    -42.7780033 -0.181925E+00  0.248E+00    3.37       1.0  T
   3    -42.7871777 -0.917437E-02  0.149E+00    3.50       1.0  T
   4    -42.7817164  0.546128E-02  0.642E-01    3.42       1.0  T
   5    -42.7911189 -0.940247E-02  0.115E-01    3.49       1.0  T
   6    -42.7912109 -0.920486E-04  0.685E-02    3.46       1.0  T
   7    -42.7912647 -0.537856E-04  0.265E-02    3.48       1.0  T
   8    -42.7912686 -0.385526E-05  0.113E-02    3.47       1.8  T
   9    -42.7912697 -0.111307E-05  0.441E-03    3.47       4.5  T
  10    -42.7912698 -0.733569E-07  0.139E-03    3.47      14.4  T
  11    -42.7912698 -0.243437E-08  0.602E-04    3.47      33.2  T
  12    -42.7912698 -0.222032E-08  0.181E-04    3.47     110.6  T

   *** convergence criteria satisfied after 12 iterations ***

         #    Occupation            Energy/Eh            Energy/eV
      -------------------------------------------------------------
         1        2.0000           -0.9116047             -24.8060
       ...           ...                  ...                  ...
        31        1.9942           -0.6212459             -16.9050
        32        1.9930           -0.6166804             -16.7807
        33        1.9876           -0.6031136             -16.4116
        34        1.9710           -0.5827317             -15.8569
        35        1.9403           -0.5651917             -15.3796
        36        1.9387           -0.5645672             -15.3627
        37        1.9155           -0.5566412             -15.1470 (HOMO)
        38        0.1907           -0.4290919             -11.6762 (LUMO)
        39        0.0640           -0.4015676             -10.9272
        40        0.0206           -0.3740689             -10.1789
        41        0.0006           -0.2879107              -7.8344
        42        0.0000           -0.2065811              -5.6214
       ...           ...                  ...                  ...
        67                          0.5613577              15.2753
      -------------------------------------------------------------
                  HL-Gap            0.1275493 Eh            3.4708 eV
             Fermi-level           -0.4825284 Eh          -13.1303 eV

 SCC (total)                   0 d,  0 h,  0 min,  0.037 sec
 SCC setup                      ...        0 min,  0.000 sec (  0.764%)
 Dispersion                     ...        0 min,  0.000 sec (  0.928%)
 classical contributions        ...        0 min,  0.000 sec (  0.278%)
 integral evaluation            ...        0 min,  0.006 sec ( 16.795%)
 iterations                     ...        0 min,  0.018 sec ( 49.521%)
 molecular gradient             ...        0 min,  0.012 sec ( 31.233%)
 printout                       ...        0 min,  0.000 sec (  0.442%)

         :::::::::::::::::::::::::::::::::::::::::::::::::::::
         ::                     SUMMARY                     ::
         :::::::::::::::::::::::::::::::::::::::::::::::::::::
         :: total energy             -32.102386525271 Eh    ::
         :: gradient norm              6.376923848281 Eh/a0 ::
         :: HOMO-LUMO gap              3.470793873671 eV    ::
         ::.................................................::
         :: SCC energy               -42.791269777655 Eh    ::
         :: -> isotropic ES            0.136760385929 Eh    ::
         :: -> anisotropic ES         -0.005341405309 Eh    ::
         :: -> anisotropic XC          0.011501049227 Eh    ::
         :: -> dispersion             -0.022650340738 Eh    ::
         :: repulsion energy           0.531105277918 Eh    ::
         :: add. restraining          10.157663815458 Eh    ::
         :: total charge               1.000000000010 e     ::
         :::::::::::::::::::::::::::::::::::::::::::::::::::::

      ----------------------------------------------------------- 
     |                   =====================                   |
     |                        A N C O P T                        |
     |                   =====================                   |
     |               Approximate Normal Coordinate               |
     |                Rational Function Optimizer                |
      ----------------------------------------------------------- 

          ...................................................
          :                      SETUP                      :
          :.................................................:
          :   optimization level             loose          :
          :   max. optcycles                   200          :
          :   ANC micro-cycles                  20          :
          :   degrees of freedom                69          :
          :.................................................:
          :   RF solver                   davidson          :
          :   write xtbopt.log                true          :
          :   linear?                        false          :
          :   energy convergence         0.5000000E-04 Eh   :
          :   grad. convergence          0.4000000E-02 Eh/α :
          :   maxmium RF displ.          1.0000000          :
          :   Hlow (freq-cutoff)         0.1000000E-01      :
          :   Hmax (freq-cutoff)         5.0000000          :
          :   S6 in model hess.         20.0000000          :
          ...................................................

generating ANC from model Hessian ...
Using Lindh-Hessian (1995)
 Shifting diagonal of input Hessian by    1.5092336330190252     
 Lowest  eigenvalues of input Hessian
    0.010000    0.323474    0.000000    0.000000    0.000000    0.000000
    0.000000    0.000000    1.513598    1.514815    1.517308    1.519289
    1.520555    1.522338    1.524740    1.529049    1.533933    1.547149
 Highest eigenvalues
    3.572569    3.650855    3.758995    3.915495    4.050778    4.643988


........................................................................
.............................. CYCLE    1 ..............................
........................................................................

 iter      E             dE          RMSdq      gap      omega  full diag
   1    -42.7912698 -0.427913E+02  0.838E-05    3.47       0.0  T
   2    -42.7912698 -0.247127E-10  0.452E-05    3.47     442.9  T
   3    -42.7912698 -0.149214E-11  0.279E-05    3.47     715.8  T
     SCC iter.                  ...        0 min,  0.005 sec
     gradient                   ...        0 min,  0.011 sec
 * total energy  :   -32.1023865 Eh     change       -0.2401990E-09 Eh
   gradient norm :     6.3769243 Eh/α   predicted     0.0000000E+00 (-100.00%)
   displ. norm   :     0.7339701 α      lambda       -0.4652102E+01
   maximum displ.:     0.5912456 α      in ANC's #69, #60, #58, ...

........................................................................
.............................. CYCLE    2 ..............................
........................................................................

 iter      E             dE          RMSdq      gap      omega  full diag
   1    -42.7239032 -0.427239E+02  0.115E+00    3.11       0.0  T
   2    -42.7353728 -0.114696E-01  0.704E-01    3.07       1.0  T
   3    -42.7396670 -0.429421E-02  0.371E-01    3.09       1.0  T
   4    -42.7401824 -0.515379E-03  0.187E-01    3.08       1.0  T
   5    -42.7405715 -0.389079E-03  0.239E-02    3.08       1.0  T
   6    -42.7405778 -0.631272E-05  0.114E-02    3.09       1.8  T
   7    -42.7405781 -0.366518E-06  0.446E-03    3.08       4.5  T
   8    -42.7405784 -0.290475E-06  0.118E-03    3.08      17.0  T
   9    -42.7405784 -0.118584E-07  0.638E-04    3.08      31.4  T
  10    -42.7405784 -0.179695E-08  0.164E-04    3.08     122.1  T
     SCC iter.                  ...        0 min,  0.014 sec
     gradient                   ...        0 min,  0.011 sec
 * total energy  :   -36.1428012 Eh     change       -0.4040415E+01 Eh
   gradient norm :     4.6650803 Eh/α   predicted    -0.3579941E+01 ( -11.40%)
   displ. norm   :     0.7933554 α      lambda       -0.3676553E+01
   maximum displ.:     0.6085454 α      in ANC's #69, #60, #58, ...

........................................................................
.............................. CYCLE    3 ..............................
........................................................................

 iter      E             dE          RMSdq      gap      omega  full diag
   1    -42.6162922 -0.426163E+02  0.112E+00    2.73       0.0  T
   2    -42.6233055 -0.701332E-02  0.806E-01    2.64       1.0  T
   3    -42.6319986 -0.869311E-02  0.369E-01    2.65       1.0  T
   4    -42.6326089 -0.610284E-03  0.187E-01    2.65       1.0  T
   5    -42.6330400 -0.431082E-03  0.328E-02    2.64       1.0  T
   6    -42.6330603 -0.202812E-04  0.122E-02    2.65       1.6  T
   7    -42.6330615 -0.123552E-05  0.532E-03    2.64       3.8  T
   8    -42.6330618 -0.236286E-06  0.188E-03    2.64      10.7  T
   9    -42.6330618 -0.381050E-07  0.792E-04    2.64      25.2  T
  10    -42.6330618 -0.258766E-08  0.188E-04    2.64     106.3  T
     SCC iter.                  ...        0 min,  0.014 sec
     gradient                   ...        0 min,  0.011 sec
 * total energy  :   -39.1494639 Eh     change       -0.3006663E+01 Eh
   gradient norm :     2.9980629 Eh/α   predicted    -0.2995317E+01 (  -0.38%)
   displ. norm   :     0.7768787 α      lambda       -0.2285222E+01
   maximum displ.:     0.4742019 α      in ANC's #69, #60, #58, ...

........................................................................
.............................. CYCLE    4 ..............................
........................................................................

 iter      E             dE          RMSdq      gap      omega  full diag
   1    -42.4673366 -0.424673E+02  0.139E+00    1.72       0.0  T
   2    -42.4037604  0.635762E-01  0.185E+00    2.10       1.0  T
   3    -42.5212057 -0.117445E+00  0.482E-01    1.93       1.0  T
   4    -42.5209585  0.247171E-03  0.274E-01    1.89       1.0  T
   5    -42.5221303 -0.117178E-02  0.104E-01    1.91       1.0  T
   6    -42.5224057 -0.275401E-03  0.222E-02    1.91       1.0  T
   7    -42.5224128 -0.712916E-05  0.131E-02    1.91       1.5  T
   8    -42.5224133 -0.444490E-06  0.602E-03    1.91       3.3  T
   9    -42.5224142 -0.863155E-06  0.174E-03    1.91      11.5  T
  10    -42.5224142 -0.481999E-07  0.725E-04    1.91      27.6  T
  11    -42.5224142 -0.851281E-08  0.293E-04    1.91      68.3  T
     SCC iter.                  ...        0 min,  0.017 sec
     gradient                   ...        0 min,  0.011 sec
 * total energy  :   -40.9692753 Eh     change       -0.1819811E+01 Eh
   gradient norm :     1.7707871 Eh/α   predicted    -0.1832223E+01 (   0.68%)
   displ. norm   :     0.6538236 α      lambda       -0.1137516E+01
   maximum displ.:     0.4341290 α      in ANC's #69, #60, #1, ...

........................................................................
.............................. CYCLE    5 ..............................
........................................................................

 iter      E             dE          RMSdq      gap      omega  full diag
   1    -42.3856702 -0.423857E+02  0.125E+00    1.28       0.0  T
   2    -42.1835263  0.202144E+00  0.246E+00    1.60       1.0  T
   3    -42.4377357 -0.254209E+00  0.550E-01    1.36       1.0  T
   4    -42.4384352 -0.699433E-03  0.326E-01    1.33       1.0  T
   5    -42.4401283 -0.169315E-02  0.174E-01    1.34       1.0  T
   6    -42.4408989 -0.770602E-03  0.438E-02    1.34       1.0  T
   7    -42.4409407 -0.417448E-04  0.188E-02    1.34       1.1  T
   8    -42.4409395  0.119537E-05  0.119E-02    1.34       1.7  T
   9    -42.4409431 -0.365188E-05  0.358E-03    1.34       5.6  T
  10    -42.4409435 -0.349073E-06  0.114E-03    1.34      17.5  T
  11    -42.4409435 -0.567641E-08  0.604E-04    1.34      33.1  T
  12    -42.4409435 -0.757499E-08  0.207E-04    1.34      96.4  T
     SCC iter.                  ...        0 min,  0.017 sec
     gradient                   ...        0 min,  0.011 sec
 * total energy  :   -41.7647652 Eh     change       -0.7954899E+00 Eh
   gradient norm :     0.6942991 Eh/α   predicted    -0.8118937E+00 (   2.06%)
   displ. norm   :     0.4173415 α      lambda       -0.2650791E+00
   maximum displ.:     0.2368578 α      in ANC's #69, #1, #2, ...

........................................................................
.............................. CYCLE    6 ..............................
........................................................................

 iter      E             dE          RMSdq      gap      omega  full diag
   1    -42.3729784 -0.423730E+02  0.894E-01    1.07       0.0  T
   2    -42.1573713  0.215607E+00  0.228E+00    1.20       1.0  T
   3    -42.4038861 -0.246515E+00  0.415E-01    1.04       1.0  T
   4    -42.4047523 -0.866194E-03  0.268E-01    1.04       1.0  T
   5    -42.4050896 -0.337367E-03  0.164E-01    1.04       1.0  T
   6    -42.4061562 -0.106655E-02  0.418E-02    1.04       1.0  T
   7    -42.4061915 -0.352600E-04  0.189E-02    1.04       1.1  T
   8    -42.4061892  0.221699E-05  0.137E-02    1.04       1.5  T
   9    -42.4061941 -0.487627E-05  0.365E-03    1.04       5.5  T
  10    -42.4061944 -0.300123E-06  0.143E-03    1.04      14.0  T
  11    -42.4061944 -0.299327E-07  0.595E-04    1.04      33.6  T
  12    -42.4061945 -0.635548E-08  0.259E-04    1.04      77.2  T
     SCC iter.                  ...        0 min,  0.017 sec
     gradient                   ...        0 min,  0.011 sec
 * total energy  :   -41.9165110 Eh     change       -0.1517458E+00 Eh
   gradient norm :     0.1714009 Eh/α   predicted    -0.1556257E+00 (   2.56%)
   displ. norm   :     0.1883198 α      lambda       -0.2032319E-01
   maximum displ.:     0.1286213 α      in ANC's #1, #2, #41, ...

........................................................................
.............................. CYCLE    7 ..............................
........................................................................

 iter      E             dE          RMSdq      gap      omega  full diag
   1    -42.4031571 -0.424032E+02  0.324E-01    0.99       0.0  T
   2    -42.3732165  0.299407E-01  0.856E-01    0.95       1.0  T
   3    -42.4069703 -0.337538E-01  0.136E-01    0.97       1.0  T
   4    -42.4066564  0.313935E-03  0.128E-01    0.97       1.0  T
   5    -42.4069094 -0.253062E-03  0.711E-02    0.97       1.0  T
   6    -42.4070785 -0.169117E-03  0.187E-02    0.97       1.1  T
   7    -42.4070856 -0.702489E-05  0.102E-02    0.97       2.0  T
   8    -42.4070882 -0.266585E-05  0.373E-03    0.97       5.4  T
   9    -42.4070884 -0.182350E-06  0.205E-03    0.97       9.7  T
  10    -42.4070885 -0.128340E-06  0.545E-04    0.97      36.7  T
  11    -42.4070885 -0.321864E-08  0.188E-04    0.97     106.3  T
     SCC iter.                  ...        0 min,  0.016 sec
     gradient                   ...        0 min,  0.011 sec
 * total energy  :   -41.9326438 Eh     change       -0.1613281E-01 Eh
   gradient norm :     0.1590275 Eh/α   predicted    -0.1052239E-01 ( -34.78%)
   displ. norm   :     0.4839760 α      lambda       -0.4635527E-01
   maximum displ.:     0.3027107 α      in ANC's #2, #1, #41, ...

........................................................................
.............................. CYCLE    8 ..............................
........................................................................

 iter      E             dE          RMSdq      gap      omega  full diag
   1    -42.4417096 -0.424417E+02  0.711E-01    0.81       0.0  T
   2    -42.4258992  0.158104E-01  0.715E-01    0.81       1.0  T
   3    -42.4227038  0.319537E-02  0.794E-01    0.85       1.0  T
   4    -42.4422276 -0.195238E-01  0.342E-01    0.80       1.0  T
   5    -42.4459738 -0.374624E-02  0.728E-02    0.82       1.0  T
   6    -42.4460714 -0.975686E-04  0.332E-02    0.81       1.0  T
   7    -42.4460914 -0.200139E-04  0.197E-02    0.81       1.0  T
   8    -42.4461011 -0.966536E-05  0.447E-03    0.81       4.5  T
   9    -42.4461015 -0.377405E-06  0.217E-03    0.81       9.2  T
  10    -42.4461015 -0.215099E-07  0.122E-03    0.81      16.4  T
  11    -42.4461015 -0.304168E-07  0.425E-04    0.81      47.1  T
  12    -42.4461015 -0.397084E-08  0.114E-04    0.81     175.7  T
     SCC iter.                  ...        0 min,  0.017 sec
     gradient                   ...        0 min,  0.011 sec
 * total energy  :   -41.9626656 Eh     change       -0.3002179E-01 Eh
   gradient norm :     0.2181412 Eh/α   predicted    -0.2860679E-01 (  -4.71%)
   displ. norm   :     0.4046221 α      lambda       -0.2980797E-01
   maximum displ.:     0.2782418 α      in ANC's #1, #2, #41, ...

........................................................................
.............................. CYCLE    9 ..............................
........................................................................

 iter      E             dE          RMSdq      gap      omega  full diag
   1    -42.4514884 -0.424515E+02  0.607E-01    0.77       0.0  T
   2    -42.3571333  0.943551E-01  0.150E+00    0.78       1.0  T
   3    -42.4606265 -0.103493E+00  0.340E-01    0.76       1.0  T
   4    -42.4624316 -0.180511E-02  0.192E-01    0.72       1.0  T
   5    -42.4628508 -0.419189E-03  0.942E-02    0.73       1.0  T
   6    -42.4630833 -0.232499E-03  0.258E-02    0.73       1.0  T
   7    -42.4631046 -0.212489E-04  0.107E-02    0.73       1.9  T
   8    -42.4631064 -0.184290E-05  0.500E-03    0.73       4.0  T
   9    -42.4631067 -0.297765E-06  0.190E-03    0.73      10.5  T
  10    -42.4631068 -0.608982E-07  0.737E-04    0.73      27.1  T
  11    -42.4631068 -0.902627E-08  0.276E-04    0.73      72.6  T
     SCC iter.                  ...        0 min,  0.016 sec
     gradient                   ...        0 min,  0.011 sec
 * total energy  :   -41.9763408 Eh     change       -0.1367523E-01 Eh
   gradient norm :     0.1479141 Eh/α   predicted    -0.1734426E-01 (  26.83%)
   displ. norm   :     0.2006009 α      lambda       -0.1358272E-01
   maximum displ.:     0.1844922 α      in ANC's #1, #2, #48, ...

........................................................................
.............................. CYCLE   10 ..............................
........................................................................

 iter      E             dE          RMSdq      gap      omega  full diag
   1    -42.4762129 -0.424762E+02  0.377E-01    0.77       0.0  T
   2    -42.4356370  0.405759E-01  0.104E+00    0.87       1.0  T
   3    -42.4802639 -0.446270E-01  0.171E-01    0.76       1.0  T
   4    -42.4799527  0.311213E-03  0.140E-01    0.77       1.0  T
   5    -42.4802811 -0.328320E-03  0.541E-02    0.76       1.0  T
   6    -42.4803928 -0.111785E-03  0.187E-02    0.76       1.1  T
   7    -42.4804028 -0.995336E-05  0.693E-03    0.76       2.9  T
   8    -42.4804035 -0.729543E-06  0.292E-03    0.76       6.8  T
   9    -42.4804037 -0.228099E-06  0.830E-04    0.76      24.1  T
  10    -42.4804038 -0.831250E-08  0.474E-04    0.76      42.2  T
     SCC iter.                  ...        0 min,  0.014 sec
     gradient                   ...        0 min,  0.011 sec
 * total energy  :   -41.9859449 Eh     change       -0.9604084E-02 Eh
   gradient norm :     0.0924650 Eh/α   predicted    -0.7064689E-02 ( -26.44%)
   displ. norm   :     0.1570938 α      lambda       -0.9131988E-02
   maximum displ.:     0.1125530 α      in ANC's #1, #2, #32, ...

........................................................................
.............................. CYCLE   11 ..............................
........................................................................

 iter      E             dE          RMSdq      gap      omega  full diag
   1    -42.4941039 -0.424941E+02  0.340E-01    0.79       0.0  T
   2    -42.4634460  0.306579E-01  0.912E-01    0.83       1.0  T
   3    -42.4973796 -0.339336E-01  0.139E-01    0.77       1.0  T
   4    -42.4971731  0.206509E-03  0.110E-01    0.78       1.0  T
   5    -42.4973486 -0.175503E-03  0.476E-02    0.78       1.0  T
   6    -42.4974261 -0.775264E-04  0.118E-02    0.78       1.7  T
   7    -42.4974296 -0.354044E-05  0.589E-03    0.78       3.4  T
   8    -42.4974302 -0.602146E-06  0.235E-03    0.78       8.5  T
   9    -42.4974304 -0.147164E-06  0.847E-04    0.78      23.6  T
  10    -42.4974304 -0.201784E-07  0.244E-04    0.78      81.9  T
     SCC iter.                  ...        0 min,  0.014 sec
     gradient                   ...        0 min,  0.011 sec
 * total energy  :   -41.9927602 Eh     change       -0.6815288E-02 Eh
   gradient norm :     0.0803953 Eh/α   predicted    -0.4678761E-02 ( -31.35%)
   displ. norm   :     0.2123281 α      lambda       -0.1020758E-01
   maximum displ.:     0.0815536 α      in ANC's #1, #32, #42, ...

........................................................................
.............................. CYCLE   12 ..............................
........................................................................

 iter      E             dE          RMSdq      gap      omega  full diag
   1    -42.5154993 -0.425155E+02  0.389E-01    0.77       0.0  T
   2    -42.4959543  0.195450E-01  0.762E-01    0.76       1.0  T
   3    -42.5176384 -0.216841E-01  0.180E-01    0.75       1.0  T
   4    -42.5174363  0.202136E-03  0.157E-01    0.75       1.0  T
   5    -42.5180361 -0.599803E-03  0.412E-02    0.75       1.0  T
   6    -42.5180903 -0.542356E-04  0.134E-02    0.75       1.5  T
   7    -42.5180954 -0.511301E-05  0.660E-03    0.75       3.0  T
   8    -42.5180962 -0.808071E-06  0.207E-03    0.75       9.7  T
   9    -42.5180963 -0.886405E-07  0.509E-04    0.75      39.3  T
  10    -42.5180963 -0.367694E-08  0.238E-04    0.75      83.9  T
     SCC iter.                  ...        0 min,  0.014 sec
     gradient                   ...        0 min,  0.011 sec
 * total energy  :   -42.0003767 Eh     change       -0.7616514E-02 Eh
   gradient norm :     0.0925372 Eh/α   predicted    -0.5334013E-02 ( -29.97%)
   displ. norm   :     0.2734114 α      lambda       -0.1129815E-01
   maximum displ.:     0.1012762 α      in ANC's #32, #42, #23, ...

........................................................................
.............................. CYCLE   13 ..............................
........................................................................

 iter      E             dE          RMSdq      gap      omega  full diag
   1    -42.5257395 -0.425257E+02  0.324E-01    0.71       0.0  T
   2    -42.5251318  0.607659E-03  0.230E-01    0.70       1.0  T
   3    -42.5220067  0.312513E-02  0.333E-01    0.73       1.0  T
   4    -42.5248741 -0.286743E-02  0.184E-01    0.71       1.0  T
   5    -42.5261743 -0.130018E-02  0.208E-02    0.71       1.0  T
   6    -42.5261871 -0.128422E-04  0.976E-03    0.71       2.0  T
   7    -42.5261892 -0.203700E-05  0.491E-03    0.71       4.1  T
   8    -42.5261895 -0.351112E-06  0.118E-03    0.71      17.0  T
   9    -42.5261895 -0.282896E-07  0.445E-04    0.71      44.9  T
  10    -42.5261895 -0.160156E-08  0.199E-04    0.71     100.6  T
     SCC iter.                  ...        0 min,  0.014 sec
     gradient                   ...        0 min,  0.011 sec
 * total energy  :   -42.0086762 Eh     change       -0.8299443E-02 Eh
   gradient norm :     0.0914261 Eh/α   predicted    -0.6071445E-02 ( -26.85%)
   displ. norm   :     0.2554800 α      lambda       -0.8493844E-02
   maximum displ.:     0.0984918 α      in ANC's #1, #32, #42, ...

........................................................................
.............................. CYCLE   14 ..............................
........................................................................

 iter      E             dE          RMSdq      gap      omega  full diag
   1    -42.5208328 -0.425208E+02  0.269E-01    0.65       0.0  T
   2    -42.5167722  0.406059E-02  0.362E-01    0.66       1.0  T
   3    -42.5202384 -0.346614E-02  0.195E-01    0.66       1.0  T
   4    -42.5212185 -0.980171E-03  0.106E-01    0.65       1.0  T
   5    -42.5214561 -0.237610E-03  0.203E-02    0.65       1.0  T
   6    -42.5214680 -0.119150E-04  0.104E-02    0.65       1.9  T
   7    -42.5214703 -0.226932E-05  0.601E-03    0.65       3.3  T
   8    -42.5214711 -0.796080E-06  0.212E-03    0.65       9.4  T
   9    -42.5214712 -0.923208E-07  0.565E-04    0.65      35.4  T
  10    -42.5214712 -0.650925E-08  0.229E-04    0.65      87.2  T
     SCC iter.                  ...        0 min,  0.014 sec
     gradient                   ...        0 min,  0.011 sec
 * total energy  :   -42.0141764 Eh     change       -0.5500221E-02 Eh
   gradient norm :     0.0600820 Eh/α   predicted    -0.4524188E-02 ( -17.75%)
   displ. norm   :     0.0919101 α      lambda       -0.2754071E-02
   maximum displ.:     0.0403705 α      in ANC's #2, #1, #32, ...

........................................................................
.............................. CYCLE   15 ..............................
........................................................................

 iter      E             dE          RMSdq      gap      omega  full diag
   1    -42.5178357 -0.425178E+02  0.114E-01    0.63       0.0  T
   2    -42.5152523  0.258345E-02  0.270E-01    0.64       1.0  T
   3    -42.5181157 -0.286345E-02  0.600E-02    0.63       1.0  T
   4    -42.5180852  0.305489E-04  0.490E-02    0.63       1.0  T
   5    -42.5181337 -0.484995E-04  0.118E-02    0.63       1.7  T
   6    -42.5181375 -0.382165E-05  0.414E-03    0.63       4.8  T
   7    -42.5181378 -0.332725E-06  0.237E-03    0.63       8.4  T
   8    -42.5181380 -0.116605E-06  0.628E-04    0.63      31.8  T
   9    -42.5181380 -0.768281E-08  0.228E-04    0.63      87.9  T
     SCC iter.                  ...        0 min,  0.013 sec
     gradient                   ...        0 min,  0.011 sec
 * total energy  :   -42.0161724 Eh     change       -0.1996006E-02 Eh
   gradient norm :     0.0472763 Eh/α   predicted    -0.1388723E-02 ( -30.42%)
   displ. norm   :     0.1075895 α      lambda       -0.2631071E-02
   maximum displ.:     0.0537835 α      in ANC's #2, #1, #15, ...

........................................................................
.............................. CYCLE   16 ..............................
........................................................................

 iter      E             dE          RMSdq      gap      omega  full diag
   1    -42.5198311 -0.425198E+02  0.120E-01    0.62       0.0  T
   2    -42.5191698  0.661215E-03  0.154E-01    0.62       1.0  T
   3    -42.5196533 -0.483444E-03  0.936E-02    0.62       1.0  T
   4    -42.5199033 -0.250029E-03  0.415E-02    0.62       1.0  T
   5    -42.5199407 -0.373986E-04  0.110E-02    0.62       1.8  T
   6    -42.5199438 -0.306218E-05  0.388E-03    0.62       5.2  T
   7    -42.5199441 -0.300036E-06  0.195E-03    0.62      10.2  T
   8    -42.5199441 -0.487119E-07  0.974E-04    0.62      20.5  T
   9    -42.5199441 -0.253537E-07  0.227E-04    0.62      88.0  T
     SCC iter.                  ...        0 min,  0.013 sec
     gradient                   ...        0 min,  0.011 sec
 * total energy  :   -42.0180878 Eh     change       -0.1915430E-02 Eh
   gradient norm :     0.0465523 Eh/α   predicted    -0.1330820E-02 ( -30.52%)
   displ. norm   :     0.1168989 α      lambda       -0.2402324E-02
   maximum displ.:     0.0570798 α      in ANC's #1, #2, #15, ...

........................................................................
.............................. CYCLE   17 ..............................
........................................................................

 iter      E             dE          RMSdq      gap      omega  full diag
   1    -42.5221624 -0.425222E+02  0.138E-01    0.61       0.0  T
   2    -42.5221332  0.292459E-04  0.978E-02    0.61       1.0  T
   3    -42.5212631  0.870052E-03  0.149E-01    0.62       1.0  T
   4    -42.5220022 -0.739134E-03  0.787E-02    0.61       1.0  T
   5    -42.5222310 -0.228763E-03  0.121E-02    0.61       1.7  T
   6    -42.5222347 -0.372690E-05  0.352E-03    0.61       5.7  T
   7    -42.5222349 -0.189314E-06  0.193E-03    0.61      10.4  T
   8    -42.5222350 -0.349638E-07  0.551E-04    0.61      36.3  T
   9    -42.5222350 -0.449171E-08  0.205E-04    0.61      97.8  T
     SCC iter.                  ...        0 min,  0.013 sec
     gradient                   ...        0 min,  0.011 sec
 * total energy  :   -42.0197420 Eh     change       -0.1654133E-02 Eh
   gradient norm :     0.0414325 Eh/α   predicted    -0.1217608E-02 ( -26.39%)
   displ. norm   :     0.1307948 α      lambda       -0.1512010E-02
   maximum displ.:     0.1017531 α      in ANC's #1, #15, #23, ...

........................................................................
.............................. CYCLE   18 ..............................
........................................................................

 iter      E             dE          RMSdq      gap      omega  full diag
   1    -42.5270607 -0.425271E+02  0.169E-01    0.61       0.0  T
   2    -42.5258472  0.121345E-02  0.196E-01    0.62       1.0  T
   3    -42.5261528 -0.305576E-03  0.169E-01    0.61       1.0  T
   4    -42.5271889 -0.103609E-02  0.321E-02    0.61       1.0  T
   5    -42.5272046 -0.157192E-04  0.999E-03    0.61       2.0  T
   6    -42.5272076 -0.294453E-05  0.448E-03    0.61       4.5  T
   7    -42.5272080 -0.490753E-06  0.233E-03    0.61       8.6  T
   8    -42.5272081 -0.906270E-07  0.861E-04    0.61      23.2  T
   9    -42.5272082 -0.163045E-07  0.242E-04    0.61      82.5  T
     SCC iter.                  ...        0 min,  0.013 sec
     gradient                   ...        0 min,  0.011 sec
 * total energy  :   -42.0208383 Eh     change       -0.1096373E-02 Eh
   gradient norm :     0.0365387 Eh/α   predicted    -0.7691368E-03 ( -29.85%)
   displ. norm   :     0.1179330 α      lambda       -0.1311624E-02
   maximum displ.:     0.0967125 α      in ANC's #1, #15, #23, ...

........................................................................
.............................. CYCLE   19 ..............................
........................................................................

 iter      E             dE          RMSdq      gap      omega  full diag
   1    -42.5321765 -0.425322E+02  0.169E-01    0.61       0.0  T
   2    -42.5286035  0.357306E-02  0.312E-01    0.62       1.0  T
   3    -42.5323384 -0.373492E-02  0.978E-02    0.61       1.0  T
   4    -42.5325334 -0.194995E-03  0.287E-02    0.61       1.0  T
   5    -42.5325401 -0.670984E-05  0.122E-02    0.61       1.6  T
   6    -42.5325450 -0.491007E-05  0.435E-03    0.61       4.6  T
   7    -42.5325455 -0.494817E-06  0.203E-03    0.61       9.9  T
   8    -42.5325456 -0.599212E-07  0.829E-04    0.61      24.1  T
   9    -42.5325456 -0.207524E-07  0.241E-04    0.61      82.9  T
     SCC iter.                  ...        0 min,  0.013 sec
     gradient                   ...        0 min,  0.011 sec
 * total energy  :   -42.0217642 Eh     change       -0.9258448E-03 Eh
   gradient norm :     0.0294264 Eh/α   predicted    -0.6649597E-03 ( -28.18%)
   displ. norm   :     0.1199641 α      lambda       -0.8928836E-03
   maximum displ.:     0.1053400 α      in ANC's #1, #15, #51, ...

........................................................................
.............................. CYCLE   20 ..............................
........................................................................

 iter      E             dE          RMSdq      gap      omega  full diag
   1    -42.5380170 -0.425380E+02  0.175E-01    0.60       0.0  T
   2    -42.5342198  0.379729E-02  0.328E-01    0.60       1.0  T
   3    -42.5382928 -0.407300E-02  0.910E-02    0.59       1.0  T
   4    -42.5384141 -0.121358E-03  0.371E-02    0.59       1.0  T
   5    -42.5384294 -0.152663E-04  0.163E-02    0.59       1.2  T
   6    -42.5384394 -0.997541E-05  0.501E-03    0.59       4.0  T
   7    -42.5384400 -0.640260E-06  0.270E-03    0.59       7.4  T
   8    -42.5384402 -0.167154E-06  0.718E-04    0.59      27.9  T
   9    -42.5384402 -0.122834E-07  0.225E-04    0.59      88.8  T
     SCC iter.                  ...        0 min,  0.013 sec
     gradient                   ...        0 min,  0.011 sec
 * total energy  :   -42.0223706 Eh     change       -0.6064014E-03 Eh
   gradient norm :     0.0215274 Eh/α   predicted    -0.4530217E-03 ( -25.29%)
   displ. norm   :     0.0522837 α      lambda       -0.5175547E-03
   maximum displ.:     0.0279881 α      in ANC's #1, #15, #10, ...
 * RMSD in coord.:     0.7548305 α      energy gain  -0.9919984E+01 Eh

generating ANC from model Hessian ...
Using Lindh-Hessian (1995)
 Shifting diagonal of input Hessian by    1.5335390489508900E-002
 Lowest  eigenvalues of input Hessian
    0.010000    0.014406    0.000000    0.000000    0.000000    0.000000
    0.000000    0.000000    0.016590    0.017371    0.019666    0.021013
    0.021244    0.022582    0.023193    0.026290    0.027312    0.029933
 Highest eigenvalues
    2.062613    2.157103    2.235970    2.378414    2.526555    2.646656


........................................................................
.............................. CYCLE   21 ..............................
........................................................................

 iter      E             dE          RMSdq      gap      omega  full diag
   1    -42.5412985 -0.425413E+02  0.790E-02    0.59       0.0  T
   2    -42.5403033  0.995157E-03  0.165E-01    0.59       1.0  T
   3    -42.5413889 -0.108565E-02  0.376E-02    0.59       1.0  T
   4    -42.5414026 -0.136204E-04  0.154E-02    0.59       1.3  T
   5    -42.5414052 -0.260319E-05  0.691E-03    0.59       2.9  T
   6    -42.5414070 -0.181837E-05  0.206E-03    0.59       9.7  T
   7    -42.5414071 -0.103481E-06  0.107E-03    0.59      18.7  T
   8    -42.5414071 -0.203240E-07  0.464E-04    0.59      43.1  T
   9    -42.5414071 -0.520955E-08  0.979E-05    0.59     204.2  T
     SCC iter.                  ...        0 min,  0.013 sec
     gradient                   ...        0 min,  0.011 sec
 * total energy  :   -42.0227565 Eh     change       -0.3859206E-03 Eh
   gradient norm :     0.0222078 Eh/α   predicted     0.0000000E+00 (-100.00%)
   displ. norm   :     0.3202361 α      lambda       -0.3368770E-02
   maximum displ.:     0.1594317 α      in ANC's #2, #9, #15, ...

........................................................................
.............................. CYCLE   22 ..............................
........................................................................

 iter      E             dE          RMSdq      gap      omega  full diag
   1    -42.5409175 -0.425409E+02  0.245E-01    0.53       0.0  T
   2    -42.5403333  0.584204E-03  0.191E-01    0.53       1.0  T
   3    -42.5367204  0.361294E-02  0.326E-01    0.56       1.0  T
   4    -42.5408425 -0.412208E-02  0.619E-02    0.53       1.0  T
   5    -42.5410099 -0.167466E-03  0.110E-02    0.53       1.8  T
   6    -42.5410131 -0.312471E-05  0.411E-03    0.53       4.9  T
   7    -42.5410133 -0.252767E-06  0.197E-03    0.53      10.2  T
   8    -42.5410134 -0.693701E-07  0.816E-04    0.53      24.5  T
   9    -42.5410134 -0.151649E-07  0.238E-04    0.53      84.1  T
     SCC iter.                  ...        0 min,  0.013 sec
     gradient                   ...        0 min,  0.011 sec
 * total energy  :   -42.0255192 Eh     change       -0.2762652E-02 Eh
   gradient norm :     0.0130907 Eh/α   predicted    -0.1857222E-02 ( -32.77%)
   displ. norm   :     0.5794106 α      lambda       -0.4522987E-02
   maximum displ.:     0.2682379 α      in ANC's #2, #9, #4, ...

........................................................................
.............................. CYCLE   23 ..............................
........................................................................

 iter      E             dE          RMSdq      gap      omega  full diag
   1    -42.5353034 -0.425353E+02  0.479E-01    0.43       0.0  T
   2    -42.5336721  0.163133E-02  0.348E-01    0.44       1.0  T
   3    -42.5165340  0.171381E-01  0.678E-01    0.49       1.0  T
   4    -42.5354344 -0.189005E-01  0.654E-02    0.43       1.0  T
   5    -42.5355962 -0.161730E-03  0.250E-02    0.43       1.0  T
   6    -42.5356073 -0.111304E-04  0.125E-02    0.43       1.6  T
   7    -42.5356104 -0.307208E-05  0.596E-03    0.43       3.4  T
   8    -42.5356112 -0.776820E-06  0.216E-03    0.43       9.3  T
   9    -42.5356113 -0.993880E-07  0.885E-04    0.43      22.6  T
  10    -42.5356113 -0.165668E-07  0.311E-04    0.43      64.4  T
     SCC iter.                  ...        0 min,  0.014 sec
     gradient                   ...        0 min,  0.011 sec
 * total energy  :   -42.0290013 Eh     change       -0.3482135E-02 Eh
   gradient norm :     0.0226701 Eh/α   predicted    -0.3020716E-02 ( -13.25%)
   displ. norm   :     0.5969041 α      lambda       -0.4270756E-02
   maximum displ.:     0.2619056 α      in ANC's #4, #2, #15, ...

........................................................................
.............................. CYCLE   24 ..............................
........................................................................

 iter      E             dE          RMSdq      gap      omega  full diag
   1    -42.5223823 -0.425224E+02  0.579E-01    0.36       0.0  T
   2    -42.5026777  0.197046E-01  0.763E-01    0.38       1.0  T
   3    -42.5193035 -0.166258E-01  0.425E-01    0.39       1.0  T
   4    -42.5245813 -0.527778E-02  0.768E-02    0.32       1.0  T
   5    -42.5247144 -0.133105E-03  0.400E-02    0.32       1.0  T
   6    -42.5247404 -0.260007E-04  0.240E-02    0.32       1.0  T
   7    -42.5247524 -0.120381E-04  0.122E-02    0.32       1.6  T
   8    -42.5247555 -0.309621E-05  0.423E-03    0.32       4.7  T
   9    -42.5247559 -0.438018E-06  0.154E-03    0.32      13.0  T
  10    -42.5247560 -0.373985E-07  0.575E-04    0.32      34.8  T
  11    -42.5247560 -0.481344E-08  0.145E-04    0.32     138.0  T
     SCC iter.                  ...        0 min,  0.016 sec
     gradient                   ...        0 min,  0.011 sec
 * total energy  :   -42.0314045 Eh     change       -0.2403164E-02 Eh
   gradient norm :     0.0513813 Eh/α   predicted    -0.2896248E-02 (  20.52%)
   displ. norm   :     0.3236475 α      lambda       -0.5371491E-02
   maximum displ.:     0.1301969 α      in ANC's #3, #14, #2, ...

........................................................................
.............................. CYCLE   25 ..............................
........................................................................

 iter      E             dE          RMSdq      gap      omega  full diag
   1    -42.5356431 -0.425356E+02  0.267E-01    0.36       0.0  T
   2    -42.5269183  0.872485E-02  0.462E-01    0.28       1.0  T
   3    -42.5357816 -0.886334E-02  0.180E-01    0.35       1.0  T
   4    -42.5365944 -0.812844E-03  0.401E-02    0.33       1.0  T
   5    -42.5366428 -0.484074E-04  0.989E-03    0.32       2.0  T
   6    -42.5366443 -0.145432E-05  0.586E-03    0.32       3.4  T
   7    -42.5366449 -0.633690E-06  0.262E-03    0.32       7.6  T
   8    -42.5366450 -0.107448E-06  0.121E-03    0.32      16.5  T
   9    -42.5366451 -0.443711E-07  0.399E-04    0.32      50.2  T
  10    -42.5366451 -0.333192E-08  0.191E-04    0.32     104.8  T
     SCC iter.                  ...        0 min,  0.014 sec
     gradient                   ...        0 min,  0.011 sec
 * total energy  :   -42.0357308 Eh     change       -0.4326352E-02 Eh
   gradient norm :     0.0386429 Eh/α   predicted    -0.2967091E-02 ( -31.42%)
   displ. norm   :     0.5642403 α      lambda       -0.9091262E-02
   maximum displ.:     0.3040139 α      in ANC's #13, #1, #7, ...

........................................................................
.............................. CYCLE   26 ..............................
........................................................................

 iter      E             dE          RMSdq      gap      omega  full diag
   1    -42.5535652 -0.425536E+02  0.528E-01    0.41       0.0  T
   2    -42.5326087  0.209565E-01  0.730E-01    0.22       1.0  T
   3    -42.5514683 -0.188596E-01  0.400E-01    0.41       1.0  T
   4    -42.5562426 -0.477429E-02  0.119E-01    0.34       1.0  T
   5    -42.5565487 -0.306052E-03  0.203E-02    0.32       1.0  T
   6    -42.5565524 -0.375993E-05  0.120E-02    0.32       1.7  T
   7    -42.5565534 -0.939595E-06  0.585E-03    0.32       3.4  T
   8    -42.5565540 -0.598618E-06  0.283E-03    0.33       7.1  T
   9    -42.5565542 -0.261324E-06  0.765E-04    0.33      26.1  T
  10    -42.5565542 -0.557391E-08  0.440E-04    0.33      45.5  T
     SCC iter.                  ...        0 min,  0.014 sec
     gradient                   ...        0 min,  0.011 sec
 * total energy  :   -42.0432381 Eh     change       -0.7507270E-02 Eh
   gradient norm :     0.0366012 Eh/α   predicted    -0.5992824E-02 ( -20.17%)
   displ. norm   :     0.8489000 α      lambda       -0.1161600E-01
   maximum displ.:     0.4330803 α      in ANC's #1, #13, #7, ...

........................................................................
.............................. CYCLE   27 ..............................
........................................................................

 iter      E             dE          RMSdq      gap      omega  full diag
   1    -42.5675721 -0.425676E+02  0.847E-01    0.48       0.0  T
   2    -42.5504578  0.171144E-01  0.762E-01    0.15       1.0  T
   3    -42.5486118  0.184592E-02  0.773E-01    0.48       1.0  T
   4    -42.5718938 -0.232820E-01  0.171E-01    0.37       1.0  T
   5    -42.5721587 -0.264909E-03  0.458E-02    0.36       1.0  T
   6    -42.5722334 -0.746665E-04  0.195E-02    0.36       1.0  T
   7    -42.5722330  0.398970E-06  0.133E-02    0.36       1.5  T
   8    -42.5722365 -0.355868E-05  0.212E-03    0.36       9.4  T
   9    -42.5722367 -0.104006E-06  0.885E-04    0.36      22.6  T
  10    -42.5722367 -0.320286E-08  0.410E-04    0.36      48.8  T
     SCC iter.                  ...        0 min,  0.014 sec
     gradient                   ...        0 min,  0.011 sec
 * total energy  :   -42.0581286 Eh     change       -0.1489055E-01 Eh
   gradient norm :     0.1029767 Eh/α   predicted    -0.9993439E-02 ( -32.89%)
   displ. norm   :     0.7682847 α      lambda       -0.2321095E-01
   maximum displ.:     0.3891729 α      in ANC's #1, #13, #16, ...

........................................................................
.............................. CYCLE   28 ..............................
........................................................................

 iter      E             dE          RMSdq      gap      omega  full diag
   1    -42.5889996 -0.425890E+02  0.820E-01    0.49       0.0  T
   2    -42.5869523  0.204724E-02  0.489E-01    0.38       1.0  T
   3    -42.5637025  0.232498E-01  0.787E-01    0.51       1.0  T
   4    -42.5904109 -0.267084E-01  0.201E-01    0.42       1.0  T
   5    -42.5912070 -0.796036E-03  0.677E-02    0.43       1.0  T
   6    -42.5913519 -0.144978E-03  0.212E-02    0.44       1.0  T
   7    -42.5913578 -0.585661E-05  0.125E-02    0.44       1.6  T
   8    -42.5913595 -0.169921E-05  0.676E-03    0.44       3.0  T
   9    -42.5913606 -0.112927E-05  0.166E-03    0.44      12.0  T
  10    -42.5913606 -0.234648E-07  0.629E-04    0.44      31.8  T
  11    -42.5913606 -0.232917E-08  0.286E-04    0.44      70.0  T
     SCC iter.                  ...        0 min,  0.016 sec
     gradient                   ...        0 min,  0.011 sec
 * total energy  :   -42.0834230 Eh     change       -0.2529440E-01 Eh
   gradient norm :     0.1533706 Eh/α   predicted    -0.1845575E-01 ( -27.04%)
   displ. norm   :     0.7375993 α      lambda       -0.4593514E-01
   maximum displ.:     0.3027668 α      in ANC's #16, #13, #1, ...

........................................................................
.............................. CYCLE   29 ..............................
........................................................................

 iter      E             dE          RMSdq      gap      omega  full diag
   1    -42.5873792 -0.425874E+02  0.735E-01    0.35       0.0  T
   2    -42.5871066  0.272572E-03  0.432E-01    0.38       1.0  T
   3    -42.5753684  0.117383E-01  0.610E-01    0.23       1.0  T
   4    -42.5875085 -0.121402E-01  0.258E-01    0.40       1.0  T
   5    -42.5896261 -0.211754E-02  0.857E-02    0.34       1.0  T
   6    -42.5899232 -0.297096E-03  0.197E-02    0.37       1.0  T
   7    -42.5899310 -0.786101E-05  0.948E-03    0.36       2.1  T
   8    -42.5899313 -0.239359E-06  0.385E-03    0.37       5.2  T
   9    -42.5899317 -0.373530E-06  0.145E-03    0.37      13.8  T
  10    -42.5899317 -0.472484E-07  0.534E-04    0.37      37.5  T
  11    -42.5899317 -0.408760E-08  0.207E-04    0.37      96.6  T
     SCC iter.                  ...        0 min,  0.016 sec
     gradient                   ...        0 min,  0.011 sec
 * total energy  :   -41.9871435 Eh     change        0.9627952E-01 Eh
   gradient norm :     0.7547817 Eh/α   predicted    -0.3546313E-01 (-136.83%)
   displ. norm   :     0.4854054 α      lambda       -0.3198774E+00
   maximum displ.:     0.2153992 α      in ANC's #2, #16, #20, ...

........................................................................
.............................. CYCLE   30 ..............................
........................................................................

 iter      E             dE          RMSdq      gap      omega  full diag
   1    -42.5947893 -0.425948E+02  0.478E-01    0.35       0.0  T
   2    -42.5950226 -0.233282E-03  0.271E-01    0.37       1.0  T
   3    -42.5934814  0.154125E-02  0.215E-01    0.31       1.0  T
   4    -42.5945296 -0.104827E-02  0.134E-01    0.39       1.0  T
   5    -42.5951931 -0.663528E-03  0.504E-02    0.35       1.0  T
   6    -42.5952824 -0.892771E-04  0.178E-02    0.36       1.1  T
   7    -42.5952887 -0.627268E-05  0.817E-03    0.36       2.4  T
   8    -42.5952897 -0.954594E-06  0.341E-03    0.36       5.9  T
   9    -42.5952899 -0.268008E-06  0.913E-04    0.36      21.9  T
  10    -42.5952899 -0.164112E-07  0.324E-04    0.36      61.8  T
     SCC iter.                  ...        0 min,  0.014 sec
     gradient                   ...        0 min,  0.011 sec
 * total energy  :   -42.1022741 Eh     change       -0.1151306E+00 Eh
   gradient norm :     0.0733483 Eh/α   predicted    -0.1976233E+00 (  71.65%)
   displ. norm   :     0.5567643 α      lambda       -0.2464715E-01
   maximum displ.:     0.2646453 α      in ANC's #2, #4, #1, ...

........................................................................
.............................. CYCLE   31 ..............................
........................................................................

 iter      E             dE          RMSdq      gap      omega  full diag
   1    -42.5571988 -0.425572E+02  0.688E-01    0.20       0.0  T
   2    -42.5526407  0.455810E-02  0.501E-01    0.26       1.0  T
   3    -42.5368839  0.157568E-01  0.738E-01    0.04       1.0  T
   4    -42.5584393 -0.215553E-01  0.150E-01    0.25       1.0  T
   5    -42.5590461 -0.606792E-03  0.468E-02    0.22       1.0  T
   6    -42.5590853 -0.392363E-04  0.273E-02    0.23       1.0  T
   7    -42.5590996 -0.143025E-04  0.106E-02    0.23       1.9  T
   8    -42.5591014 -0.177713E-05  0.441E-03    0.23       4.5  T
   9    -42.5591017 -0.301412E-06  0.162E-03    0.23      12.4  T
  10    -42.5591017 -0.418155E-08  0.710E-04    0.23      28.2  T
  11    -42.5591017 -0.148022E-07  0.288E-04    0.23      69.5  T
     SCC iter.                  ...        0 min,  0.016 sec
     gradient                   ...        0 min,  0.011 sec
 * total energy  :   -42.0955859 Eh     change        0.6688203E-02 Eh
   gradient norm :     0.1566072 Eh/α   predicted    -0.1614372E-01 (-341.38%)
   displ. norm   :     0.4402133 α      lambda       -0.2945367E-01
   maximum displ.:     0.1920310 α      in ANC's #4, #9, #1, ...

........................................................................
.............................. CYCLE   32 ..............................
........................................................................

 iter      E             dE          RMSdq      gap      omega  full diag
   1    -42.5900297 -0.425900E+02  0.287E-01    0.29       0.0  T
   2    -42.5900035  0.261886E-04  0.169E-01    0.27       1.0  T
   3    -42.5876816  0.232188E-02  0.258E-01    0.32       1.0  T
   4    -42.5900387 -0.235702E-02  0.826E-02    0.27       1.0  T
   5    -42.5903043 -0.265600E-03  0.237E-02    0.28       1.0  T
   6    -42.5903143 -0.100213E-04  0.137E-02    0.28       1.5  T
   7    -42.5903184 -0.414415E-05  0.540E-03    0.28       3.7  T
   8    -42.5903191 -0.639088E-06  0.220E-03    0.28       9.1  T
   9    -42.5903191 -0.571991E-07  0.918E-04    0.28      21.8  T
  10    -42.5903191 -0.125383E-07  0.289E-04    0.28      69.2  T
     SCC iter.                  ...        0 min,  0.014 sec
     gradient                   ...        0 min,  0.011 sec
 * total energy  :   -42.1129394 Eh     change       -0.1735349E-01 Eh
   gradient norm :     0.0396241 Eh/α   predicted    -0.1758074E-01 (   1.31%)
   displ. norm   :     0.5888188 α      lambda       -0.9837834E-02
   maximum displ.:     0.2941280 α      in ANC's #2, #15, #14, ...

........................................................................
.............................. CYCLE   33 ..............................
........................................................................

 iter      E             dE          RMSdq      gap      omega  full diag
   1    -42.6184368 -0.426184E+02  0.660E-01    0.16       0.0  T
   2    -42.6135645  0.487232E-02  0.507E-01    0.25       1.0  T
   3    -42.5966182  0.169463E-01  0.753E-01    0.13       1.0  T
   4    -42.6196917 -0.230735E-01  0.667E-02    0.20       1.0  T
   5    -42.6196680  0.236491E-04  0.432E-02    0.20       1.0  T
   6    -42.6197147 -0.466229E-04  0.223E-02    0.20       1.0  T
   7    -42.6197244 -0.976132E-05  0.592E-03    0.20       3.4  T
   8    -42.6197250 -0.528321E-06  0.282E-03    0.20       7.1  T
   9    -42.6197251 -0.159300E-06  0.899E-04    0.20      22.3  T
  10    -42.6197251 -0.238162E-07  0.339E-04    0.20      59.0  T
     SCC iter.                  ...        0 min,  0.014 sec
     gradient                   ...        0 min,  0.011 sec
 * total energy  :   -42.1099866 Eh     change        0.2952777E-02 Eh
   gradient norm :     0.0747133 Eh/α   predicted    -0.6624346E-02 (-324.34%)
   displ. norm   :     0.3810060 α      lambda       -0.1261639E-01
   maximum displ.:     0.2419996 α      in ANC's #2, #1, #13, ...

........................................................................
.............................. CYCLE   34 ..............................
........................................................................

 iter      E             dE          RMSdq      gap      omega  full diag
   1    -42.6131899 -0.426132E+02  0.406E-01    0.25       0.0  T
   2    -42.6112684  0.192150E-02  0.334E-01    0.17       1.0  T
   3    -42.6064201  0.484829E-02  0.406E-01    0.27       1.0  T
   4    -42.6136962 -0.727605E-02  0.696E-02    0.22       1.0  T
   5    -42.6137384 -0.422475E-04  0.260E-02    0.23       1.0  T
   6    -42.6137574 -0.189851E-04  0.122E-02    0.23       1.6  T
   7    -42.6137592 -0.181132E-05  0.514E-03    0.23       3.9  T
   8    -42.6137598 -0.632004E-06  0.191E-03    0.23      10.5  T
   9    -42.6137599 -0.611115E-07  0.842E-04    0.23      23.8  T
  10    -42.6137599 -0.142445E-07  0.243E-04    0.23      82.4  T
     SCC iter.                  ...        0 min,  0.014 sec
     gradient                   ...        0 min,  0.011 sec
 * total energy  :   -42.1165294 Eh     change       -0.6542777E-02 Eh
   gradient norm :     0.0567731 Eh/α   predicted    -0.7223957E-02 (  10.41%)
   displ. norm   :     0.3185388 α      lambda       -0.7789009E-02
   maximum displ.:     0.1483121 α      in ANC's #15, #2, #20, ...

........................................................................
.............................. CYCLE   35 ..............................
........................................................................

 iter      E             dE          RMSdq      gap      omega  full diag
   1    -42.6085049 -0.426085E+02  0.336E-01    0.25       0.0  T
   2    -42.6071487  0.135621E-02  0.254E-01    0.29       1.0  T
   3    -42.6029594  0.418930E-02  0.388E-01    0.16       1.0  T
   4    -42.6086794 -0.571995E-02  0.788E-02    0.28       1.0  T
   5    -42.6088783 -0.198907E-03  0.242E-02    0.25       1.0  T
   6    -42.6088967 -0.184608E-04  0.794E-03    0.26       2.5  T
   7    -42.6088975 -0.752555E-06  0.342E-03    0.26       5.9  T
   8    -42.6088976 -0.966570E-07  0.108E-03    0.26      18.5  T
   9    -42.6088976 -0.267686E-07  0.479E-04    0.26      41.7  T
  10    -42.6088976 -0.242989E-08  0.177E-04    0.26     113.3  T
     SCC iter.                  ...        0 min,  0.014 sec
     gradient                   ...        0 min,  0.011 sec
 * total energy  :   -42.1053933 Eh     change        0.1113608E-01 Eh
   gradient norm :     0.1566463 Eh/α   predicted    -0.4289672E-02 (-138.52%)
   displ. norm   :     0.2970784 α      lambda       -0.3067379E-01
   maximum displ.:     0.1908239 α      in ANC's #7, #6, #1, ...

........................................................................
.............................. CYCLE   36 ..............................
........................................................................

 iter      E             dE          RMSdq      gap      omega  full diag
   1    -42.6039022 -0.426039E+02  0.260E-01    0.24       0.0  T
   2    -42.6036334  0.268800E-03  0.170E-01    0.22       1.0  T
   3    -42.6010872  0.254620E-02  0.283E-01    0.27       1.0  T
   4    -42.6040561 -0.296893E-02  0.678E-02    0.22       1.0  T
   5    -42.6041726 -0.116510E-03  0.287E-02    0.25       1.0  T
   6    -42.6042003 -0.276990E-04  0.800E-03    0.24       2.5  T
   7    -42.6042013 -0.100928E-05  0.386E-03    0.24       5.2  T
   8    -42.6042015 -0.190781E-06  0.150E-03    0.24      13.3  T
   9    -42.6042016 -0.584583E-07  0.561E-04    0.24      35.7  T
  10    -42.6042016 -0.436148E-08  0.160E-04    0.24     124.8  T
     SCC iter.                  ...        0 min,  0.014 sec
     gradient                   ...        0 min,  0.011 sec
 * total energy  :   -42.1166310 Eh     change       -0.1123772E-01 Eh
   gradient norm :     0.0420324 Eh/α   predicted    -0.1669047E-01 (  48.52%)
   displ. norm   :     0.6076597 α      lambda       -0.1265583E-01
   maximum displ.:     0.3499282 α      in ANC's #1, #7, #15, ...

........................................................................
.............................. CYCLE   37 ..............................
........................................................................

 iter      E             dE          RMSdq      gap      omega  full diag
   1    -42.6102144 -0.426102E+02  0.645E-01    0.26       0.0  T
   2    -42.6102921 -0.777324E-04  0.372E-01    0.28       1.0  T
   3    -42.5995709  0.107212E-01  0.494E-01    0.16       1.0  T
   4    -42.6101819 -0.106110E-01  0.122E-01    0.25       1.0  T
   5    -42.6106637 -0.481779E-03  0.373E-02    0.25       1.0  T
   6    -42.6106974 -0.337845E-04  0.166E-02    0.25       1.2  T
   7    -42.6107041 -0.663498E-05  0.478E-03    0.25       4.2  T
   8    -42.6107045 -0.379192E-06  0.230E-03    0.25       8.7  T
   9    -42.6107046 -0.876441E-07  0.792E-04    0.24      25.2  T
  10    -42.6107046 -0.656501E-08  0.285E-04    0.24      70.3  T
     SCC iter.                  ...        0 min,  0.014 sec
     gradient                   ...        0 min,  0.011 sec
 * total energy  :   -42.1057687 Eh     change        0.1086232E-01 Eh
   gradient norm :     0.1063015 Eh/α   predicted    -0.8664518E-02 (-179.77%)
   displ. norm   :     0.3719697 α      lambda       -0.2102830E-01
   maximum displ.:     0.2051923 α      in ANC's #1, #7, #15, ...

........................................................................
.............................. CYCLE   38 ..............................
........................................................................

 iter      E             dE          RMSdq      gap      omega  full diag
   1    -42.6155216 -0.426155E+02  0.391E-01    0.23       0.0  T
   2    -42.6156242 -0.102625E-03  0.224E-01    0.21       1.0  T
   3    -42.6149547  0.669491E-03  0.143E-01    0.25       1.0  T
   4    -42.6156684 -0.713656E-03  0.417E-02    0.21       1.0  T
   5    -42.6156233  0.451095E-04  0.468E-02    0.23       1.0  T
   6    -42.6157193 -0.960058E-04  0.131E-02    0.22       1.5  T
   7    -42.6157246 -0.532247E-05  0.281E-03    0.22       7.1  T
   8    -42.6157247 -0.882323E-07  0.154E-03    0.22      13.0  T
   9    -42.6157247 -0.493610E-07  0.585E-04    0.22      34.2  T
  10    -42.6157247 -0.364518E-08  0.202E-04    0.22      98.8  T
     SCC iter.                  ...        0 min,  0.014 sec
     gradient                   ...        0 min,  0.011 sec
 * total energy  :   -42.1184021 Eh     change       -0.1263339E-01 Eh
   gradient norm :     0.0222964 Eh/α   predicted    -0.1196890E-01 (  -5.26%)
   displ. norm   :     0.2494085 α      lambda       -0.1974022E-02
   maximum displ.:     0.1557701 α      in ANC's #2, #7, #3, ...

........................................................................
.............................. CYCLE   39 ..............................
........................................................................

 iter      E             dE          RMSdq      gap      omega  full diag
   1    -42.6141361 -0.426141E+02  0.205E-01    0.21       0.0  T
   2    -42.6139153  0.220844E-03  0.137E-01    0.23       1.0  T
   3    -42.6113259  0.258941E-02  0.258E-01    0.15       1.0  T
   4    -42.6141880 -0.286215E-02  0.201E-02    0.22       1.0  T
   5    -42.6141963 -0.826487E-05  0.818E-03    0.21       2.4  T
   6    -42.6141970 -0.730853E-06  0.520E-03    0.22       3.8  T
   7    -42.6141976 -0.625072E-06  0.162E-03    0.21      12.3  T
   8    -42.6141977 -0.631228E-07  0.679E-04    0.21      29.5  T
   9    -42.6141977 -0.615083E-08  0.208E-04    0.21      96.1  T
     SCC iter.                  ...        0 min,  0.013 sec
     gradient                   ...        0 min,  0.011 sec
 * total energy  :   -42.1189172 Eh     change       -0.5151082E-03 Eh
   gradient norm :     0.0197676 Eh/α   predicted    -0.1048409E-02 ( 103.53%)
   displ. norm   :     0.1157781 α      lambda       -0.1166559E-02
   maximum displ.:     0.0491152 α      in ANC's #3, #14, #1, ...

........................................................................
.............................. CYCLE   40 ..............................
........................................................................

 iter      E             dE          RMSdq      gap      omega  full diag
   1    -42.6169073 -0.426169E+02  0.135E-01    0.25       0.0  T
   2    -42.6166338  0.273502E-03  0.115E-01    0.22       1.0  T
   3    -42.6162368  0.397041E-03  0.133E-01    0.26       1.0  T
   4    -42.6169620 -0.725196E-03  0.242E-02    0.23       1.0  T
   5    -42.6169733 -0.113797E-04  0.709E-03    0.24       2.8  T
   6    -42.6169742 -0.887796E-06  0.434E-03    0.24       4.6  T
   7    -42.6169745 -0.317394E-06  0.206E-03    0.24       9.7  T
   8    -42.6169747 -0.116517E-06  0.611E-04    0.24      32.7  T
   9    -42.6169747 -0.584853E-08  0.220E-04    0.24      90.8  T
     SCC iter.                  ...        0 min,  0.013 sec
     gradient                   ...        0 min,  0.011 sec
 * total energy  :   -42.1193906 Eh     change       -0.4733796E-03 Eh
   gradient norm :     0.0164885 Eh/α   predicted    -0.5911020E-03 (  24.87%)
   displ. norm   :     0.0825172 α      lambda       -0.5039715E-03
   maximum displ.:     0.0366443 α      in ANC's #3, #1, #8, ...

........................................................................
.............................. CYCLE   41 ..............................
........................................................................

 iter      E             dE          RMSdq      gap      omega  full diag
   1    -42.6180240 -0.426180E+02  0.550E-02    0.22       0.0  T
   2    -42.6178766  0.147366E-03  0.683E-02    0.24       1.0  T
   3    -42.6180091 -0.132450E-03  0.377E-02    0.22       1.0  T
   4    -42.6180519 -0.428525E-04  0.803E-03    0.23       2.5  T
   5    -42.6180519  0.787642E-07  0.372E-03    0.23       5.4  T
   6    -42.6180523 -0.422952E-06  0.158E-03    0.23      12.6  T
   7    -42.6180523 -0.566920E-07  0.599E-04    0.23      33.4  T
   8    -42.6180523 -0.633791E-08  0.241E-04    0.23      83.0  T
     SCC iter.                  ...        0 min,  0.012 sec
     gradient                   ...        0 min,  0.011 sec
 * total energy  :   -42.1197545 Eh     change       -0.3639779E-03 Eh
   gradient norm :     0.0086929 Eh/α   predicted    -0.2537097E-03 ( -30.30%)
   displ. norm   :     0.2306546 α      lambda       -0.7053199E-03
   maximum displ.:     0.1020819 α      in ANC's #2, #7, #1, ...

........................................................................
.............................. CYCLE   42 ..............................
........................................................................

 iter      E             dE          RMSdq      gap      omega  full diag
   1    -42.6190073 -0.426190E+02  0.872E-02    0.20       0.0  T
   2    -42.6187203  0.287071E-03  0.925E-02    0.23       1.0  T
   3    -42.6188383 -0.118019E-03  0.789E-02    0.20       1.0  T
   4    -42.6190562 -0.217926E-03  0.109E-02    0.21       1.8  T
   5    -42.6190574 -0.118231E-05  0.629E-03    0.22       3.2  T
   6    -42.6190587 -0.127493E-05  0.234E-03    0.21       8.5  T
   7    -42.6190587 -0.811651E-07  0.110E-03    0.21      18.2  T
   8    -42.6190588 -0.272270E-07  0.374E-04    0.21      53.5  T
   9    -42.6190588 -0.339777E-08  0.161E-04    0.21     124.4  T
     SCC iter.                  ...        0 min,  0.013 sec
     gradient                   ...        0 min,  0.012 sec
 * total energy  :   -42.1203010 Eh     change       -0.5464746E-03 Eh
   gradient norm :     0.0114508 Eh/α   predicted    -0.3714267E-03 ( -32.03%)
   displ. norm   :     0.3788772 α      lambda       -0.8744558E-03
   maximum displ.:     0.1635619 α      in ANC's #2, #7, #1, ...
 * RMSD in coord.:     0.7522369 α      energy gain  -0.9793042E-01 Eh

generating ANC from model Hessian ...
Using Lindh-Hessian (1995)
 Shifting diagonal of input Hessian by    8.8314330679127862E-003
 Lowest  eigenvalues of input Hessian
    0.000000    0.000000    0.000000    0.000000    0.000000    0.000000
    0.010000    0.012568    0.013140    0.013932    0.015181    0.015726
    0.017959    0.020534    0.023211    0.024689    0.029887    0.038228
 Highest eigenvalues
    2.049719    2.131425    2.240636    2.344530    2.518537    2.541933


........................................................................
.............................. CYCLE   43 ..............................
........................................................................

 iter      E             dE          RMSdq      gap      omega  full diag
   1    -42.6193188 -0.426193E+02  0.117E-01    0.19       0.0  T
   2    -42.6188953  0.423531E-03  0.116E-01    0.23       1.0  T
   3    -42.6189597 -0.643757E-04  0.110E-01    0.18       1.0  T
   4    -42.6193903 -0.430632E-03  0.966E-03    0.20       2.1  T
   5    -42.6193905 -0.249273E-06  0.563E-03    0.20       3.6  T
   6    -42.6193914 -0.900594E-06  0.253E-03    0.20       7.9  T
   7    -42.6193915 -0.945209E-07  0.867E-04    0.20      23.1  T
   8    -42.6193916 -0.122373E-07  0.392E-04    0.20      51.0  T
     SCC iter.                  ...        0 min,  0.013 sec
     gradient                   ...        0 min,  0.011 sec
 * total energy  :   -42.1208854 Eh     change       -0.5844260E-03 Eh
   gradient norm :     0.0190110 Eh/α   predicted     0.0000000E+00 (-100.00%)
   displ. norm   :     0.1846719 α      lambda       -0.1007981E-02
   maximum displ.:     0.1082206 α      in ANC's #3, #6, #2, ...

........................................................................
.............................. CYCLE   44 ..............................
........................................................................

 iter      E             dE          RMSdq      gap      omega  full diag
   1    -42.6215402 -0.426215E+02  0.725E-02    0.22       0.0  T
   2    -42.6215412 -0.102646E-05  0.423E-02    0.21       1.0  T
   3    -42.6214827  0.585439E-04  0.437E-02    0.23       1.0  T
   4    -42.6215134 -0.307053E-04  0.298E-02    0.21       1.0  T
   5    -42.6215516 -0.382078E-04  0.644E-03    0.21       3.1  T
   6    -42.6215529 -0.137149E-05  0.154E-03    0.21      13.0  T
   7    -42.6215530 -0.309117E-08  0.728E-04    0.21      27.5  T
   8    -42.6215530 -0.128300E-07  0.190E-04    0.21     105.1  T
     SCC iter.                  ...        0 min,  0.012 sec
     gradient                   ...        0 min,  0.011 sec
 * total energy  :   -42.1216820 Eh     change       -0.7965478E-03 Eh
   gradient norm :     0.0083268 Eh/α   predicted    -0.5212091E-03 ( -34.57%)
   displ. norm   :     0.4144489 α      lambda       -0.1289123E-02
   maximum displ.:     0.2526276 α      in ANC's #3, #6, #2, ...

........................................................................
.............................. CYCLE   45 ..............................
........................................................................

 iter      E             dE          RMSdq      gap      omega  full diag
   1    -42.6208533 -0.426209E+02  0.121E-01    0.24       0.0  T
   2    -42.6208469  0.641881E-05  0.730E-02    0.22       1.0  T
   3    -42.6206746  0.172256E-03  0.777E-02    0.25       1.0  T
   4    -42.6207364 -0.617272E-04  0.586E-02    0.22       1.0  T
   5    -42.6208888 -0.152478E-03  0.801E-03    0.23       2.5  T
   6    -42.6208907 -0.183206E-05  0.270E-03    0.23       7.4  T
   7    -42.6208907 -0.438822E-07  0.132E-03    0.23      15.1  T
   8    -42.6208907 -0.434257E-07  0.368E-04    0.23      54.4  T
   9    -42.6208907 -0.632717E-09  0.185E-04    0.23     107.8  T
     SCC iter.                  ...        0 min,  0.013 sec
     gradient                   ...        0 min,  0.011 sec
 * total energy  :   -42.1226753 Eh     change       -0.9933490E-03 Eh
   gradient norm :     0.0094359 Eh/α   predicted    -0.7553615E-03 ( -23.96%)
   displ. norm   :     0.4583660 α      lambda       -0.9909048E-03
   maximum displ.:     0.2839477 α      in ANC's #3, #6, #2, ...

........................................................................
.............................. CYCLE   46 ..............................
........................................................................

 iter      E             dE          RMSdq      gap      omega  full diag
   1    -42.6174048 -0.426174E+02  0.121E-01    0.25       0.0  T
   2    -42.6173964  0.844927E-05  0.739E-02    0.23       1.0  T
   3    -42.6170994  0.296926E-03  0.942E-02    0.27       1.0  T
   4    -42.6173014 -0.201993E-03  0.566E-02    0.23       1.0  T
   5    -42.6174383 -0.136874E-03  0.893E-03    0.24       2.2  T
   6    -42.6174409 -0.258716E-05  0.303E-03    0.24       6.6  T
   7    -42.6174410 -0.103919E-06  0.141E-03    0.24      14.2  T
   8    -42.6174410 -0.431458E-07  0.498E-04    0.24      40.1  T
   9    -42.6174410 -0.240695E-08  0.149E-04    0.24     134.3  T
     SCC iter.                  ...        0 min,  0.013 sec
     gradient                   ...        0 min,  0.011 sec
 * total energy  :   -42.1231835 Eh     change       -0.5082167E-03 Eh
   gradient norm :     0.0222606 Eh/α   predicted    -0.5995476E-03 (  17.97%)
   displ. norm   :     0.1015006 α      lambda       -0.7433620E-03
   maximum displ.:     0.0383313 α      in ANC's #1, #3, #13, ...

........................................................................
.............................. CYCLE   47 ..............................
........................................................................

 iter      E             dE          RMSdq      gap      omega  full diag
   1    -42.6217408 -0.426217E+02  0.578E-02    0.24       0.0  T
   2    -42.6217439 -0.310129E-05  0.359E-02    0.24       1.0  T
   3    -42.6216903  0.536195E-04  0.382E-02    0.24       1.0  T
   4    -42.6217262 -0.358887E-04  0.253E-02    0.25       1.0  T
   5    -42.6217499 -0.237150E-04  0.760E-03    0.24       2.6  T
   6    -42.6217522 -0.229864E-05  0.164E-03    0.24      12.2  T
   7    -42.6217522 -0.182202E-07  0.485E-04    0.24      41.3  T
   8    -42.6217522 -0.379805E-08  0.208E-04    0.24      96.1  T
     SCC iter.                  ...        0 min,  0.012 sec
     gradient                   ...        0 min,  0.011 sec
 * total energy  :   -42.1236834 Eh     change       -0.4998135E-03 Eh
   gradient norm :     0.0105293 Eh/α   predicted    -0.3755480E-03 ( -24.86%)
   displ. norm   :     0.2822438 α      lambda       -0.5754043E-03
   maximum displ.:     0.1745371 α      in ANC's #3, #2, #6, ...

........................................................................
.............................. CYCLE   48 ..............................
........................................................................

 iter      E             dE          RMSdq      gap      omega  full diag
   1    -42.6228794 -0.426229E+02  0.684E-02    0.24       0.0  T
   2    -42.6228799 -0.560620E-06  0.408E-02    0.24       1.0  T
   3    -42.6227963  0.836390E-04  0.454E-02    0.25       1.0  T
   4    -42.6228654 -0.691530E-04  0.202E-02    0.23       1.0  T
   5    -42.6228833 -0.178564E-04  0.420E-03    0.24       4.8  T
   6    -42.6228839 -0.572683E-06  0.125E-03    0.24      15.9  T
   7    -42.6228839 -0.582007E-08  0.361E-04    0.24      55.4  T
   8    -42.6228839 -0.197490E-08  0.146E-04    0.24     136.6  T
     SCC iter.                  ...        0 min,  0.012 sec
     gradient                   ...        0 min,  0.011 sec
 * total energy  :   -42.1241196 Eh     change       -0.4362483E-03 Eh
   gradient norm :     0.0078012 Eh/α   predicted    -0.3106345E-03 ( -28.79%)
   displ. norm   :     0.2960698 α      lambda       -0.5963156E-03
   maximum displ.:     0.1739787 α      in ANC's #3, #2, #10, ...

........................................................................
.............................. CYCLE   49 ..............................
........................................................................

 iter      E             dE          RMSdq      gap      omega  full diag
   1    -42.6246452 -0.426246E+02  0.727E-02    0.23       0.0  T
   2    -42.6246476 -0.239335E-05  0.430E-02    0.24       1.0  T
   3    -42.6246337  0.138974E-04  0.227E-02    0.23       1.0  T
   4    -42.6246472 -0.135201E-04  0.794E-03    0.24       2.5  T
   5    -42.6246478 -0.644527E-06  0.671E-03    0.24       3.0  T
   6    -42.6246497 -0.185541E-05  0.139E-03    0.24      14.4  T
   7    -42.6246497 -0.221874E-07  0.772E-04    0.24      25.9  T
   8    -42.6246497 -0.172053E-07  0.171E-04    0.24     117.0  T
     SCC iter.                  ...        0 min,  0.012 sec
     gradient                   ...        0 min,  0.011 sec
 * total energy  :   -42.1245440 Eh     change       -0.4244357E-03 Eh
   gradient norm :     0.0077764 Eh/α   predicted    -0.3242956E-03 ( -23.59%)
   displ. norm   :     0.2603617 α      lambda       -0.4009729E-03
   maximum displ.:     0.1398404 α      in ANC's #3, #2, #44, ...

........................................................................
.............................. CYCLE   50 ..............................
........................................................................

 iter      E             dE          RMSdq      gap      omega  full diag
   1    -42.6250739 -0.426251E+02  0.752E-02    0.23       0.0  T
   2    -42.6250726  0.134118E-05  0.451E-02    0.24       1.0  T
   3    -42.6249698  0.102760E-03  0.490E-02    0.22       1.0  T
   4    -42.6250626 -0.928071E-04  0.179E-02    0.24       1.1  T
   5    -42.6250767 -0.140479E-04  0.217E-03    0.24       9.2  T
   6    -42.6250768 -0.745859E-07  0.107E-03    0.24      18.7  T
   7    -42.6250768 -0.783137E-08  0.305E-04    0.24      65.6  T
[...]
N           -1.18467064363842        1.05804208338016       -0.07633669491798
C           -2.13651698715819        2.15839470866216       -0.11427295540473
C           -1.73689639051184       -0.20369222763578       -0.09731971390577
O           -2.92882499245414       -0.37257948804544       -0.16740841696153
N           -0.84739883731407       -1.27598724800999       -0.02742306713276
C           -1.46872842045160       -2.59124891172996       -0.03999078288945
H            3.88349574257374        1.42303496913053       -0.80861173427084
H            2.58683270050738        2.50102409940303       -0.17839915314053
H            3.69211685872567        1.62917759397366        0.92765447157233
H            3.24615868996810       -1.84596736379545        0.42213674580092
H           -1.58405525227956        3.09563772083485       -0.12916301629457
H           -2.76279711803717        2.07110518659385       -1.00307021854306
H           -2.78290609691633        2.11558205731961        0.76379189244240
H           -1.28277585233741       -3.13218286758023        0.89104216191118
H           -1.15295772941840       -3.17349988628627       -0.90884649684855
H           -2.54696745861631       -2.43129294179530       -0.12066834858223
H            0.61751821739761       -3.12313680688743        0.12577679002329

 Bond Distances (Angstroems)
 ---------------------------
C1-N2=1.3990         C1-H15=1.0965        C1-H16=1.1143        C1-H17=1.0961        N2-C1=1.3990         N2-C6=1.2959         
C3-N4=1.2888         C3-H18=1.0816        N4-C3=1.2888         N4-C5=1.3961         N4-H25=1.0239        C5-N4=1.3961         
C5-C6=1.4244         C5-N13=1.3745        C6-N2=1.2959         C6-C5=1.4244         C6-C7=1.4977         C7-C6=1.4977         
C7-O8=1.2138         C7-N9=1.3745         O8-C7=1.2138         N9-C7=1.3745         N9-C10=1.4554        N9-C11=1.3774        
C10-N9=1.4554        C10-H19=1.0881       C10-H20=1.0908       C10-H21=1.0912       C11-N9=1.3774        C11-O12=1.2059       
C11-N13=1.3950       O12-C11=1.2059       N13-C5=1.3745        N13-C11=1.3950       N13-C14=1.4547       C14-N13=1.4547       
C14-H22=1.0927       C14-H23=1.0925       C14-H24=1.0930       H15-C1=1.0965        H16-C1=1.1143        H17-C1=1.0961        
H18-C3=1.0816        H19-C10=1.0881       H20-C10=1.0908       H21-C10=1.0912       H22-C14=1.0927       H23-C14=1.0925       
H24-C14=1.0930       H25-N4=1.0239        
 C  H  Rav=1.0937 sigma=0.0080  Rmin=1.0816  Rmax=1.1143    10
 C  C  Rav=1.4611 sigma=0.0367  Rmin=1.4244  Rmax=1.4977     2
 N  H  Rav=1.0239 sigma=0.0000  Rmin=1.0239  Rmax=1.0239     1
 N  C  Rav=1.3811 sigma=0.0525  Rmin=1.2888  Rmax=1.4554    10
 O  C  Rav=1.2098 sigma=0.0040  Rmin=1.2059  Rmax=1.2138     2

 selected bond angles (degree)
 --------------------
H15-C1-N2=107.52               H16-C1-N2=116.99               H16-C1-H15=109.03              H17-C1-N2=107.99               
H17-C1-H15=106.68              H17-C1-H16=108.17              C6-N2-C1=131.48                H18-C3-N4=122.15               
C5-N4-C3=134.80                H25-N4-C3=114.00               H25-N4-C5=111.20               C6-C5-N4=124.79                
N13-C5-N4=114.82               N13-C5-C6=120.39               C5-C6-N2=122.49                C7-C6-N2=120.22                
C7-C6-C5=117.29                O8-C7-C6=122.20                N9-C7-C6=116.55                N9-C7-O8=121.25                
C10-N9-C7=118.65               C11-N9-C7=125.88               C11-N9-C10=115.46              H19-C10-N9=108.63              
H20-C10-N9=109.65              H20-C10-H19=110.45             H21-C10-N9=109.68              H21-C10-H19=110.22             
H21-C10-H20=108.21             

 selected dihedral angles (degree)
 ---------------------------------
C6-N2-C1-H15=230.97           C6-N2-C1-H16=353.96           C6-N2-C1-H17=116.20           C5-N4-C3-H18=358.75           
H25-N4-C3-H18=179.74          C6-C5-N4-C3=  4.22            C6-C5-N4-H25=183.25           N13-C5-N4-C3=184.52           
N13-C5-N4-H25=  3.55          C5-C6-N2-C1=178.83            C7-C6-N2-C1=358.88            N2-C6-C5-N4=  3.66            
N2-C6-C5-N13=183.34           C7-C6-C5-N4=183.61            C7-C6-C5-N13=  3.29           O8-C7-C6-N2=357.99            
O8-C7-C6-C5=178.04            N9-C7-C6-N2=178.27            N9-C7-C6-C5=358.32            C10-N9-C7-C6=179.39           
C10-N9-C7-O8=359.66           C11-N9-C7-C6=359.08           C11-N9-C7-O8=179.35           H19-C10-N9-C7=  1.72          
H19-C10-N9-C11=182.00         H20-C10-N9-C7=122.51          H20-C10-N9-C11=302.79         H21-C10-N9-C7=241.19          
H21-C10-N9-C11= 61.48         
           -------------------------------------------------
          |                Final Singlepoint                |
           -------------------------------------------------

          ...................................................
          :                      SETUP                      :
          :.................................................:
          :  # basis functions                  67          :
          :  # atomic orbitals                  67          :
          :  # shells                           39          :
          :  # electrons                        74          :
          :  max. iterations                   250          :
          :  Hamiltonian                  GFN2-xTB          :
          :  restarted?                      false          :
          :  GBSA solvation                  false          :
          :  PC potential                    false          :
          :  electronic temp.         7500.0000000     K    :
          :  accuracy                    1.0000000          :
          :  -> integral cutoff          0.2500000E+02      :
          :  -> integral neglect         0.1000000E-07      :
          :  -> SCF convergence          0.1000000E-05 Eh   :
          :  -> wf. convergence          0.1000000E-03 e    :
          :  Broyden damping             0.4000000          :
          ...................................................

 iter      E             dE          RMSdq      gap      omega  full diag
   1    -42.6280475 -0.426280E+02  0.105E-04    0.17       0.0  T
   2    -42.6280475  0.142712E-08  0.189E-04    0.17     105.9  T
   3    -42.6280475 -0.160318E-08  0.593E-05    0.17     337.3  T

   *** convergence criteria satisfied after 3 iterations ***

         #    Occupation            Energy/Eh            Energy/eV
      -------------------------------------------------------------
         1        2.0000           -0.8954530             -24.3665
       ...           ...                  ...                  ...
        31        1.9836           -0.6225681             -16.9409
        32        1.9713           -0.6091878             -16.5768
        33        1.9587           -0.6003486             -16.3363
        34        1.9454           -0.5935783             -16.1521
        35        1.9188           -0.5838017             -15.8861
        36        1.6312           -0.5440155             -14.8034
        37        1.2790           -0.5223184             -14.2130 (HOMO)
        38        1.1525           -0.5160008             -14.0411 (LUMO)
        39        0.1733           -0.4527565             -12.3201
        40        0.0220           -0.4018557             -10.9350
        41        0.0106           -0.3843513             -10.4587
        42        0.0003           -0.2995797              -8.1520
       ...           ...                  ...                  ...
        67                          0.5248571              14.2821
      -------------------------------------------------------------
                  HL-Gap            0.0063176 Eh            0.1719 eV
             Fermi-level           -0.5087020 Eh          -13.8425 eV

 SCC (total)                   0 d,  0 h,  0 min,  0.021 sec
 SCC setup                      ...        0 min,  0.000 sec (  0.878%)
 Dispersion                     ...        0 min,  0.000 sec (  0.909%)
 classical contributions        ...        0 min,  0.000 sec (  0.324%)
 integral evaluation            ...        0 min,  0.004 sec ( 20.884%)
 iterations                     ...        0 min,  0.005 sec ( 22.666%)
 molecular gradient             ...        0 min,  0.011 sec ( 53.750%)
 printout                       ...        0 min,  0.000 sec (  0.529%)

         :::::::::::::::::::::::::::::::::::::::::::::::::::::
         ::                     SUMMARY                     ::
         :::::::::::::::::::::::::::::::::::::::::::::::::::::
         :: total energy             -42.126557395726 Eh    ::
         :: gradient norm              0.002654103452 Eh/a0 ::
         :: HOMO-LUMO gap              0.171909809873 eV    ::
         ::.................................................::
         :: SCC energy               -42.628047511801 Eh    ::
         :: -> isotropic ES            0.133253925054 Eh    ::
         :: -> anisotropic ES         -0.009769290128 Eh    ::
         :: -> anisotropic XC          0.016579030058 Eh    ::
         :: -> dispersion             -0.022081291266 Eh    ::
         :: repulsion energy           0.501300540936 Eh    ::
         :: add. restraining           0.000060422278 Eh    ::
         :: total charge               1.000000001346 e     ::
         :::::::::::::::::::::::::::::::::::::::::::::::::::::

           -------------------------------------------------
          |                Property Printout                |
           -------------------------------------------------

    * Orbital Energies and Occupations

         #    Occupation            Energy/Eh            Energy/eV
      -------------------------------------------------------------
         1        2.0000           -0.8954530             -24.3665
       ...           ...                  ...                  ...
        25        1.9981           -0.6735843             -18.3292
        26        1.9972           -0.6649633             -18.0946
        27        1.9947           -0.6493599             -17.6700
        28        1.9930           -0.6430103             -17.4972
        29        1.9902           -0.6348048             -17.2739
        30        1.9875           -0.6290273             -17.1167
        31        1.9836           -0.6225681             -16.9409
        32        1.9713           -0.6091878             -16.5768
        33        1.9587           -0.6003486             -16.3363
        34        1.9454           -0.5935783             -16.1521
        35        1.9188           -0.5838017             -15.8861
        36        1.6312           -0.5440155             -14.8034
        37        1.2790           -0.5223184             -14.2130 (HOMO)
        38        1.1525           -0.5160008             -14.0411 (LUMO)
        39        0.1733           -0.4527565             -12.3201
        40        0.0220           -0.4018557             -10.9350
        41        0.0106           -0.3843513             -10.4587
        42        0.0003           -0.2995797              -8.1520
        43        0.0000           -0.2098482              -5.7103
        44        0.0000           -0.1674955              -4.5578
        45        0.0000           -0.1522408              -4.1427
        46                         -0.0949814              -2.5846
        47                         -0.0863860              -2.3507
        48                         -0.0497553              -1.3539
       ...                                ...                  ...
        67                          0.5248571              14.2821
      -------------------------------------------------------------
                  HL-Gap            0.0063176 Eh            0.1719 eV
             Fermi-level           -0.5087020 Eh          -13.8425 eV

     #   Z          covCN         q      C6AA      α(0)
     1   6 C        3.685    -0.050    21.678     6.666
     2   7 N        1.831    -0.126    24.507     7.336
     3   6 C        1.841    -0.063    32.858     9.260
     4   7 N        2.687     0.001    21.254     6.847
     5   6 C        2.832     0.084    26.122     8.375
     6   6 C        2.884     0.053    26.817     8.490
     7   6 C        2.769     0.262    22.589     7.784
     8   8 O        0.859    -0.327    20.282     6.038
     9   7 N        2.739    -0.061    22.426     7.033
    10   6 C        3.709    -0.061    21.817     6.676
    11   6 C        2.726     0.315    21.639     7.615
    12   8 O        0.860    -0.347    20.651     6.093
    13   7 N        2.743    -0.047    22.144     6.989
    14   6 C        3.702    -0.082    22.224     6.741
    15   1 H        0.924     0.123     1.587     1.970
    16   1 H        0.921     0.139     1.470     1.896
    17   1 H        0.924     0.125     1.574     1.962
    18   1 H        0.925     0.129     1.541     1.941
    19   1 H        0.925     0.123     1.593     1.974
    20   1 H        0.924     0.115     1.652     2.010
    21   1 H        0.924     0.113     1.667     2.019
    22   1 H        0.924     0.096     1.822     2.111
    23   1 H        0.924     0.096     1.824     2.112
    24   1 H        0.924     0.142     1.448     1.882
    25   1 H        0.859     0.248     0.892     1.480

 Mol. C6AA /au·bohr⁶  :       6560.109352
 Mol. C8AA /au·bohr⁸  :     151175.201347
 Mol. α(0) /au        :        123.299731


Wiberg/Mayer (AO) data.
largest (>0.10) Wiberg bond orders for each atom

 ---------------------------------------------------------------------------
     #   Z sym  total        # sym  WBO       # sym  WBO       # sym  WBO
 ---------------------------------------------------------------------------
     1   6 C    3.841 --     2 N    1.107    15 H    0.910    17 H    0.904
                            16 H    0.873
     2   7 N    2.755 --     6 C    1.513     1 C    1.107
     3   6 C    2.597 --     4 N    1.575    18 H    0.908
     4   7 N    3.625 --     3 C    1.575     5 C    1.098    25 H    0.866
     5   6 C    3.644 --     6 C    1.207    13 N    1.180     4 N    1.098
     6   6 C    3.872 --     2 N    1.513     5 C    1.207     7 C    0.957
     7   6 C    3.850 --     8 O    1.665     9 N    1.137     6 C    0.957
     8   8 O    1.947 --     7 C    1.665     9 N    0.119
     9   7 N    3.501 --     7 C    1.137    11 C    1.107    10 C    0.969
                             8 O    0.119    12 O    0.110
    10   6 C    3.862 --     9 N    0.969    19 H    0.956    20 H    0.947
                            21 H    0.947
    11   6 C    3.924 --    12 O    1.660     9 N    1.107    13 N    1.075
    12   8 O    1.955 --    11 C    1.660     9 N    0.110    13 N    0.108
    13   7 N    3.461 --     5 C    1.180    11 C    1.075    14 C    0.980
                            12 O    0.108
    14   6 C    3.902 --    13 N    0.980    23 H    0.955    22 H    0.955
                            24 H    0.946
    15   1 H    0.937 --     1 C    0.910
    16   1 H    0.905 --     1 C    0.873
    17   1 H    0.935 --     1 C    0.904
    18   1 H    0.935 --     3 C    0.908
    19   1 H    0.974 --    10 C    0.956
    20   1 H    0.965 --    10 C    0.947
    21   1 H    0.965 --    10 C    0.947
    22   1 H    0.977 --    14 C    0.955
    23   1 H    0.977 --    14 C    0.955
    24   1 H    0.974 --    14 C    0.946
    25   1 H    0.917 --     4 N    0.866
 ---------------------------------------------------------------------------

Topologies differ in total number of bonds
Writing topology from bond orders to xtbtopo.mol

molecular dipole:
                 x           y           z       tot (Debye)
 q only:        1.191      -1.415       0.072
   full:        1.085      -1.235       0.058       4.180
molecular quadrupole (traceless):
                xx          xy          yy          xz          yz          zz
 q only:        5.903       0.578      12.196       0.602      -1.130     -18.099
  q+dip:        2.982       3.828      10.186       0.098      -0.608     -13.168
   full:        1.563       3.589       9.375      -0.173      -0.516     -10.938

           -------------------------------------------------
          |                Geometry Summary                 |
           -------------------------------------------------

      molecular mass/u    :      195.1988581
   center of mass at/Å    :        0.0542177      -0.0637854       0.0001017
  moments of inertia/u·Å² :        0.5750570E+03   0.6808740E+03   0.1244899E+04
rotational constants/cm⁻¹ :        0.2931472E-01   0.2475881E-01   0.1354137E-01

 * 23 selected distances

     #   Z          #   Z                                           value/Å
     1   6 C        2   7 N                                       1.3989938
     3   6 C        4   7 N                                       1.2888085
     4   7 N        5   6 C                                       1.3961277
     2   7 N        6   6 C                                       1.2958679
     5   6 C        6   6 C                                       1.4243798
     7   6 C        8   8 O                                       1.2137939
     7   6 C        9   7 N                                       1.3745202
     9   7 N       10   6 C                                       1.4554130 (max)
     9   7 N       11   6 C                                       1.3774496
    11   6 C       12   8 O                                       1.2058729
     5   6 C       13   7 N                                       1.3745486
    11   6 C       13   7 N                                       1.3949582
    13   7 N       14   6 C                                       1.4546897
     1   6 C       15   1 H                                       1.0964518
     1   6 C       16   1 H                                       1.1142804
     1   6 C       17   1 H                                       1.0961480
    10   6 C       19   1 H                                       1.0880535
    10   6 C       20   1 H                                       1.0907828
    10   6 C       21   1 H                                       1.0911691
    14   6 C       22   1 H                                       1.0927079
    14   6 C       23   1 H                                       1.0925373
    14   6 C       24   1 H                                       1.0930208
     4   7 N       25   1 H                                       1.0238990 (min)

 * 5 distinct bonds (by element types)

   Z      Z             #   av. dist./Å        max./Å        min./Å
   1 H    6 C           9     1.0950168     1.1142804     1.0880535
   6 C    6 C           1     1.4243798     1.4243798     1.4243798
   1 H    7 N           1     1.0238990     1.0238990     1.0238990
   6 C    7 N          10     1.3811377     1.4554130     1.2888085
   6 C    8 O           2     1.2098334     1.2137939     1.2058729


optimized geometry written to: xtbopt.xyz


           -------------------------------------------------
          | TOTAL ENERGY              -42.126557395726 Eh   |
          | GRADIENT NORM               0.002654103452 Eh/α |
          | HOMO-LUMO GAP               0.171909809873 eV   |
           -------------------------------------------------

------------------------------------------------------------------------
 * finished run on 2024/06/05 at 19:58:45.226     
------------------------------------------------------------------------
 total:
 * wall-time:     0 d,  0 h,  0 min,  2.118 sec
 *  cpu-time:     0 d,  0 h,  0 min,  2.090 sec
 * ratio c/w:     0.987 speedup
 SCF:
 * wall-time:     0 d,  0 h,  0 min,  0.037 sec
 *  cpu-time:     0 d,  0 h,  0 min,  0.037 sec
 * ratio c/w:     1.000 speedup
 ANC optimizer:
 * wall-time:     0 d,  0 h,  0 min,  2.054 sec
 *  cpu-time:     0 d,  0 h,  0 min,  2.041 sec
 * ratio c/w:     0.994 speedup

