25
 energy: -48.504198116774 gnorm: 10.006798564615 xtb: 6.6.1 (8d0f1dd)
C            3.21786164340000        1.13591514650000        0.01837059260000
N            2.27034809790000        0.05199982890000        0.00038279530000
C            2.54167221030000       -1.23971668410000       -0.00834188300000
N            1.39367826450000       -1.95088267900000       -0.00850347120000
C            0.35269634020000       -1.06748964300000        0.00059917290000
C            0.90759959010000        0.20069750900000        0.00663590170000
C            0.07590235260000        1.39864294500000       -0.00284827040000
O            0.48715076820000        2.53168346660000       -0.01725767220000
N           -1.27221500230000        1.06666939660000        0.00165480230000
C           -2.23229981500000        2.16656245330000       -0.00245172030000
C           -1.84872931540000       -0.19179276200000        0.00496135950000
O           -3.03273030250000       -0.36103538130000        0.00858583760000
N           -0.96599111670000       -1.30060631840000        0.00174701630000
C           -1.52030655580000       -2.64076660390000       -0.00239033190000
H            3.71480285180000        1.18589984860000        0.98803183970000
H            3.97079415090000        0.99383197990000       -0.75543416370000
H            2.68321036910000        2.07051068580000       -0.15067179540000
H            3.52469367910000       -1.66989040330000       -0.01523639120000
H           -1.67672429040000        3.10039111610000        0.00486339690000
H           -2.85755792270000        2.10547813320000       -0.89185337000000
H           -2.87119733260000        2.09858159720000        0.87661144540000
H           -1.20589108080000       -3.18768007210000        0.88663215920000
H           -1.21982032550000       -3.17678505510000       -0.90288069810000
H           -2.60531402170000       -2.54255916880000        0.00649952960000
H            1.32879827740000       -2.95942079410000       -0.01653446370000
25
 energy: -62.360989332377 gnorm: 17.781353231899 xtb: 6.6.1 (8d0f1dd)
C            3.21500117448432        1.13583990734579        0.01485898439032
N            2.27050193415894        0.05170980261715       -0.00002301110293
C            2.54182519190970       -1.23990420708984       -0.00831489334657
N            1.39355337051446       -1.95097434490858       -0.00851965263515
C            0.35261921289788       -1.06743743465234        0.00057967030976
C            0.91181124752638        0.19896369726139        0.00697629477297
C            0.42856001678058        1.37675265750576        0.09697414498774
O            0.49149226597560        2.53386800380216       -0.01703324890631
N           -1.26480485323612        1.06694027876327        0.00197221258988
C           -2.23176999872985        2.16643211462577       -0.00249556044839
C           -1.84843659464855       -0.19163096789537        0.00496981807078
O           -3.03276184981466       -0.36094180213349        0.00854750434295
N           -0.96610520635548       -1.30057611702447        0.00179003061946
C           -1.52030623203983       -2.64075246386162       -0.00238240460161
H            3.34804229163786        1.20751276261604        0.89123486750849
H            3.97110098917706        0.99384368988303       -0.75517550560909
H            2.68309409832048        2.07049269639943       -0.15090888957353
H            3.52469138024681       -1.66988028775676       -0.01524377289609
H           -1.67674976394809        3.10041626398958        0.00487617019969
H           -2.85753953694829        2.10546268883160       -0.89185372574628
H           -2.87119657485907        2.09855540035314        0.87659837743902
H           -1.20587761984894       -3.18768303607741        0.88663940324806
H           -1.21981102814487       -3.17679065014873       -0.90287194533990
H           -2.60530863038160       -2.54257003788326        0.00650983147856
H            1.32880622942528       -2.95941007296223       -0.01653308185183
25
 energy: -84.105131932134 gnorm: 25.786748690100 xtb: 6.6.1 (8d0f1dd)
C            3.21179940881617        1.13547335281426        0.00752761315171
N            2.27103078055472        0.05076256979048       -0.00068187752132
C            2.54204174916649       -1.24002124446590       -0.00837313554920
N            1.39343976658867       -1.95096414410490       -0.00855363708105
C            0.35206111840361       -1.06776637086364        0.00060973821223
C            0.91603288829547        0.19583780608390        0.00716907129923
C            0.78338097734716        1.35719589550474        0.19675822501542
O            0.49530356353984        2.53633775420338       -0.01674225416187
N           -1.25972021445887        1.06639893792395        0.00235700257893
C           -2.23102743310746        2.16614881439331       -0.00247857217761
C           -1.84804859914530       -0.19071322067130        0.00503049372816
O           -3.03299203278889       -0.36104729141447        0.00855139932310
N           -0.96578228748460       -1.30069200528409        0.00184073827547
C           -1.52027397300062       -2.64073961601627       -0.00235409158882
H            2.98179965313813        1.22948639645334        0.79862390355101
H            3.97140152434767        0.99388232393975       -0.75482815312529
H            2.68289000830697        2.07062681098923       -0.15153744859259
H            3.52470348893352       -1.66987283218590       -0.01530309527277
H           -1.67675852647499        3.10042888543779        0.00490192336775
H           -2.85752526309538        2.10541937045977       -0.89182219059147
H           -2.87118693810323        2.09851734271551        0.87663973737724
H           -1.20584380397333       -3.18769235149273        0.88666775998358
H           -1.21980605606589       -3.17680396710086       -0.90284340525987
H           -2.60530093831514       -2.54257335064597        0.00655781240667
H            1.32881265267530       -2.95939132486337       -0.01654593944863
25
 energy: -113.896091682241 gnorm: 33.825819722361 xtb: 6.6.1 (8d0f1dd)
C            3.21140873488180        1.13484656739176       -0.00024092272067
N            2.27191951924377        0.04913627201147       -0.00163991665219
C            2.54231856506436       -1.24016210289209       -0.00847503995943
N            1.39340537580949       -1.95093147824574       -0.00856955309102
C            0.35151280768845       -1.06820062576239        0.00066118163631
C            0.91901743962211        0.19138356377329        0.00681411867994
C            1.13892045659700        1.34217195466874        0.29675904184839
O            0.49850566244176        2.53651677576155       -0.01618829849618
N           -1.25682379842731        1.06574774213138        0.00262566823746
C           -2.23039498607019        2.16576100458227       -0.00245898437263
C           -1.84767981884548       -0.18982582388554        0.00508742569442
O           -3.03330113630506       -0.36125344049533        0.00859703142438
N           -0.96549616365851       -1.30080796645908        0.00190418645118
C           -1.52020162747929       -2.64073654048734       -0.00229055437208
H            2.61570178114345        1.25179661169750        0.70703554259079
H            3.97168755894240        0.99397591277516       -0.75445553944216
H            2.68267012115779        2.07097901076880       -0.15248989857336
H            3.52474226261304       -1.66982897460967       -0.01537805923386
H           -1.67679348390721        3.10040819162782        0.00491359175969
H           -2.85756072629325        2.10533599269442       -0.89179435607610
H           -2.87120638592460        2.09845209167003        0.87669715599534
H           -1.20575838697170       -3.18771397804811        0.88673242568104
H           -1.21976282805151       -3.17684423404969       -0.90277973567673
H           -2.60525886848026       -2.54261443410165        0.00664675022522
H            1.32885943930897       -2.95935355091755       -0.01654164365777
25
 energy: -151.592113207502 gnorm: 41.118669661799 xtb: 6.6.1 (8d0f1dd)
C            3.21123318635137        1.13455253236635       -0.00309079390991
N            2.27303780676746        0.04709092550641       -0.00263831668524
C            2.54258804740281       -1.24035512222544       -0.00848155915655
N            1.39340486810611       -1.95098479783157       -0.00851759866283
C            0.35114021693219       -1.06834691511806        0.00070235385466
C            0.92040840428450        0.18825715751101        0.00644419733205
C            1.49475358657191        1.32569003539317        0.39781881197172
O            0.50148710872806        2.53585787393392       -0.01554028521327
N           -1.25477290029581        1.06548418679069        0.00269283808736
C           -2.22987462445758        2.16540232899979       -0.00256845547849
C           -1.84733978047579       -0.18916980402262        0.00502250908121
O           -3.03355912633034       -0.36138585141356        0.00848347823594
N           -0.96537598214354       -1.30088484768978        0.00190486483521
C           -1.52015379605329       -2.64071465628875       -0.00231333132926
H            2.25142622259199        1.27461765100441        0.61027516504233
H            3.97201069636325        0.99402177332426       -0.75398358549439
H            2.68266287579753        2.07139992168739       -0.15330846607025
H            3.52477585035146       -1.66982678245705       -0.01527083258416
H           -1.67680597045482        3.10038931634598        0.00482839774480
H           -2.85754927188234        2.10528779019632       -0.89193098682470
H           -2.87126486402952        2.09841750440010        0.87659321932439
H           -1.20574946170514       -3.18772524182937        0.88672322062365
H           -1.21969778517302       -3.17687242375080       -0.90279205193995
H           -2.60523750606823       -2.54263601869794        0.00658530314366
H            1.32888371292078       -2.95932799453486       -0.01646647802800
25
 energy: -137.431370131179 gnorm: 1141.290447935982 xtb: 6.6.1 (8d0f1dd)
C            3.21106200686989        1.13413993932088       -0.00458518724262
N            2.27439623555824        0.04507732505545       -0.00357974429855
C            2.54275971129129       -1.24070117558826       -0.00842723713004
N            1.39334226449469       -1.95111335982599       -0.00849795068081
C            0.35094809318457       -1.06822056292768        0.00076660078993
C            0.92146861355775        0.18703282919239        0.00648525328471
C            1.85044809516697        1.30419953601344        0.49969436484152
O            0.50397470875910        2.53576197477650       -0.01510881013181
N           -1.25290383640364        1.06553522896190        0.00271048801177
C           -2.22932372107475        2.16520043600806       -0.00270144276074
C           -1.84701447405025       -0.18865539105777        0.00488944312143
O           -3.03373848953031       -0.36130891917539        0.00825611822938
N           -0.96540821289002       -1.30088405562830        0.00182955788518
C           -1.52022675872986       -2.64062372623231       -0.00245936785234
H            1.88801961126714        1.29932335691113        0.51170777618735
H            3.97233911513435        0.99385049631246       -0.75363268596833
H            2.68308859864834        2.07167641222386       -0.15378908125563
H            3.52474382392927       -1.66997732778594       -0.01507751595576
H           -1.67667542690883        3.10045099374659        0.00476149060322
H           -2.85741346876954        2.10539657868696       -0.89211494963298
H           -2.87125281805792        2.09849636094543        0.87644049973715
H           -1.20591345225185       -3.18769722581738        0.88659085561389
H           -1.21974414961738       -3.17681796300086       -0.90292770678037
H           -2.60532636032758       -2.54253897976345        0.00636938357134
H            1.32878180485032       -2.95936423975171       -0.01642853428691
