25
 energy: 0.000000000000 xtb: 6.6.1 (8d0f1dd)
C            3.23720132972391        1.16630909158653        0.08434468864950
N            2.29877796055224        0.07527476373246        0.03981602671198
C            2.58028186251803       -1.21425391179017        0.03006175752192
N            1.43813944744728       -1.93419254010258        0.00098261751768
C            0.39035684826767       -1.05887462812143       -0.00790371763344
C            0.93510047688824        0.21347817468824        0.01709077332874
C            0.09450143016486        1.40504290868848       -0.00410946993748
O            0.49712746915594        2.54126690785742       -0.00342325656480
N           -1.25076628431515        1.06271869620815       -0.03085477937476
C           -2.21907191394203        2.15522079838987       -0.05001256521996
C           -1.81739470187490       -0.20012724136556       -0.04692818139228
O           -2.99983858926755       -0.37846413507442       -0.07008877579474
N           -0.92618577614240       -1.30210203518959       -0.03682761236648
C           -1.46982251276835       -2.64643077634382       -0.06029819901142
H            3.71247229913541        1.21471443890471        1.06488839270555
H            4.00791460421487        1.03430799217987       -0.67357688121503
H            2.69909982127087        2.09770098766290       -0.09130154035862
H            3.56654087521359       -1.63682977417947        0.04233139674524
H           -1.67107945562430        3.09322822573871       -0.02552706696334
H           -2.82428927394145        2.09428605349656       -0.95318074103337
H           -2.87644002486466        2.07745706351925        0.81450059976605
H           -1.17061985538665       -3.19584861009707        0.83242224714061
H           -1.14560246782873       -3.17511580834413       -0.95688266944647
H           -2.55549768731684       -2.55659960601237       -0.07459039105944
H            1.38130842369251       -2.94313824728853       -0.01389874052104
25
 energy: -5.850767639524 xtb: 6.6.1 (8d0f1dd)
C            3.23596273261625        1.17536151981791        0.08178784576048
N            2.30175855833938        0.10156565556279        0.03292026951561
C            2.60097441687857       -1.24006200109934        0.03257244248215
N            1.42094585938734       -1.94135811821109        0.00273246349592
C            0.39797339498344       -1.06480496404461       -0.00748727379444
C            0.91713425457407        0.22225464486888        0.01383757392189
C            0.11152325538187        1.38180355982951       -0.00657533874142
O            0.48809736058156        2.55754186496984       -0.00996005055001
N           -1.27302497243818        1.05123437941020       -0.03099018633182
C           -2.20119725703205        2.17628724282320       -0.03702979024067
C           -1.82162737692023       -0.19820636290563       -0.05168489776263
O           -3.01944280737586       -0.39178525793407       -0.07477702976515
N           -0.94034601722317       -1.30397380632057       -0.03727632150091
C           -1.46802122138024       -2.64924782224871       -0.05740452271929
H            3.71306117886898        1.22558016077028        1.06442362211138
H            4.00583497868248        1.03881023042255       -0.67982249598355
H            2.69128759279060        2.10053744531479       -0.09747960893798
H            3.57834312365688       -1.65050377873064        0.04315272613023
H           -1.65806222665932        3.12826429390906        0.04201242383393
H           -2.76901627569112        2.17582522839931       -0.96010312904386
H           -2.91159962022781        2.05910560413340        0.77889715840393
H           -1.16365982891524       -3.19999539683018        0.83621560406010
H           -1.13592508362773       -3.18381945533578       -0.95098948328505
H           -2.55365232748049       -2.56830094108568       -0.07364955890492
H            1.37082226684043       -2.94586756630973       -0.00928125159937
25
 energy: -4.917666902890 xtb: 6.6.1 (8d0f1dd)
C            3.23143778092851        1.17797494209317        0.07723607117613
N            2.30023761726080        0.10085470616463        0.03028927072206
C            2.60165544460295       -1.24245087734952        0.03312494164023
N            1.42043295329350       -1.94474587961080        0.00482941169452
C            0.39655948728974       -1.06897501057717       -0.00709478306507
C            0.91463628484854        0.21845175540599        0.01165130740067
C            0.10800623717322        1.37596509259573       -0.00907944320522
O            0.48326751814737        2.55263451227092       -0.01657477594320
N           -1.27947079635967        1.05089855280108       -0.02856504539295
C           -2.18535738359152        2.20051232866711       -0.02342045491658
C           -1.82852195168586       -0.20125482261090       -0.05439752246511
O           -3.02551122536701       -0.40020852439974       -0.07882282448312
N           -0.94300195305288       -1.30757943797735       -0.03756644821980
C           -1.46500731041317       -2.65617635714881       -0.05458462863598
H            3.70816941567670        1.23312107509691        1.06001936532170
H            4.00137670847920        1.04165253800831       -0.68449172310953
H            2.68337608551622        2.10061813539235       -0.10438085314729
H            3.57949328684840       -1.65390564099008        0.04460301670857
H           -1.65364887493591        3.16452925480738        0.11471335264945
H           -2.70884675354700        2.25720897395815       -0.96768324917641
H           -2.94623100319628        2.03868133551448        0.73804156997730
H           -1.15948280186990       -3.20435819456659        0.84065944635178
H           -1.12834089038359       -3.19319307154231       -0.94535480616802
H           -2.55089617421188       -2.58184029738305       -0.07319743336716
H            1.36876952154652       -2.94951272490058       -0.00383344542620
25
 energy: -3.588725110280 xtb: 6.6.1 (8d0f1dd)
C            3.22667446589861        1.18042711511824        0.07235303433482
N            2.29832126832812        0.10021082718114        0.02729751277808
C            2.60228281101802       -1.24461123489479        0.03381469417242
N            1.42006304845199       -1.94814160968566        0.00749043576303
C            0.39494572705086       -1.07355909292152       -0.00619637514335
C            0.91163519443748        0.21427090471843        0.00953835978817
C            0.10360332330864        1.36926052417531       -0.01170722710012
O            0.47811412998633        2.54631801668082       -0.02388299598947
N           -1.28719812416709        1.05059361741382       -0.02419496016579
C           -2.17143390181150        2.22391511651257       -0.00837139340141
C           -1.83569542776213       -0.20510599723582       -0.05530900898995
O           -3.03157990728991       -0.41013750013530       -0.08210276421826
N           -0.94583102034303       -1.31157852788376       -0.03732200673319
C           -1.46219945449491       -2.66342139870443       -0.05178624164720
H            3.70348643669766        1.24010009023238        1.05508240604874
H            3.99650261009320        1.04414016269392       -0.68961196456161
H            2.67584292145033        2.10100878607305       -0.11129182717600
H            3.58084538397999       -1.65646128016359        0.04633351374600
H           -1.64965786094147        3.19537280315271        0.19223979870214
H           -2.64402335269657        2.34060327968288       -0.97394944891423
H           -2.98045130133476        2.01789530811800        0.69365510467699
H           -1.15554241756474       -3.20944946758726        0.84482052498953
H           -1.12114677593080       -3.20242102141196       -0.94004662672805
H           -2.54831539012038       -2.59556482784384       -0.07270087254122
H            1.36827207678834       -2.95313212667017        0.00263315631624
25
 energy: -1.828862821315 xtb: 6.6.1 (8d0f1dd)
C            3.22070473950818        1.18262821597203        0.06776739133550
N            2.29574702584161        0.09904945300862        0.02383813249678
C            2.60254341613011       -1.24729824777686        0.03386870121203
N            1.41932205096855       -1.95191398336387        0.00936138371930
C            0.39311669757378       -1.07842882540822       -0.00503330710080
C            0.90815325505737        0.20970846742831        0.00771724930457
C            0.09881561805677        1.36239249760629       -0.01342585065084
O            0.47287305023729        2.53963887533115       -0.03024348844339
N           -1.29565681216007        1.05104328180333       -0.01728038709839
C           -2.15894649870041        2.24748971431673        0.00712091397469
C           -1.84288144936764       -0.20887609190884       -0.05366812373868
O           -3.03732079120331       -0.42071533648021       -0.08504970911433
N           -0.94877318387030       -1.31542481664414       -0.03594599882874
C           -1.45884559306694       -2.67045956056339       -0.04810388372345
H            3.69701664075138        1.24736345984554        1.05065916914655
H            3.99091886413921        1.04772095242049       -0.69416832590275
H            2.66612446775376        2.10053348296562       -0.11784969249703
H            3.58191653667803       -1.65949656579988        0.04754863389946
H           -1.64634254431310        3.22458907505164        0.26955606275520
H           -2.57885453936349        2.42107836705702       -0.97594661305288
H           -3.01164577807960        1.99934741042378        0.64638241294305
H           -1.15011041760847       -3.21347761672632        0.85001946352544
H           -1.11294352435534       -3.21088079712756       -0.93400589584627
H           -2.54517888643346       -2.60947959652936       -0.07109516343347
H            1.36772087750809       -2.95714800087117        0.00748016103289
25
 energy: 0.369678575086 xtb: 6.6.1 (8d0f1dd)
C            3.21430772255829        1.18471866457425        0.06296510273904
N            2.29247080458036        0.09805648655480        0.02021418461017
C            2.60294727734060       -1.24953965544286        0.03421663670311
N            1.41896668490614       -1.95562726099604        0.01080894403401
C            0.39128003600786       -1.08347139229544       -0.00416013146724
C            0.90401804935967        0.20526100788296        0.00590877575569
C            0.09304649279618        1.35593567692193       -0.01415876467255
O            0.46585277546825        2.53368949732844       -0.03380285205352
N           -1.30450234692961        1.05308095693739       -0.00864446361760
C           -2.14619142400706        2.27224832394287        0.02406203522911
C           -1.85003820733224       -0.21213961456768       -0.05109773835591
O           -3.04285194131699       -0.43206192287339       -0.08966026148114
N           -0.95174820510490       -1.31930293441744       -0.03460082893089
C           -1.45571719195606       -2.67760624720697       -0.04372947021215
H            3.68975461040318        1.25486795969296        1.04614930747142
H            3.98539565426718        1.05000370659307       -0.69820074652580
H            2.65680644851705        2.10020469375054       -0.12589147254869
H            3.58363307936355       -1.66079428927967        0.04967496338107
H           -1.64522642284393        3.25262492670227        0.34699054304705
H           -2.51459191583234        2.49830249484109       -0.97148088225209
H           -3.03587505075178        1.98690715381282        0.59762245315387
H           -1.14587540756223       -3.21711690306327        0.85664034602348
H           -1.10514078406874       -3.22087278555298       -0.92656150551098
H           -2.54213033592881       -2.62254939622423       -0.06923222273739
H            1.36868424472906       -2.96117229656747        0.01075352465769
25
 energy: 3.296188225262 xtb: 6.6.1 (8d0f1dd)
C            3.20953002055091        1.18614668834414        0.05709987430293
N            2.28980167253598        0.09689201529040        0.01547862762010
C            2.60339443911635       -1.25186988115056        0.03487580719239
N            1.41851139108006       -1.95906454638024        0.01395208801659
C            0.38975132974938       -1.08794073943958       -0.00374493659507
C            0.90033942558087        0.20132151018832        0.00307591971039
C            0.08717709940358        1.35032534365471       -0.01547966531035
O            0.45966440171983        2.52822525642165       -0.03997170393896
N           -1.31388271201727        1.05679783425264        0.00452961052876
C           -2.14062057544062        2.29705366592604        0.04350690986857
C           -1.85677809170944       -0.21436220614277       -0.04564808605720
O           -3.04750929897905       -0.44308702998334       -0.09135445839066
N           -0.95434153586108       -1.32264148910119       -0.03360337462050
C           -1.45233920859557       -2.68438114149397       -0.04055473275878
H            3.68460799878410        1.26092485868475        1.04039069880727
H            3.98146261490962        1.05189850010885       -0.70341360338147
H            2.65029185944049        2.10003142660299       -0.13410779577066
H            3.58552157732924       -1.66181033960339        0.05469251407669
H           -1.65617767358155        3.28793240344451        0.41633054475894
H           -2.44540062992579        2.57536340028100       -0.96406677490724
H           -3.06905612287384        1.98205287864717        0.54562543944118
H           -1.14081008638406       -3.22092159225387        0.86140056162389
H           -1.09753070698782       -3.23017191054383       -0.92060417711311
H           -2.53892020974487       -2.63656160154107       -0.06810582551569
H            1.36962258486764       -2.96489520492254        0.01815508950266
25
 energy: 6.432929328907 xtb: 6.6.1 (8d0f1dd)
C            3.20403601079682        1.18748577746323        0.05190571341885
N            2.28584087676696        0.09612506011372        0.01122745995642
C            2.60194632130560       -1.25330620384256        0.03564566828459
N            1.41725221257928       -1.96232174853270        0.01782280633543
C            0.38742439706578       -1.09227526578764       -0.00186723701646
C            0.89566745598072        0.19767576450241        0.00072057532830
C            0.08040320115573        1.34513789123538       -0.01786175687642
O            0.45249993768201        2.52314332850690       -0.05006593194221
N           -1.32267838858862        1.06008805303610        0.02157081018161
C           -2.13796034009835        2.32048816846931        0.06170772817568
C           -1.86366636076469       -0.21693223684088       -0.03722976763283
O           -3.05227831268000       -0.45403978023298       -0.09051179740257
N           -0.95745186466551       -1.32633889604740       -0.03081227283130
C           -1.44881830098320       -2.69160720817298       -0.03743660712293
H            3.67965682204643        1.26601607487232        1.03493882706037
H            3.97611549799775        1.05361458865859       -0.70859510831492
H            2.64354513714923        2.10025993615216       -0.14073053259494
H            3.58534010560601       -1.65878296593166        0.05728763768091
H           -1.67959230060795        3.31918765245752        0.48876534837404
H           -2.37366002571506        2.64821436975251       -0.95374421636438
H           -3.09789384367026        1.97695410791444        0.48905004041043
H           -1.13525543792227       -3.22665079376907        0.86512885700642
H           -1.08914879251731       -3.23785245717598       -0.91564035111804
H           -2.53554088984937       -2.65165559226905       -0.06729068586951
H            1.37150176507002       -2.96846459467910        0.02562372170472
25
 energy: 8.843606163012 xtb: 6.6.1 (8d0f1dd)
C            3.19801671879371        1.18859351442261        0.04686183439134
N            2.28166050182590        0.09486532716441        0.00740028759695
C            2.60024721694128       -1.25516612812182        0.03751433562046
N            1.41623700970391       -1.96608969097284        0.02148502828715
C            0.38532210191591       -1.09708759902007        0.00044782230820
C            0.89098293807683        0.19371712251040       -0.00095195378497
C            0.07372511614147        1.34021003666933       -0.01961428609038
O            0.44469534183050        2.51826024548353       -0.05925441258585
N           -1.32960154579051        1.05985385209389        0.03893802407922
C           -2.14766063411445        2.32723387885982        0.07351839137956
C           -1.86875050907151       -0.22132514443436       -0.02906159483730
O           -3.05561294613838       -0.46528827816301       -0.09068338352659
N           -0.95993870096842       -1.33126742304944       -0.02766105581146
C           -1.44518053246673       -2.69942279987775       -0.03409483096353
H            3.67436499372891        1.27155622250230        1.02947048687103
H            3.97006038266344        1.05553324897623       -0.71388211203352
H            2.63563426681230        2.09985593286865       -0.14738116156328
H            3.58488730752901       -1.65577426037407        0.05276044598393
H           -1.72858926946622        3.33591223604046        0.56280637000348
H           -2.30604350629274        2.71186977650513       -0.93792600482715
H           -3.12535826985855        1.96981280437066        0.43043086773225
H           -1.13049685877373       -3.23275554461726        0.86942329962930
H           -1.08019543563690       -3.24601075058398       -0.91018748917621
H           -2.53196801026820       -2.66649014908374       -0.06721676911702
H            1.37427342105071       -2.97253829481636        0.03165112953170
25
 energy: 12.297205299194 xtb: 6.6.1 (8d0f1dd)
C            3.19123628717184        1.18995628799620        0.04202422827872
N            2.27774598429217        0.09311701001758        0.00374789599808
C            2.59807278350337       -1.25765217056533        0.03968637917760
N            1.41461376810711       -1.97008095157616        0.02466404956738
C            0.38314134949612       -1.10181945166127        0.00187096162283
C            0.88699921458905        0.18953161249298       -0.00352765780224
C            0.06903306446596        1.33538778579884       -0.02282153850529
O            0.43942182769786        2.51340901799254       -0.06978737317403
N           -1.33356363624375        1.05852812928036        0.05716006573217
C           -2.15628204260176        2.32767514771230        0.07510253768510
C           -1.87218333731038       -0.22492874137279       -0.01865769265380
O           -3.05757203001368       -0.47450756817792       -0.08801405289145
N           -0.96234198803742       -1.33609338527234       -0.02483998448949
C           -1.44149765896008       -2.70685987860484       -0.03127311437655
H            3.66714307640532        1.27792067302404        1.02464866426947
H            3.96374124075953        1.05868843081024       -0.71857295203001
H            2.62596058722717        2.09905939210493       -0.15414370533671
H            3.58355318315865       -1.65421367033579        0.04875634784616
H           -1.79677170591725        3.36750712475381        0.59008042182041
H           -2.23389034051591        2.76138647963529       -0.92139689150198
H           -3.14678335123616        1.96577775528682        0.36965904207930
H           -1.12502054562477       -3.23811142901945        0.87308483208848
H           -1.07061623700278       -3.25309906857827       -0.90536871507071
H           -2.52839725121542       -2.68191190178375       -0.06784821337967
H            1.37584356228065       -2.97677015214539        0.03736108889739
25
 energy: 16.945550353950 xtb: 6.6.1 (8d0f1dd)
C            3.18605633657544        1.19031317070277        0.03755450229477
N            2.27413664578699        0.09104881396435        0.00166115387925
C            2.59557073720196       -1.26001968139047        0.04194165951607
N            1.41368159448304       -1.97418583888298        0.02712131828663
C            0.38138608332068       -1.10698209665752        0.00425374385206
C            0.88331082618894        0.18512300660115       -0.00400714430428
C            0.06344284598545        1.32908181389486       -0.02427563522615
O            0.43151908802814        2.50784895437573       -0.07756447985727
N           -1.33775996884377        1.05236683645686        0.07337465287105
C           -2.15789446556276        2.32518450831860        0.06665293074314
C           -1.87602388920709       -0.23215287548405       -0.00808242021532
O           -3.05981538092293       -0.48693480259751       -0.08501759600390
N           -0.96399142006667       -1.34246312535429       -0.02092531010711
C           -1.43778332739032       -2.71504709666699       -0.02889187233819
H            3.66259240316059        1.28281145209039        1.01965793255181
H            3.95872976225042        1.05936896606318       -0.72286801297466
H            2.61983490466533        2.09840928553815       -0.16083954572561
H            3.58247943986127       -1.65198507011480        0.04271104855622
H           -1.82082934772904        3.40620098246764        0.59008471210433
H           -2.15457636986360        2.79534015910234       -0.91186598583177
H           -3.16149514774454        1.97132366492231        0.30731109535062
H           -1.12047739701173       -3.24533403862283        0.87591090707777
H           -1.06199644238749       -3.25999781491559       -0.90183428007618
H           -2.52473603278847       -2.69582850787764       -0.06869613295718
H            1.37972045731362       -2.98108778668481        0.04042388108004
25
 energy: 23.989405947529 xtb: 6.6.1 (8d0f1dd)
C            3.17729991572329        1.19217682643955        0.03293203173868
N            2.26931360221258        0.08911977734920       -0.00190872079578
C            2.59248405021652       -1.26064429790803        0.04171492399889
N            1.41291812899131       -1.97840973252726        0.03035473737779
C            0.37946573190217       -1.11248837396216        0.00495037262128
C            0.87872442885859        0.18041917793715       -0.00731840178136
C            0.05769801329867        1.32394357494350       -0.02525888166336
O            0.42497932564707        2.50251120754108       -0.08761072346917
N           -1.34067379982881        1.04862174897095        0.09284382825333
C           -2.14739050990912        2.33859102245850        0.06635395286994
C           -1.87925692614358       -0.23873986600225       -0.00086753253140
O           -3.06150769775228       -0.49822238643674       -0.08592073118331
N           -0.96527737561305       -1.34878515817320       -0.01740760644937
C           -1.43342100401791       -2.72393720320773       -0.02512017843037
H            3.65267916328795        1.28992467961757        1.01523113257886
H            3.95096858787258        1.06405993447510       -0.72673004330244
H            2.60757682322256        2.09769764248174       -0.16774459562742
H            3.58060299990442       -1.64939107896626        0.03888879015060
H           -1.84144405502528        3.47231042718107        0.60248368503099
H           -2.05780541157193        2.82169539443741       -0.89603955221110
H           -3.16335753907899        1.98355266780596        0.24004139379023
H           -1.11500748496805       -3.25070935765991        0.88158545572855
H           -1.05171002362500       -3.27013361529137       -0.89493080184316
H           -2.52035005820984       -2.71188377757477       -0.06840205138183
H            1.38430469884877       -2.98533420697495        0.04591005132081
25
 energy: 32.531395226224 xtb: 6.6.1 (8d0f1dd)
C            3.17242787891263        1.19327609129123        0.02940268612366
N            2.26612263756536        0.08862560777430       -0.00428236979879
C            2.59082642802967       -1.25934511300224        0.03834620475530
N            1.41441756675422       -1.98073347232383        0.03166892188223
C            0.37934974168607       -1.11665312672873        0.00715881085256
C            0.87522055478499        0.17767920912348       -0.00809172255970
C            0.05213983292990        1.32035548139552       -0.02145616217084
O            0.41650852418798        2.49919151796570       -0.09413599032504
N           -1.34455585500731        1.04250929501448        0.11139929498968
C           -2.14877235755898        2.32949441267477        0.05195757076711
C           -1.87995663269534       -0.24488378510901        0.00631423147367
O           -3.06038802298785       -0.51164238041464       -0.08363133387299
N           -0.96428124800805       -1.35340219984623       -0.01006062625705
C           -1.42951775750423       -2.73048315092474       -0.02273583225025
H            3.64781373764651        1.29479710822440        1.01145867684037
H            3.94638895559422        1.06609508359123       -0.72967829960943
H            2.60191313468196        2.09764672196997       -0.17361420452061
H            3.57948925861359       -1.64588948894651        0.03491416355237
H           -1.86942568550871        3.54757462061665        0.60465082397808
H           -1.96618300320962        2.82205199612999       -0.88594732303184
H           -3.17212499450114        1.98232822575441        0.17201888619641
H           -1.11189918885618       -3.25671775446624        0.88473818595123
H           -1.04391106069952       -3.27656172195930       -0.89105170617404
H           -2.51650844887397       -2.72173661825168       -0.06912724966732
H            1.39130567543801       -2.98774399517343        0.04778524580706
25
 energy: 44.465861870204 xtb: 6.6.1 (8d0f1dd)
C            3.16608803605657        1.19502978309950        0.02579298754561
N            2.26276891558449        0.08822894859775       -0.00681839920769
C            2.58907181388050       -1.25740306863725        0.03413695940375
N            1.41595094983591       -1.98103151813021        0.02960158930794
C            0.37857452407952       -1.12009669626445        0.00677105714091
C            0.87169454569387        0.17564595214571       -0.00915452788680
C            0.04966416466625        1.31880771988018       -0.01574084345676
O            0.41012529984038        2.49808304360547       -0.09389003872141
N           -1.34699591497924        1.03680102876740        0.10888897703759
C           -2.15401732806810        2.30539518484167        0.03808013086686
C           -1.87935415938316       -0.25151800694880        0.00428272311006
O           -3.06008586525455       -0.51877519710743       -0.07769857129789
N           -0.96403454280296       -1.35933552021390       -0.00668866703763
C           -1.42491478761710       -2.73802911964665       -0.02077756860101
H            3.63963879133545        1.30075720291667        1.00836985933118
H            3.94097540739380        1.06872044170652       -0.73215058646067
H            2.59354186885994        2.09732630547094       -0.18031600878254
H            3.57763935054514       -1.64246809631565        0.03337310635687
H           -1.89152565484248        3.64221766223789        0.60354953296991
H           -1.88126565618502        2.82102212796800       -0.85257756288951
H           -3.18579554113538        1.97319685474871        0.10402107289515
H           -1.10516772203199       -3.26159692939952        0.88757847554594
H           -1.03497778554073       -3.28403102351261       -0.88715301208832
H           -2.51215637845474       -2.73500760222222       -0.06813657552960
H            1.39653942438340       -2.98801664952287        0.04815784779948
25
 energy: 66.219235362920 xtb: 6.6.1 (8d0f1dd)
C            3.15930617966595        1.19611752124536        0.02193218728527
N            2.25995700265926        0.08527907688653       -0.00874504394383
C            2.58600223069254       -1.25468993846156        0.02910354383993
N            1.41925210278771       -1.98062790523086        0.02526109513807
C            0.37654134493743       -1.12504492081459        0.00634870085477
C            0.86754836142902        0.17209908662645       -0.00858672795226
C            0.04410424065266        1.31393909953385       -0.01255921013399
O            0.40155066719112        2.49189048280184       -0.09365540579707
N           -1.35379333635319        1.01857772340529        0.09794836105765
C           -2.15746002789284        2.23655930584244       -0.00654748920457
C           -1.87995857212546       -0.27198440036835        0.00956547767636
O           -3.06173848468585       -0.53015589872230       -0.06627001761755
N           -0.96396286617939       -1.36846073903834       -0.00603057723923
C           -1.41964246096304       -2.74881928234201       -0.01930625135518
H            3.63021687269616        1.30711466103552        1.00502157506187
H            3.93458373188162        1.06987622932974       -0.73529798175963
H            2.58393542695504        2.09606168693694       -0.18725927777026
H            3.57554644781065       -1.64040647773268        0.02759939591507
H           -1.89783856145271        3.83087905332089        0.60516414100064
H           -1.77668097143490        2.83530951993822       -0.80021878854759
H           -3.20025616835395        1.96226557952701        0.03741460887622
H           -1.09882169931744       -3.26650729713750        0.89173505525226
H           -1.02385079949298       -3.29466634128912       -0.88276678264667
H           -2.50717353228079       -2.74996661006087       -0.06929675646163
H            1.40167295072474       -2.98749034258998        0.04193523341472
25