      -----------------------------------------------------------      
     |                   =====================                   |     
     |                           x T B                           |     
     |                   =====================                   |     
     |                         S. Grimme                         |     
     |          Mulliken Center for Theoretical Chemistry        |     
     |                    University of Bonn                     |     
      -----------------------------------------------------------      

   * xtb version 6.6.1 (8d0f1dd) compiled by 'conda@1efc2f54142f' on 2023-08-01

   xtb is free software: you can redistribute it and/or modify it under
   the terms of the GNU Lesser General Public License as published by
   the Free Software Foundation, either version 3 of the License, or
   (at your option) any later version.
   
   xtb is distributed in the hope that it will be useful,
   but WITHOUT ANY WARRANTY; without even the implied warranty of
   MERCHANTABILITY or FITNESS FOR A PARTICULAR PURPOSE.  See the
   GNU Lesser General Public License for more details.
   
   Cite this work as:
   * C. Bannwarth, E. Caldeweyher, S. Ehlert, A. Hansen, P. Pracht,
     J. Seibert, S. Spicher, S. Grimme, WIREs Comput. Mol. Sci., 2020, 11,
     e01493. DOI: 10.1002/wcms.1493
   
   for GFN2-xTB:
   * C. Bannwarth, S. Ehlert and S. Grimme., J. Chem. Theory Comput., 2019,
     15, 1652-1671. DOI: 10.1021/acs.jctc.8b01176
   for GFN1-xTB:
   * S. Grimme, C. Bannwarth, P. Shushkov, J. Chem. Theory Comput., 2017,
     13, 1989-2009. DOI: 10.1021/acs.jctc.7b00118
   for GFN0-xTB:
   * P. Pracht, E. Caldeweyher, S. Ehlert, S. Grimme, ChemRxiv, 2019, preprint.
     DOI: 10.26434/chemrxiv.8326202.v1
   for GFN-FF:
   * S. Spicher and S. Grimme, Angew. Chem. Int. Ed., 2020, 59, 15665-15673.
     DOI: 10.1002/anie.202004239
   
   for ALPB and GBSA implicit solvation:
   * S. Ehlert, M. Stahn, S. Spicher, S. Grimme, J. Chem. Theory Comput.,
     2021, 17, 4250-4261. DOI: 10.1021/acs.jctc.1c00471
   
   for DFT-D4:
   * E. Caldeweyher, C. Bannwarth and S. Grimme, J. Chem. Phys., 2017,
     147, 034112. DOI: 10.1063/1.4993215
   * E. Caldeweyher, S. Ehlert, A. Hansen, H. Neugebauer, S. Spicher,
     C. Bannwarth and S. Grimme, J. Chem. Phys., 2019, 150, 154122.
     DOI: 10.1063/1.5090222
   * E. Caldeweyher, J.-M. Mewes, S. Ehlert and S. Grimme, Phys. Chem. Chem. Phys.
     2020, 22, 8499-8512. DOI: 10.1039/D0CP00502A
   
   for sTDA-xTB:
   * S. Grimme and C. Bannwarth, J. Chem. Phys., 2016, 145, 054103.
     DOI: 10.1063/1.4959605
   
   in the mass-spec context:
   * V. Asgeirsson, C. Bauer and S. Grimme, Chem. Sci., 2017, 8, 4879.
     DOI: 10.1039/c7sc00601b
   * J. Koopman and S. Grimme, ACS Omega 2019, 4, 12, 15120-15133.
     DOI: 10.1021/acsomega.9b02011
   
   for metadynamics refer to:
   * S. Grimme, J. Chem. Theory Comput., 2019, 155, 2847-2862
     DOI: 10.1021/acs.jctc.9b00143
   
   for SPH calculations refer to:
   * S. Spicher and S. Grimme, J. Chem. Theory Comput., 2021, 17, 1701-1714
     DOI: 10.1021/acs.jctc.0c01306
   
   with help from (in alphabetical order)
   P. Atkinson, C. Bannwarth, F. Bohle, G. Brandenburg, E. Caldeweyher
   M. Checinski, S. Dohm, S. Ehlert, S. Ehrlich, I. Gerasimov, C. Hölzer
   A. Katbashev, J. Koopman, C. Lavigne, S. Lehtola, F. März, M. Müller,
   F. Musil, H. Neugebauer, J. Pisarek, C. Plett, P. Pracht, F. Pultar,
   J. Seibert, P. Shushkov, S. Spicher, M. Stahn, M. Steiner, T. Strunk,
   J. Stückrath, T. Rose, and J. Unsleber
   
 * started run on 2024/04/06 at 11:16:51.002     

           -------------------------------------------------
          |                Calculation Setup                |
           -------------------------------------------------

          program call               : xtb struc.xyz --opt loose --input .xc1 --gfn2
          hostname                   : n-62-30-23
          coordinate file            : struc.xyz
          omp threads                :                     1

   ID    Z sym.   atoms
    1    7 N      1, 17
    2    6 C      2-6, 8, 9, 11-16, 18-23, 25, 26, 28-33
    3    8 O      7, 10, 24, 27
    4    1 H      34-72
constraining bond 21 49 to    4.7133300 Å, actual value:    3.7183871 Å

           -------------------------------------------------
          |                 G F N 2 - x T B                 |
           -------------------------------------------------

        Reference                      10.1021/acs.jctc.8b01176
      * Hamiltonian:
        H0-scaling (s, p, d)           1.850000    2.230000    2.230000
        zeta-weighting                 0.500000
      * Dispersion:
        s8                             2.700000
        a1                             0.520000
        a2                             5.000000
        s9                             5.000000
      * Repulsion:
        kExp                           1.500000    1.000000
        rExp                           1.000000
      * Coulomb:
        alpha                          2.000000
        third order                    shell-resolved
        anisotropic                    true
        a3                             3.000000
        a5                             4.000000
        cn-shift                       1.200000
        cn-exp                         4.000000
        max-rad                        5.000000


          ...................................................
          :                      SETUP                      :
          :.................................................:
          :  # basis functions                 171          :
          :  # atomic orbitals                 171          :
          :  # shells                          105          :
          :  # electrons                       180          :
          :  max. iterations                   250          :
          :  Hamiltonian                  GFN2-xTB          :
          :  restarted?                      false          :
          :  GBSA solvation                  false          :
          :  PC potential                    false          :
          :  electronic temp.         5000.0000000     K    :
          :  accuracy                    1.0000000          :
          :  -> integral cutoff          0.2500000E+02      :
          :  -> integral neglect         0.1000000E-07      :
          :  -> SCF convergence          0.1000000E-05 Eh   :
          :  -> wf. convergence          0.1000000E-03 e    :
          :  Broyden damping             0.4000000          :
          ...................................................

 iter      E             dE          RMSdq      gap      omega  full diag
   1   -100.5973919 -0.100597E+03  0.374E+00    3.20       0.0  T
   2   -100.7362642 -0.138872E+00  0.221E+00    1.08       1.0  T
   3   -100.7049001  0.313641E-01  0.141E+00    3.29       1.0  T
   4   -100.7721690 -0.672689E-01  0.526E-01    1.50       1.0  T
   5   -100.7894292 -0.172602E-01  0.190E-01    1.98       1.0  T
   6   -100.7911978 -0.176856E-02  0.792E-02    1.77       1.0  T
   7   -100.7914750 -0.277198E-03  0.375E-02    1.83       1.0  T
   8   -100.7914914 -0.164582E-04  0.140E-02    1.83       1.0  T
   9   -100.7914976 -0.616739E-05  0.474E-03    1.82       2.5  T
  10   -100.7914988 -0.118227E-05  0.172E-03    1.82       6.8  T
  11   -100.7914989 -0.139928E-06  0.766E-04    1.82      15.4  T
  12   -100.7914989 -0.773143E-08  0.318E-04    1.82      37.0  T

   *** convergence criteria satisfied after 12 iterations ***

         #    Occupation            Energy/Eh            Energy/eV
      -------------------------------------------------------------
         1        2.0000           -0.8078051             -21.9815
       ...           ...                  ...                  ...
        84        1.9966           -0.5157491             -14.0342
        85        1.9959           -0.5128261             -13.9547
        86        1.9840           -0.4911498             -13.3649
        87        1.9795           -0.4872543             -13.2589
        88        1.9640           -0.4782114             -13.0128
        89        1.8920           -0.4602041             -12.5228
        90        1.8557           -0.4553147             -12.3897 (HOMO)
        91        0.3166           -0.3884132             -10.5693 (LUMO)
        92        0.0218           -0.3434697              -9.3463
        93        0.0041           -0.3169887              -8.6257
        94        0.0034           -0.3139726              -8.5436
        95        0.0029           -0.3112618              -8.4699
       ...           ...                  ...                  ...
       171                          0.5822580              15.8440
      -------------------------------------------------------------
                  HL-Gap            0.0669015 Eh            1.8205 eV
             Fermi-level           -0.4148687 Eh          -11.2892 eV

 SCC (total)                   0 d,  0 h,  0 min,  0.191 sec
 SCC setup                      ...        0 min,  0.001 sec (  0.618%)
 Dispersion                     ...        0 min,  0.002 sec (  0.894%)
 classical contributions        ...        0 min,  0.001 sec (  0.285%)
 integral evaluation            ...        0 min,  0.018 sec (  9.579%)
 iterations                     ...        0 min,  0.099 sec ( 51.901%)
 molecular gradient             ...        0 min,  0.070 sec ( 36.386%)
 printout                       ...        0 min,  0.001 sec (  0.329%)

         :::::::::::::::::::::::::::::::::::::::::::::::::::::
         ::                     SUMMARY                     ::
         :::::::::::::::::::::::::::::::::::::::::::::::::::::
         :: total energy             -99.580882757489 Eh    ::
         :: gradient norm              0.266794339419 Eh/a0 ::
         :: HOMO-LUMO gap              1.820481192090 eV    ::
         ::.................................................::
         :: SCC energy              -100.791498925389 Eh    ::
         :: -> isotropic ES            0.109302908418 Eh    ::
         :: -> anisotropic ES          0.005415138735 Eh    ::
         :: -> anisotropic XC          0.042392697176 Eh    ::
         :: -> dispersion             -0.075527661009 Eh    ::
         :: repulsion energy           1.386151658689 Eh    ::
         :: add. restraining          -0.176751843295 Eh    ::
         :: total charge               1.000000000108 e     ::
         :::::::::::::::::::::::::::::::::::::::::::::::::::::

      ----------------------------------------------------------- 
     |                   =====================                   |
     |                        A N C O P T                        |
     |                   =====================                   |
     |               Approximate Normal Coordinate               |
     |                Rational Function Optimizer                |
      ----------------------------------------------------------- 

          ...................................................
          :                      SETUP                      :
          :.................................................:
          :   optimization level             loose          :
          :   max. optcycles                   200          :
          :   ANC micro-cycles                  20          :
          :   degrees of freedom               210          :
          :.................................................:
          :   RF solver                   davidson          :
          :   write xtbopt.log                true          :
          :   linear?                        false          :
          :   energy convergence         0.5000000E-04 Eh   :
          :   grad. convergence          0.4000000E-02 Eh/α :
          :   maxmium RF displ.          1.0000000          :
          :   Hlow (freq-cutoff)         0.1000000E-01      :
          :   Hmax (freq-cutoff)         5.0000000          :
          :   S6 in model hess.         20.0000000          :
          ...................................................

generating ANC from model Hessian ...
Using Lindh-Hessian (1995)
 Shifting diagonal of input Hessian by    8.9210821361608794E-002
 Lowest  eigenvalues of input Hessian
    0.010000    0.000000    0.000000    0.000000    0.000000    0.000000
    0.000000    0.089298    0.089331    0.089492    0.089547    0.089572
    0.089889    0.090233    0.090487    0.090711    0.091182    0.091539
 Highest eigenvalues
    2.115176    2.122652    2.125169    2.258654    2.263906    2.266266


........................................................................
.............................. CYCLE    1 ..............................
........................................................................

 iter      E             dE          RMSdq      gap      omega  full diag
   1   -100.7914989 -0.100791E+03  0.114E-04    1.82       0.0  T
   2   -100.7914989 -0.678995E-10  0.713E-05    1.82     165.2  T
   3   -100.7914989  0.665210E-10  0.496E-05    1.82     237.5  T
     SCC iter.                  ...        0 min,  0.026 sec
     gradient                   ...        0 min,  0.069 sec
 * total energy  :   -99.5808828 Eh     change       -0.4035485E-08 Eh
   gradient norm :     0.2667943 Eh/α   predicted     0.0000000E+00 (-100.00%)
   displ. norm   :     0.9412666 α      lambda       -0.2248946E+00
   maximum displ.:     0.9153507 α      in ANC's #1, #51, #54, ...

........................................................................
.............................. CYCLE    2 ..............................
........................................................................

 iter      E             dE          RMSdq      gap      omega  full diag
   1   -100.7657853 -0.100766E+03  0.490E-01    1.84       0.0  T
   2   -100.7662929 -0.507565E-03  0.298E-01    1.91       1.0  T
   3   -100.7644079  0.188498E-02  0.169E-01    1.73       1.0  T
   4   -100.7663492 -0.194129E-02  0.619E-02    1.94       1.0  T
   5   -100.7667456 -0.396381E-03  0.108E-02    1.86       1.1  T
   6   -100.7667487 -0.317039E-05  0.532E-03    1.87       2.2  T
   7   -100.7667491 -0.400910E-06  0.217E-03    1.87       5.4  T
   8   -100.7667493 -0.166706E-06  0.660E-04    1.87      17.8  T
   9   -100.7667493 -0.621725E-08  0.310E-04    1.87      38.0  T
     SCC iter.                  ...        0 min,  0.073 sec
     gradient                   ...        0 min,  0.069 sec
 * total energy  :   -99.8438068 Eh     change       -0.2629241E+00 Eh
   gradient norm :     0.3346756 Eh/α   predicted    -0.2120814E+00 ( -19.34%)
   displ. norm   :     0.9661398 α      lambda       -0.3090498E+00
   maximum displ.:     0.9504774 α      in ANC's #1, #51, #54, ...

........................................................................
.............................. CYCLE    3 ..............................
........................................................................

 iter      E             dE          RMSdq      gap      omega  full diag
   1   -100.6661721 -0.100666E+03  0.476E-01    1.87       0.0  T
   2   -100.6670426 -0.870426E-03  0.294E-01    1.97       1.0  T
   3   -100.6658965  0.114607E-02  0.183E-01    1.81       1.0  T
   4   -100.6674639 -0.156743E-02  0.653E-02    1.98       1.0  T
   5   -100.6678787 -0.414824E-03  0.169E-02    1.90       1.0  T
   6   -100.6678971 -0.183491E-04  0.687E-03    1.92       1.7  T
   7   -100.6678981 -0.101788E-05  0.318E-03    1.91       3.7  T
   8   -100.6678985 -0.406029E-06  0.107E-03    1.91      11.0  T
   9   -100.6678985 -0.180197E-07  0.490E-04    1.91      24.1  T
  10   -100.6678985 -0.435321E-08  0.206E-04    1.91      57.1  T
     SCC iter.                  ...        0 min,  0.081 sec
     gradient                   ...        0 min,  0.069 sec
 * total energy  :  -100.1970161 Eh     change       -0.3532093E+00 Eh
   gradient norm :     0.4400633 Eh/α   predicted    -0.2987625E+00 ( -15.41%)
   displ. norm   :     0.9639797 α      lambda       -0.4027894E+00
   maximum displ.:     0.9456307 α      in ANC's #1, #183, #114, ...

........................................................................
.............................. CYCLE    4 ..............................
........................................................................

 iter      E             dE          RMSdq      gap      omega  full diag
   1   -100.5217332 -0.100522E+03  0.482E-01    1.89       0.0  T
   2   -100.5248559 -0.312264E-02  0.319E-01    2.12       1.0  T
   3   -100.5263982 -0.154234E-02  0.196E-01    1.85       1.0  T
   4   -100.5267014 -0.303180E-03  0.126E-01    2.10       1.0  T
   5   -100.5280564 -0.135505E-02  0.238E-02    1.97       1.0  T
   6   -100.5280811 -0.246881E-04  0.113E-02    1.98       1.0  T
   7   -100.5280883 -0.715378E-05  0.453E-03    1.97       2.6  T
   8   -100.5280894 -0.109025E-05  0.146E-03    1.97       8.1  T
   9   -100.5280894 -0.160999E-07  0.804E-04    1.97      14.7  T
  10   -100.5280894 -0.151916E-07  0.344E-04    1.97      34.3  T
     SCC iter.                  ...        0 min,  0.081 sec
     gradient                   ...        0 min,  0.069 sec
 * total energy  :  -100.6518134 Eh     change       -0.4547973E+00 Eh
   gradient norm :     0.5668503 Eh/α   predicted    -0.3885422E+00 ( -14.57%)
   displ. norm   :     0.9609098 α      lambda       -0.5176406E+00
   maximum displ.:     0.9324072 α      in ANC's #1, #114, #183, ...

........................................................................
.............................. CYCLE    5 ..............................
........................................................................

 iter      E             dE          RMSdq      gap      omega  full diag
   1   -100.4052413 -0.100405E+03  0.843E-01    1.32       0.0  T
   2   -100.4013888  0.385251E-02  0.572E-01    1.01       1.0  T
   3   -100.3749862  0.264026E-01  0.545E-01    1.27       1.0  T
   4   -100.4089355 -0.339493E-01  0.180E-01    1.23       1.0  T
   5   -100.4115778 -0.264230E-02  0.472E-02    1.26       1.0  T
   6   -100.4116469 -0.691424E-04  0.278E-02    1.25       1.0  T
   7   -100.4116650 -0.180829E-04  0.157E-02    1.26       1.0  T
   8   -100.4116739 -0.883869E-05  0.963E-03    1.25       1.2  T
   9   -100.4116825 -0.862405E-05  0.293E-03    1.25       4.0  T
  10   -100.4116830 -0.549888E-06  0.134E-03    1.26       8.8  T
  11   -100.4116831 -0.897178E-07  0.649E-04    1.25      18.1  T
  12   -100.4116831 -0.303096E-07  0.185E-04    1.25      63.8  T
     SCC iter.                  ...        0 min,  0.096 sec
     gradient                   ...        0 min,  0.069 sec
 * total energy  :  -101.2581280 Eh     change       -0.6063146E+00 Eh
   gradient norm :     0.7775245 Eh/α   predicted    -0.4978012E+00 ( -17.90%)
   displ. norm   :     0.9556489 α      lambda       -0.7134861E+00
   maximum displ.:     0.8945920 α      in ANC's #1, #114, #123, ...

........................................................................
.............................. CYCLE    6 ..............................
........................................................................

 iter      E             dE          RMSdq      gap      omega  full diag
   1   -100.3163110 -0.100316E+03  0.116E+00    0.05       0.0  T
   2   -100.1196289  0.196682E+00  0.155E+00    1.04       1.0  T
   3   -100.3690368 -0.249408E+00  0.519E-01    0.35       1.0  T
   4   -100.3893316 -0.202949E-01  0.331E-01    0.73       1.0  T
   5   -100.3952731 -0.594148E-02  0.101E-01    0.70       1.0  T
   6   -100.3958145 -0.541443E-03  0.538E-02    0.64       1.0  T
   7   -100.3960034 -0.188813E-03  0.197E-02    0.67       1.0  T
   8   -100.3960217 -0.183028E-04  0.111E-02    0.67       1.1  T
   9   -100.3960260 -0.431014E-05  0.776E-03    0.66       1.5  T
  10   -100.3960303 -0.436423E-05  0.290E-03    0.66       4.1  T
  11   -100.3960312 -0.828147E-06  0.830E-04    0.66      14.2  T
  12   -100.3960312  0.340435E-09  0.561E-04    0.66      21.0  T
     SCC iter.                  ...        0 min,  0.096 sec
     gradient                   ...        0 min,  0.069 sec
 * total energy  :  -101.4489466 Eh     change       -0.1908185E+00 Eh
   gradient norm :     2.3643261 Eh/α   predicted    -0.6825442E+00 ( 257.69%)
   displ. norm   :     0.4837027 α      lambda       -0.1121552E+01
   maximum displ.:     0.3401845 α      in ANC's #1, #201, #145, ...

........................................................................
.............................. CYCLE    7 ..............................
........................................................................

 iter      E             dE          RMSdq      gap      omega  full diag
   1   -100.4325523 -0.100433E+03  0.423E-01    1.02       0.0  T
   2   -100.3945932  0.379591E-01  0.700E-01    0.25       1.0  T
   3   -100.4398635 -0.452703E-01  0.208E-01    0.92       1.0  T
   4   -100.4411234 -0.125993E-02  0.145E-01    0.74       1.0  T
   5   -100.4419682 -0.844834E-03  0.806E-02    0.78       1.0  T
   6   -100.4425051 -0.536829E-03  0.224E-02    0.80       1.0  T
   7   -100.4425482 -0.431522E-04  0.782E-03    0.78       1.5  T
   8   -100.4425512 -0.292360E-05  0.375E-03    0.79       3.1  T
   9   -100.4425515 -0.375273E-06  0.175E-03    0.79       6.7  T
  10   -100.4425518 -0.273003E-06  0.691E-04    0.79      17.0  T
  11   -100.4425518 -0.122289E-07  0.288E-04    0.79      40.9  T
     SCC iter.                  ...        0 min,  0.089 sec
     gradient                   ...        0 min,  0.075 sec
 * total energy  :  -101.6287612 Eh     change       -0.1798146E+00 Eh
   gradient norm :     0.6802967 Eh/α   predicted    -0.6919809E+00 ( 284.83%)
   displ. norm   :     0.5680891 α      lambda       -0.1809361E+00
   maximum displ.:     0.1786547 α      in ANC's #82, #51, #81, ...

........................................................................
.............................. CYCLE    8 ..............................
........................................................................

 iter      E             dE          RMSdq      gap      omega  full diag
   1   -100.5471572 -0.100547E+03  0.359E-01    0.69       0.0  T
   2   -100.5467500  0.407105E-03  0.235E-01    0.83       1.0  T
   3   -100.5384183  0.833179E-02  0.324E-01    0.47       1.0  T
   4   -100.5472854 -0.886710E-02  0.949E-02    0.80       1.0  T
   5   -100.5480364 -0.751016E-03  0.461E-02    0.73       1.0  T
   6   -100.5481998 -0.163405E-03  0.170E-02    0.73       1.0  T
   7   -100.5482120 -0.122596E-04  0.112E-02    0.74       1.1  T
   8   -100.5482237 -0.116123E-04  0.259E-03    0.74       4.6  T
   9   -100.5482240 -0.351208E-06  0.114E-03    0.74      10.3  T
  10   -100.5482240 -0.427814E-07  0.733E-04    0.74      16.1  T
  11   -100.5482241 -0.263360E-07  0.264E-04    0.74      44.7  T
     SCC iter.                  ...        0 min,  0.089 sec
     gradient                   ...        0 min,  0.069 sec
 * total energy  :  -101.7579790 Eh     change       -0.1292178E+00 Eh
   gradient norm :     0.6161441 Eh/α   predicted    -0.1196647E+00 (  -7.39%)
   displ. norm   :     0.6936931 α      lambda       -0.2779754E+00
   maximum displ.:     0.4805409 α      in ANC's #1, #145, #21, ...

........................................................................
.............................. CYCLE    9 ..............................
........................................................................

 iter      E             dE          RMSdq      gap      omega  full diag
   1   -100.5887413 -0.100589E+03  0.570E-01    0.36       0.0  T
   2   -100.5519069  0.368344E-01  0.723E-01    1.27       1.0  T
   3   -100.5963203 -0.444134E-01  0.313E-01    0.43       1.0  T
   4   -100.6002019 -0.388154E-02  0.161E-01    0.69       1.0  T
   5   -100.6023067 -0.210486E-02  0.481E-02    0.61       1.0  T
   6   -100.6024558 -0.149076E-03  0.131E-02    0.62       1.0  T
   7   -100.6024693 -0.135181E-04  0.888E-03    0.63       1.3  T
   8   -100.6024745 -0.518452E-05  0.267E-03    0.63       4.4  T
   9   -100.6024749 -0.400339E-06  0.971E-04    0.63      12.1  T
  10   -100.6024750 -0.617363E-07  0.322E-04    0.63      36.6  T
     SCC iter.                  ...        0 min,  0.081 sec
     gradient                   ...        0 min,  0.072 sec
 * total energy  :  -101.8411634 Eh     change       -0.8318443E-01 Eh
   gradient norm :     0.8605413 Eh/α   predicted    -0.2058716E+00 ( 147.49%)
   displ. norm   :     0.3083477 α      lambda       -0.1627259E+00
   maximum displ.:     0.0941086 α      in ANC's #82, #122, #112, ...

........................................................................
.............................. CYCLE   10 ..............................
........................................................................

 iter      E             dE          RMSdq      gap      omega  full diag
   1   -100.6336956 -0.100634E+03  0.251E-01    0.80       0.0  T
   2   -100.6263236  0.737194E-02  0.328E-01    0.42       1.0  T
   3   -100.6351665 -0.884287E-02  0.139E-01    0.77       1.0  T
   4   -100.6355545 -0.387994E-03  0.904E-02    0.64       1.0  T
   5   -100.6361084 -0.553863E-03  0.414E-02    0.68       1.0  T
   6   -100.6362316 -0.123275E-03  0.189E-02    0.69       1.0  T
   7   -100.6362753 -0.436284E-04  0.282E-03    0.68       4.2  T
   8   -100.6362753 -0.436180E-07  0.133E-03    0.68       8.9  T
   9   -100.6362754 -0.116388E-06  0.430E-04    0.68      27.4  T
  10   -100.6362754 -0.151438E-07  0.138E-04    0.68      85.2  T
     SCC iter.                  ...        0 min,  0.081 sec
     gradient                   ...        0 min,  0.069 sec
 * total energy  :  -101.9029826 Eh     change       -0.6181914E-01 Eh
   gradient norm :     0.2698177 Eh/α   predicted    -0.8909879E-01 (  44.13%)
   displ. norm   :     0.3171001 α      lambda       -0.2945101E-01
   maximum displ.:     0.1000854 α      in ANC's #1, #123, #82, ...

........................................................................
.............................. CYCLE   11 ..............................
........................................................................

 iter      E             dE          RMSdq      gap      omega  full diag
   1   -100.6614771 -0.100661E+03  0.181E-01    0.70       0.0  T
   2   -100.6610501  0.426924E-03  0.130E-01    0.69       1.0  T
   3   -100.6601537  0.896407E-03  0.144E-01    0.69       1.0  T
   4   -100.6616073 -0.145357E-02  0.316E-02    0.71       1.0  T
   5   -100.6616791 -0.718248E-04  0.160E-02    0.68       1.0  T
   6   -100.6617068 -0.276512E-04  0.481E-03    0.70       2.5  T
   7   -100.6617083 -0.153579E-05  0.188E-03    0.69       6.3  T
   8   -100.6617083 -0.433225E-07  0.907E-04    0.69      13.0  T
   9   -100.6617084 -0.665456E-07  0.301E-04    0.69      39.1  T
     SCC iter.                  ...        0 min,  0.073 sec
     gradient                   ...        0 min,  0.069 sec
 * total energy  :  -101.9264390 Eh     change       -0.2345637E-01 Eh
   gradient norm :     0.1698909 Eh/α   predicted    -0.1620621E-01 ( -30.91%)
   displ. norm   :     0.4538921 α      lambda       -0.2813316E-01
   maximum displ.:     0.1168661 α      in ANC's #1, #82, #123, ...

........................................................................
.............................. CYCLE   12 ..............................
........................................................................

 iter      E             dE          RMSdq      gap      omega  full diag
   1   -100.6847033 -0.100685E+03  0.218E-01    0.76       0.0  T
   2   -100.6841154  0.587896E-03  0.151E-01    0.68       1.0  T
   3   -100.6813793  0.273615E-02  0.181E-01    0.85       1.0  T
   4   -100.6849508 -0.357154E-02  0.239E-02    0.72       1.0  T
   5   -100.6849608 -0.995160E-05  0.192E-02    0.74       1.0  T
   6   -100.6849946 -0.338414E-04  0.360E-03    0.73       3.3  T
   7   -100.6849950 -0.394291E-06  0.188E-03    0.73       6.3  T
   8   -100.6849951 -0.111825E-06  0.790E-04    0.73      14.9  T
   9   -100.6849951 -0.199439E-07  0.404E-04    0.73      29.2  T
     SCC iter.                  ...        0 min,  0.073 sec
     gradient                   ...        0 min,  0.069 sec
 * total energy  :  -101.9463934 Eh     change       -0.1995442E-01 Eh
   gradient norm :     0.0777547 Eh/α   predicted    -0.1696456E-01 ( -14.98%)
   displ. norm   :     0.4227482 α      lambda       -0.1432423E-01
   maximum displ.:     0.1121545 α      in ANC's #80, #36, #41, ...

........................................................................
.............................. CYCLE   13 ..............................
........................................................................

 iter      E             dE          RMSdq      gap      omega  full diag
   1   -100.6981955 -0.100698E+03  0.172E-01    0.80       0.0  T
   2   -100.6978350  0.360529E-03  0.117E-01    0.70       1.0  T
   3   -100.6961427  0.169233E-02  0.147E-01    0.91       1.0  T
   4   -100.6982867 -0.214406E-02  0.324E-02    0.75       1.0  T
   5   -100.6983680 -0.812538E-04  0.123E-02    0.77       1.0  T
   6   -100.6983788 -0.108601E-04  0.552E-03    0.77       2.1  T
   7   -100.6983809 -0.209279E-05  0.191E-03    0.77       6.2  T
   8   -100.6983811 -0.113022E-06  0.766E-04    0.77      15.4  T
   9   -100.6983811 -0.134290E-07  0.361E-04    0.77      32.7  T
     SCC iter.                  ...        0 min,  0.073 sec
     gradient                   ...        0 min,  0.070 sec
 * total energy  :  -101.9571570 Eh     change       -0.1076358E-01 Eh
   gradient norm :     0.1051180 Eh/α   predicted    -0.8442106E-02 ( -21.57%)
   displ. norm   :     0.4849320 α      lambda       -0.1361111E-01
   maximum displ.:     0.1464096 α      in ANC's #80, #36, #41, ...

........................................................................
.............................. CYCLE   14 ..............................
........................................................................

 iter      E             dE          RMSdq      gap      omega  full diag
   1   -100.7027323 -0.100703E+03  0.174E-01    0.82       0.0  T
   2   -100.7026026  0.129710E-03  0.113E-01    0.76       1.0  T
   3   -100.7016528  0.949774E-03  0.130E-01    0.90       1.0  T
   4   -100.7025967 -0.943850E-03  0.539E-02    0.76       1.0  T
   5   -100.7028980 -0.301268E-03  0.575E-03    0.80       2.1  T
   6   -100.7028994 -0.146164E-05  0.217E-03    0.80       5.4  T
   7   -100.7028995 -0.857199E-07  0.982E-04    0.80      12.0  T
   8   -100.7028995 -0.230928E-07  0.460E-04    0.80      25.6  T
     SCC iter.                  ...        0 min,  0.065 sec
     gradient                   ...        0 min,  0.069 sec
 * total energy  :  -101.9660615 Eh     change       -0.8904588E-02 Eh
   gradient norm :     0.0537336 Eh/α   predicted    -0.8405947E-02 (  -5.60%)
   displ. norm   :     0.4556681 α      lambda       -0.8758863E-02
   maximum displ.:     0.1252401 α      in ANC's #40, #36, #80, ...

........................................................................
.............................. CYCLE   15 ..............................
........................................................................

 iter      E             dE          RMSdq      gap      omega  full diag
   1   -100.7049885 -0.100705E+03  0.149E-01    0.84       0.0  T
   2   -100.7049922 -0.370945E-05  0.880E-02    0.81       1.0  T
   3   -100.7044940  0.498147E-03  0.884E-02    0.89       1.0  T
   4   -100.7049311 -0.437103E-03  0.353E-02    0.79       1.0  T
   5   -100.7050672 -0.136091E-03  0.577E-03    0.83       2.0  T
   6   -100.7050691 -0.186878E-05  0.214E-03    0.82       5.5  T
   7   -100.7050691  0.366842E-07  0.116E-03    0.82      10.2  T
   8   -100.7050691 -0.444753E-07  0.727E-04    0.82      16.2  T
   9   -100.7050691 -0.435119E-07  0.274E-04    0.82      43.1  T
     SCC iter.                  ...        0 min,  0.073 sec
     gradient                   ...        0 min,  0.069 sec
 * total energy  :  -101.9690667 Eh     change       -0.3005204E-02 Eh
   gradient norm :     0.1604164 Eh/α   predicted    -0.5288755E-02 (  75.99%)
   displ. norm   :     0.1464972 α      lambda       -0.6828971E-02
   maximum displ.:     0.0421682 α      in ANC's #11, #31, #51, ...

........................................................................
.............................. CYCLE   16 ..............................
........................................................................

 iter      E             dE          RMSdq      gap      omega  full diag
   1   -100.7113192 -0.100711E+03  0.702E-02    0.80       0.0  T
   2   -100.7111344  0.184790E-03  0.618E-02    0.86       1.0  T
   3   -100.7112026 -0.681560E-04  0.527E-02    0.78       1.0  T
   4   -100.7113876 -0.185058E-03  0.971E-03    0.82       1.2  T
   5   -100.7113935 -0.585898E-05  0.284E-03    0.82       4.1  T
   6   -100.7113940 -0.541187E-06  0.178E-03    0.82       6.6  T
   7   -100.7113943 -0.258535E-06  0.117E-03    0.82      10.1  T
   8   -100.7113944 -0.837583E-07  0.364E-04    0.82      32.4  T
   9   -100.7113944 -0.418770E-08  0.172E-04    0.82      68.6  T
     SCC iter.                  ...        0 min,  0.072 sec
     gradient                   ...        0 min,  0.073 sec
 * total energy  :  -101.9736019 Eh     change       -0.4535179E-02 Eh
   gradient norm :     0.0355528 Eh/α   predicted    -0.3487772E-02 ( -23.10%)
   displ. norm   :     0.3039284 α      lambda       -0.3609906E-02
   maximum displ.:     0.0884601 α      in ANC's #11, #36, #40, ...

........................................................................
.............................. CYCLE   17 ..............................
........................................................................

 iter      E             dE          RMSdq      gap      omega  full diag
   1   -100.7180733 -0.100718E+03  0.941E-02    0.80       0.0  T
   2   -100.7176818  0.391516E-03  0.883E-02    0.86       1.0  T
   3   -100.7179974 -0.315614E-03  0.643E-02    0.79       1.0  T
   4   -100.7181814 -0.183970E-03  0.192E-02    0.84       1.0  T
   5   -100.7182167 -0.353144E-04  0.101E-02    0.81       1.2  T
   6   -100.7182290 -0.123362E-04  0.189E-03    0.82       6.2  T
   7   -100.7182292 -0.190246E-06  0.981E-04    0.82      12.0  T
   8   -100.7182292 -0.328917E-07  0.416E-04    0.82      28.3  T
     SCC iter.                  ...        0 min,  0.065 sec
     gradient                   ...        0 min,  0.069 sec
 * total energy  :  -101.9763312 Eh     change       -0.2729248E-02 Eh
   gradient norm :     0.0243273 Eh/α   predicted    -0.1971708E-02 ( -27.76%)
   displ. norm   :     0.4012646 α      lambda       -0.3512621E-02
   maximum displ.:     0.1307255 α      in ANC's #11, #36, #25, ...

........................................................................
.............................. CYCLE   18 ..............................
........................................................................

 iter      E             dE          RMSdq      gap      omega  full diag
   1   -100.7240225 -0.100724E+03  0.117E-01    0.81       0.0  T
   2   -100.7230521  0.970343E-03  0.130E-01    0.86       1.0  T
   3   -100.7242185 -0.116639E-02  0.664E-02    0.80       1.0  T
   4   -100.7242869 -0.683870E-04  0.299E-02    0.85       1.0  T
   5   -100.7243927 -0.105840E-03  0.106E-02    0.81       1.1  T
   6   -100.7244045 -0.117580E-04  0.237E-03    0.82       5.0  T
   7   -100.7244047 -0.259710E-06  0.123E-03    0.82       9.5  T
   8   -100.7244048 -0.618813E-07  0.399E-04    0.82      29.5  T
   9   -100.7244048 -0.722555E-08  0.180E-04    0.82      65.4  T
     SCC iter.                  ...        0 min,  0.073 sec
     gradient                   ...        0 min,  0.070 sec
 * total energy  :  -101.9790349 Eh     change       -0.2703749E-02 Eh
   gradient norm :     0.0179761 Eh/α   predicted    -0.2039126E-02 ( -24.58%)
   displ. norm   :     0.4424829 α      lambda       -0.3189389E-02
   maximum displ.:     0.1634202 α      in ANC's #11, #25, #36, ...

........................................................................
.............................. CYCLE   19 ..............................
........................................................................

 iter      E             dE          RMSdq      gap      omega  full diag
   1   -100.7282022 -0.100728E+03  0.129E-01    0.81       0.0  T
   2   -100.7267360  0.146620E-02  0.157E-01    0.86       1.0  T
   3   -100.7286421 -0.190611E-02  0.638E-02    0.81       1.0  T
   4   -100.7286670 -0.248927E-04  0.315E-02    0.86       1.0  T
   5   -100.7287791 -0.112088E-03  0.985E-03    0.82       1.2  T
   6   -100.7287885 -0.940366E-05  0.296E-03    0.83       4.0  T
   7   -100.7287888 -0.334067E-06  0.143E-03    0.82       8.3  T
   8   -100.7287889 -0.731899E-07  0.439E-04    0.82      26.8  T
   9   -100.7287889 -0.624576E-08  0.183E-04    0.82      64.5  T
     SCC iter.                  ...        0 min,  0.073 sec
     gradient                   ...        0 min,  0.069 sec
 * total energy  :  -101.9814129 Eh     change       -0.2377999E-02 Eh
   gradient norm :     0.0240628 Eh/α   predicted    -0.1906931E-02 ( -19.81%)
   displ. norm   :     0.4071320 α      lambda       -0.2528234E-02
   maximum displ.:     0.1652510 α      in ANC's #11, #41, #27, ...

........................................................................
.............................. CYCLE   20 ..............................
........................................................................

 iter      E             dE          RMSdq      gap      omega  full diag
   1   -100.7297495 -0.100730E+03  0.108E-01    0.82       0.0  T
   2   -100.7287579  0.991601E-03  0.132E-01    0.86       1.0  T
   3   -100.7300566 -0.129870E-02  0.518E-02    0.82       1.0  T
   4   -100.7300873 -0.307020E-04  0.230E-02    0.85       1.0  T
   5   -100.7301406 -0.533767E-04  0.732E-03    0.82       1.6  T
   6   -100.7301456 -0.491429E-05  0.267E-03    0.83       4.4  T
   7   -100.7301459 -0.308401E-06  0.128E-03    0.83       9.2  T
   8   -100.7301459 -0.832916E-07  0.350E-04    0.83      33.7  T
   9   -100.7301459 -0.458833E-08  0.158E-04    0.83      74.8  T
     SCC iter.                  ...        0 min,  0.072 sec
     gradient                   ...        0 min,  0.071 sec
 * total energy  :  -101.9833763 Eh     change       -0.1963400E-02 Eh
   gradient norm :     0.0228125 Eh/α   predicted    -0.1473665E-02 ( -24.94%)
   displ. norm   :     0.4600110 α      lambda       -0.2585147E-02
   maximum displ.:     0.1970619 α      in ANC's #11, #41, #27, ...
 * RMSD in coord.:     0.7998555 α      energy gain  -0.2402494E+01 Eh

generating ANC from model Hessian ...
Using Lindh-Hessian (1995)
 Shifting diagonal of input Hessian by    9.9553349233152833E-003
 Lowest  eigenvalues of input Hessian
    0.000000    0.000000    0.000000    0.000000    0.000000    0.000000
    0.010000    0.010087    0.010217    0.010293    0.010341    0.010547
    0.010774    0.010889    0.010956    0.011555    0.012210    0.012640
 Highest eigenvalues
    2.103191    2.119101    2.151874    2.181191    2.374375    2.408080


........................................................................
.............................. CYCLE   21 ..............................
........................................................................

 iter      E             dE          RMSdq      gap      omega  full diag
   1   -100.7280381 -0.100728E+03  0.102E-01    0.82       0.0  T
   2   -100.7274537  0.584356E-03  0.110E-01    0.87       1.0  T
   3   -100.7281668 -0.713067E-03  0.554E-02    0.82       1.0  T
   4   -100.7282455 -0.787096E-04  0.182E-02    0.85       1.0  T
   5   -100.7282752 -0.296850E-04  0.697E-03    0.83       1.7  T
   6   -100.7282797 -0.447743E-05  0.242E-03    0.84       4.9  T
   7   -100.7282800 -0.286894E-06  0.128E-03    0.83       9.2  T
   8   -100.7282801 -0.101852E-06  0.337E-04    0.83      34.9  T
   9   -100.7282801 -0.295195E-08  0.159E-04    0.83      74.2  T
     SCC iter.                  ...        0 min,  0.073 sec
     gradient                   ...        0 min,  0.069 sec
 * total energy  :  -101.9854137 Eh     change       -0.2037394E-02 Eh
   gradient norm :     0.0270122 Eh/α   predicted     0.0000000E+00 (-100.00%)
   displ. norm   :     0.3212420 α      lambda       -0.2825375E-02
   maximum displ.:     0.1432398 α      in ANC's #22, #11, #12, ...

........................................................................
.............................. CYCLE   22 ..............................
........................................................................

 iter      E             dE          RMSdq      gap      omega  full diag
   1   -100.7295751 -0.100730E+03  0.743E-02    0.86       0.0  T
   2   -100.7295810 -0.587962E-05  0.435E-02    0.85       1.0  T
   3   -100.7294905  0.905434E-04  0.329E-02    0.88       1.0  T
   4   -100.7295666 -0.761179E-04  0.150E-02    0.84       1.0  T
   5   -100.7295880 -0.213819E-04  0.316E-03    0.85       3.7  T
   6   -100.7295888 -0.828929E-06  0.118E-03    0.85      10.0  T
   7   -100.7295888 -0.126391E-08  0.118E-03    0.85      10.0  T
   8   -100.7295889 -0.934820E-07  0.298E-04    0.85      39.5  T
   9   -100.7295889 -0.356573E-08  0.125E-04    0.85      94.1  T
     SCC iter.                  ...        0 min,  0.073 sec
     gradient                   ...        0 min,  0.071 sec
 * total energy  :  -101.9875245 Eh     change       -0.2110834E-02 Eh
   gradient norm :     0.0381417 Eh/α   predicted    -0.1559588E-02 ( -26.12%)
   displ. norm   :     0.6191887 α      lambda       -0.3942405E-02
   maximum displ.:     0.2766629 α      in ANC's #22, #11, #12, ...

........................................................................
.............................. CYCLE   23 ..............................
........................................................................

 iter      E             dE          RMSdq      gap      omega  full diag
   1   -100.7272767 -0.100727E+03  0.130E-01    0.89       0.0  T
   2   -100.7272884 -0.117350E-04  0.770E-02    0.87       1.0  T
   3   -100.7269442  0.344206E-03  0.632E-02    0.94       1.0  T
   4   -100.7272539 -0.309668E-03  0.248E-02    0.86       1.0  T
   5   -100.7273161 -0.622197E-04  0.536E-03    0.89       2.2  T
   6   -100.7273186 -0.244594E-05  0.179E-03    0.88       6.6  T
   7   -100.7273186  0.199248E-07  0.183E-03    0.88       6.5  T
   8   -100.7273187 -0.193606E-06  0.555E-04    0.88      21.2  T
   9   -100.7273188 -0.156843E-07  0.232E-04    0.88      50.7  T
     SCC iter.                  ...        0 min,  0.073 sec
     gradient                   ...        0 min,  0.069 sec
 * total energy  :  -101.9895540 Eh     change       -0.2029467E-02 Eh
   gradient norm :     0.0454770 Eh/α   predicted    -0.2727042E-02 (  34.37%)
   displ. norm   :     0.3806656 α      lambda       -0.1767895E-02
   maximum displ.:     0.1857689 α      in ANC's #11, #12, #22, ...

........................................................................
.............................. CYCLE   24 ..............................
........................................................................

 iter      E             dE          RMSdq      gap      omega  full diag
   1   -100.7289544 -0.100729E+03  0.669E-02    0.89       0.0  T
   2   -100.7288588  0.956803E-04  0.544E-02    0.90       1.0  T
   3   -100.7289223 -0.635027E-04  0.424E-02    0.89       1.0  T
   4   -100.7290036 -0.812846E-04  0.728E-03    0.89       1.6  T
   5   -100.7290084 -0.486355E-05  0.219E-03    0.89       5.4  T
   6   -100.7290088 -0.345069E-06  0.129E-03    0.89       9.2  T
   7   -100.7290088 -0.613771E-07  0.843E-04    0.89      14.0  T
   8   -100.7290089 -0.557230E-07  0.279E-04    0.89      42.2  T
     SCC iter.                  ...        0 min,  0.065 sec
     gradient                   ...        0 min,  0.069 sec
 * total energy  :  -101.9909066 Eh     change       -0.1352589E-02 Eh
   gradient norm :     0.0144778 Eh/α   predicted    -0.1012040E-02 ( -25.18%)
   displ. norm   :     0.4956767 α      lambda       -0.1686855E-02
   maximum displ.:     0.2571017 α      in ANC's #11, #12, #22, ...

........................................................................
.............................. CYCLE   25 ..............................
........................................................................

 iter      E             dE          RMSdq      gap      omega  full diag
   1   -100.7326993 -0.100733E+03  0.980E-02    0.89       0.0  T
   2   -100.7322276  0.471700E-03  0.102E-01    0.91       1.0  T
   3   -100.7328620 -0.634416E-03  0.486E-02    0.89       1.0  T
   4   -100.7329318 -0.698156E-04  0.969E-03    0.89       1.2  T
   5   -100.7329403 -0.845229E-05  0.374E-03    0.90       3.2  T
   6   -100.7329409 -0.594834E-06  0.252E-03    0.89       4.7  T
   7   -100.7329413 -0.406750E-06  0.120E-03    0.90       9.8  T
   8   -100.7329414 -0.922597E-07  0.322E-04    0.89      36.6  T
   9   -100.7329414 -0.453362E-08  0.143E-04    0.89      82.3  T
     SCC iter.                  ...        0 min,  0.072 sec
     gradient                   ...        0 min,  0.069 sec
 * total energy  :  -101.9921819 Eh     change       -0.1275344E-02 Eh
   gradient norm :     0.0253779 Eh/α   predicted    -0.1050656E-02 ( -17.62%)
   displ. norm   :     0.5233872 α      lambda       -0.1240808E-02
   maximum displ.:     0.2743295 α      in ANC's #11, #12, #22, ...

........................................................................
.............................. CYCLE   26 ..............................
........................................................................

 iter      E             dE          RMSdq      gap      omega  full diag
   1   -100.7333089 -0.100733E+03  0.100E-01    0.89       0.0  T
   2   -100.7327818  0.527152E-03  0.106E-01    0.90       1.0  T
   3   -100.7335102 -0.728443E-03  0.482E-02    0.89       1.0  T
   4   -100.7335674 -0.571698E-04  0.136E-02    0.88       1.0  T
   5   -100.7335852 -0.177932E-04  0.510E-03    0.90       2.3  T
   6   -100.7335873 -0.209359E-05  0.215E-03    0.89       5.5  T
   7   -100.7335875 -0.233857E-06  0.983E-04    0.89      12.0  T
   8   -100.7335876 -0.455672E-07  0.302E-04    0.89      39.0  T
     SCC iter.                  ...        0 min,  0.064 sec
     gradient                   ...        0 min,  0.069 sec
 * total energy  :  -101.9931380 Eh     change       -0.9560384E-03 Eh
   gradient norm :     0.0206411 Eh/α   predicted    -0.7903635E-03 ( -17.33%)
   displ. norm   :     0.4511500 α      lambda       -0.1017787E-02
   maximum displ.:     0.2372912 α      in ANC's #11, #12, #6, ...

........................................................................
.............................. CYCLE   27 ..............................
........................................................................

 iter      E             dE          RMSdq      gap      omega  full diag
   1   -100.7354079 -0.100735E+03  0.945E-02    0.88       0.0  T
   2   -100.7348858  0.522102E-03  0.106E-01    0.90       1.0  T
   3   -100.7356446 -0.758816E-03  0.413E-02    0.89       1.0  T
   4   -100.7356673 -0.226687E-04  0.160E-02    0.87       1.0  T
   5   -100.7356924 -0.251012E-04  0.494E-03    0.89       2.4  T
   6   -100.7356941 -0.170067E-05  0.218E-03    0.89       5.4  T
   7   -100.7356942 -0.185304E-06  0.955E-04    0.89      12.3  T
   8   -100.7356943 -0.488101E-07  0.276E-04    0.89      42.7  T
     SCC iter.                  ...        0 min,  0.064 sec
     gradient                   ...        0 min,  0.069 sec
 * total energy  :  -101.9938902 Eh     change       -0.7522376E-03 Eh
   gradient norm :     0.0125719 Eh/α   predicted    -0.6124986E-03 ( -18.58%)
   displ. norm   :     0.4506134 α      lambda       -0.7526227E-03
   maximum displ.:     0.2174920 α      in ANC's #11, #22, #12, ...

........................................................................
.............................. CYCLE   28 ..............................
........................................................................

 iter      E             dE          RMSdq      gap      omega  full diag
   1   -100.7331702 -0.100733E+03  0.778E-02    0.88       0.0  T
   2   -100.7329412  0.229026E-03  0.748E-02    0.89       1.0  T
   3   -100.7332480 -0.306799E-03  0.408E-02    0.88       1.0  T
   4   -100.7332870 -0.390382E-04  0.127E-02    0.87       1.0  T
   5   -100.7333026 -0.155247E-04  0.422E-03    0.89       2.8  T
   6   -100.7333040 -0.145556E-05  0.158E-03    0.88       7.5  T
   7   -100.7333041 -0.814705E-07  0.814E-04    0.88      14.5  T
   8   -100.7333041 -0.412356E-07  0.227E-04    0.88      52.0  T
     SCC iter.                  ...        0 min,  0.064 sec
     gradient                   ...        0 min,  0.074 sec
 * total energy  :  -101.9944282 Eh     change       -0.5379535E-03 Eh
   gradient norm :     0.0165791 Eh/α   predicted    -0.4527327E-03 ( -15.84%)
   displ. norm   :     0.3561725 α      lambda       -0.7830755E-03
   maximum displ.:     0.1429266 α      in ANC's #6, #11, #8, ...

........................................................................
.............................. CYCLE   29 ..............................
........................................................................

 iter      E             dE          RMSdq      gap      omega  full diag
   1   -100.7368014 -0.100737E+03  0.794E-02    0.87       0.0  T
   2   -100.7365681  0.233294E-03  0.809E-02    0.89       1.0  T
   3   -100.7369109 -0.342872E-03  0.377E-02    0.87       1.0  T
   4   -100.7369361 -0.251293E-04  0.108E-02    0.87       1.1  T
   5   -100.7369451 -0.898540E-05  0.511E-03    0.88       2.3  T
   6   -100.7369468 -0.172147E-05  0.221E-03    0.88       5.3  T
   7   -100.7369470 -0.238718E-06  0.858E-04    0.88      13.7  T
   8   -100.7369471 -0.538498E-07  0.242E-04    0.88      48.7  T
     SCC iter.                  ...        0 min,  0.065 sec
     gradient                   ...        0 min,  0.069 sec
 * total energy  :  -101.9948882 Eh     change       -0.4599824E-03 Eh
   gradient norm :     0.0209188 Eh/α   predicted    -0.4412305E-03 (  -4.08%)
   displ. norm   :     0.3994784 α      lambda       -0.5471124E-03
   maximum displ.:     0.1677258 α      in ANC's #22, #6, #11, ...

........................................................................
.............................. CYCLE   30 ..............................
........................................................................

 iter      E             dE          RMSdq      gap      omega  full diag
   1   -100.7335774 -0.100734E+03  0.621E-02    0.88       0.0  T
   2   -100.7335448  0.326675E-04  0.422E-02    0.88       1.0  T
   3   -100.7334905  0.542228E-04  0.448E-02    0.88       1.0  T
   4   -100.7335949 -0.104332E-03  0.776E-03    0.87       1.5  T
   5   -100.7335999 -0.505466E-05  0.417E-03    0.88       2.8  T
   6   -100.7336015 -0.156206E-05  0.132E-03    0.88       9.0  T
   7   -100.7336015 -0.287018E-07  0.623E-04    0.88      18.9  T
   8   -100.7336015 -0.267383E-07  0.209E-04    0.88      56.4  T
     SCC iter.                  ...        0 min,  0.065 sec
     gradient                   ...        0 min,  0.068 sec
 * total energy  :  -101.9952446 Eh     change       -0.3564728E-03 Eh
   gradient norm :     0.0193579 Eh/α   predicted    -0.3172202E-03 ( -11.01%)
   displ. norm   :     0.2575353 α      lambda       -0.4886070E-03
   maximum displ.:     0.1043774 α      in ANC's #6, #22, #24, ...

........................................................................
.............................. CYCLE   31 ..............................
........................................................................

 iter      E             dE          RMSdq      gap      omega  full diag
   1   -100.7345261 -0.100735E+03  0.441E-02    0.87       0.0  T
   2   -100.7345234  0.268419E-05  0.278E-02    0.88       1.0  T
   3   -100.7344661  0.573215E-04  0.295E-02    0.86       1.0  T
   4   -100.7345307 -0.646007E-04  0.467E-03    0.88       2.5  T
   5   -100.7345319 -0.117742E-05  0.248E-03    0.88       4.7  T
   6   -100.7345322 -0.369670E-06  0.135E-03    0.88       8.7  T
   7   -100.7345324 -0.119134E-06  0.499E-04    0.88      23.6  T
   8   -100.7345324 -0.144173E-07  0.208E-04    0.88      56.6  T
     SCC iter.                  ...        0 min,  0.068 sec
     gradient                   ...        0 min,  0.068 sec
 * total energy  :  -101.9956046 Eh     change       -0.3599754E-03 Eh
   gradient norm :     0.0077076 Eh/α   predicted    -0.2605241E-03 ( -27.63%)
   displ. norm   :     0.3249238 α      lambda       -0.4253193E-03
   maximum displ.:     0.1404814 α      in ANC's #6, #22, #8, ...

........................................................................
.............................. CYCLE   32 ..............................
........................................................................

 iter      E             dE          RMSdq      gap      omega  full diag
   1   -100.7358854 -0.100736E+03  0.532E-02    0.88       0.0  T
   2   -100.7358806  0.478653E-05  0.339E-02    0.88       1.0  T
   3   -100.7358025  0.780849E-04  0.361E-02    0.88       1.0  T
   4   -100.7358923 -0.897888E-04  0.527E-03    0.88       2.2  T
   5   -100.7358939 -0.156431E-05  0.285E-03    0.88       4.1  T
   6   -100.7358945 -0.582707E-06  0.165E-03    0.88       7.1  T
   7   -100.7358947 -0.210012E-06  0.555E-04    0.88      21.2  T
   8   -100.7358947 -0.113284E-07  0.187E-04    0.88      62.9  T
     SCC iter.                  ...        0 min,  0.064 sec
     gradient                   ...        0 min,  0.069 sec
 * total energy  :  -101.9959173 Eh     change       -0.3127164E-03 Eh
   gradient norm :     0.0065854 Eh/α   predicted    -0.2351165E-03 ( -24.81%)
   displ. norm   :     0.3528971 α      lambda       -0.3541980E-03
   maximum displ.:     0.1528941 α      in ANC's #22, #6, #5, ...

........................................................................
.............................. CYCLE   33 ..............................
........................................................................

 iter      E             dE          RMSdq      gap      omega  full diag
   1   -100.7368406 -0.100737E+03  0.529E-02    0.88       0.0  T
   2   -100.7368398  0.801987E-06  0.318E-02    0.87       1.0  T
   3   -100.7367419  0.978461E-04  0.329E-02    0.90       1.0  T
   4   -100.7368428 -0.100876E-03  0.570E-03    0.87       2.1  T
   5   -100.7368455 -0.271947E-05  0.246E-03    0.88       4.8  T
   6   -100.7368459 -0.389386E-06  0.137E-03    0.88       8.6  T
   7   -100.7368460 -0.103453E-06  0.548E-04    0.88      21.5  T
   8   -100.7368461 -0.138291E-07  0.179E-04    0.88      66.0  T
     SCC iter.                  ...        0 min,  0.064 sec
     gradient                   ...        0 min,  0.070 sec
 * total energy  :  -101.9961924 Eh     change       -0.2750548E-03 Eh
   gradient norm :     0.0076156 Eh/α   predicted    -0.1991590E-03 ( -27.59%)
   displ. norm   :     0.4198386 α      lambda       -0.4160449E-03
   maximum displ.:     0.1803246 α      in ANC's #22, #6, #5, ...

........................................................................
.............................. CYCLE   34 ..............................
........................................................................

 iter      E             dE          RMSdq      gap      omega  full diag
   1   -100.7383399 -0.100738E+03  0.619E-02    0.88       0.0  T
   2   -100.7383414 -0.150456E-05  0.364E-02    0.88       1.0  T
   3   -100.7382984  0.429606E-04  0.214E-02    0.90       1.0  T
   4   -100.7383410 -0.425635E-04  0.547E-03    0.88       2.2  T
   5   -100.7383435 -0.255543E-05  0.219E-03    0.88       5.4  T
   6   -100.7383437 -0.230111E-06  0.118E-03    0.88      10.0  T
   7   -100.7383438 -0.463394E-07  0.683E-04    0.88      17.3  T
   8   -100.7383438 -0.315613E-07  0.187E-04    0.88      62.9  T
     SCC iter.                  ...        0 min,  0.065 sec
     gradient                   ...        0 min,  0.069 sec
 * total energy  :  -101.9965218 Eh     change       -0.3293897E-03 Eh
   gradient norm :     0.0097867 Eh/α   predicted    -0.2446949E-03 ( -25.71%)
   displ. norm   :     0.4566024 α      lambda       -0.4935039E-03
   maximum displ.:     0.1876742 α      in ANC's #22, #6, #5, ...

........................................................................
.............................. CYCLE   35 ..............................
........................................................................

 iter      E             dE          RMSdq      gap      omega  full diag
   1   -100.7402231 -0.100740E+03  0.688E-02    0.89       0.0  T
   2   -100.7402174  0.566622E-05  0.416E-02    0.88       1.0  T
   3   -100.7401008  0.116625E-03  0.453E-02    0.90       1.0  T
   4   -100.7402313 -0.130545E-03  0.386E-03    0.89       3.1  T
   5   -100.7402324 -0.103368E-05  0.193E-03    0.89       6.1  T
   6   -100.7402325 -0.154808E-06  0.101E-03    0.89      11.7  T
   7   -100.7402325  0.283071E-07  0.971E-04    0.88      12.1  T
   8   -100.7402326 -0.860024E-07  0.202E-04    0.89      58.5  T
     SCC iter.                  ...        0 min,  0.065 sec
     gradient                   ...        0 min,  0.069 sec
 * total energy  :  -101.9968981 Eh     change       -0.3763720E-03 Eh
   gradient norm :     0.0098094 Eh/α   predicted    -0.2981983E-03 ( -20.77%)
   displ. norm   :     0.5380700 α      lambda       -0.4976920E-03
   maximum displ.:     0.2387875 α      in ANC's #22, #6, #5, ...

........................................................................
.............................. CYCLE   36 ..............................
........................................................................

 iter      E             dE          RMSdq      gap      omega  full diag
   1   -100.7359604 -0.100736E+03  0.789E-02    0.89       0.0  T
   2   -100.7359598  0.572231E-06  0.468E-02    0.88       1.0  T
   3   -100.7358251  0.134674E-03  0.431E-02    0.92       1.0  T
   4   -100.7359663 -0.141147E-03  0.778E-03    0.88       1.5  T
   5   -100.7359703 -0.406682E-05  0.369E-03    0.89       3.2  T
   6   -100.7359709 -0.589837E-06  0.218E-03    0.89       5.4  T
   7   -100.7359713 -0.360930E-06  0.827E-04    0.89      14.3  T
   8   -100.7359713 -0.507734E-07  0.259E-04    0.89      45.5  T
     SCC iter.                  ...        0 min,  0.064 sec
     gradient                   ...        0 min,  0.069 sec
 * total energy  :  -101.9971242 Eh     change       -0.2260854E-03 Eh
   gradient norm :     0.0191037 Eh/α   predicted    -0.3208925E-03 (  41.93%)
   displ. norm   :     0.4145339 α      lambda       -0.8495973E-03
   maximum displ.:     0.1412035 α      in ANC's #24, #5, #3, ...

........................................................................
.............................. CYCLE   37 ..............................
........................................................................

 iter      E             dE          RMSdq      gap      omega  full diag
   1   -100.7440999 -0.100744E+03  0.840E-02    0.90       0.0  T
   2   -100.7440954  0.451921E-05  0.496E-02    0.89       1.0  T
   3   -100.7439400  0.155333E-03  0.556E-02    0.91       1.0  T
   4   -100.7441207 -0.180640E-03  0.808E-03    0.89       1.5  T
   5   -100.7441253 -0.468575E-05  0.335E-03    0.89       3.5  T
   6   -100.7441258 -0.467213E-06  0.194E-03    0.90       6.1  T
   7   -100.7441258 -0.343642E-07  0.181E-03    0.89       6.5  T
   8   -100.7441261 -0.270170E-06  0.391E-04    0.90      30.2  T
   9   -100.7441261 -0.786663E-08  0.178E-04    0.89      66.1  T
     SCC iter.                  ...        0 min,  0.073 sec
     gradient                   ...        0 min,  0.069 sec
 * total energy  :  -101.9972936 Eh     change       -0.1693470E-03 Eh
   gradient norm :     0.0182367 Eh/α   predicted    -0.4978010E-03 ( 193.95%)
   displ. norm   :     0.1572938 α      lambda       -0.4048293E-03
   maximum displ.:     0.0644312 α      in ANC's #6, #11, #22, ...

........................................................................
.............................. CYCLE   38 ..............................
........................................................................

 iter      E             dE          RMSdq      gap      omega  full diag
   1   -100.7401642 -0.100740E+03  0.325E-02    0.90       0.0  T
   2   -100.7401635  0.672505E-06  0.193E-02    0.89       1.0  T
   3   -100.7401334  0.301260E-04  0.218E-02    0.90       1.0  T
   4   -100.7401660 -0.325895E-04  0.372E-03    0.89       3.2  T
   5   -100.7401668 -0.830035E-06  0.228E-03    0.90       5.2  T
   6   -100.7401672 -0.459185E-06  0.896E-04    0.89      13.2  T
   7   -100.7401673 -0.355855E-07  0.403E-04    0.90      29.3  T
     SCC iter.                  ...        0 min,  0.058 sec
     gradient                   ...        0 min,  0.074 sec
 * total energy  :  -101.9975419 Eh     change       -0.2483047E-03 Eh
   gradient norm :     0.0095127 Eh/α   predicted    -0.2074345E-03 ( -16.46%)
   displ. norm   :     0.1516281 α      lambda       -0.2018307E-03
   maximum displ.:     0.0477104 α      in ANC's #22, #6, #9, ...

........................................................................
.............................. CYCLE   39 ..............................
........................................................................

 iter      E             dE          RMSdq      gap      omega  full diag
   1   -100.7388110 -0.100739E+03  0.242E-02    0.90       0.0  T
   2   -100.7388091  0.186990E-05  0.158E-02    0.89       1.0  T
   3   -100.7387782  0.309032E-04  0.191E-02    0.91       1.0  T
   4   -100.7388127 -0.344434E-04  0.348E-03    0.89       3.4  T
   5   -100.7388134 -0.730091E-06  0.169E-03    0.90       7.0  T
   6   -100.7388137 -0.251000E-06  0.711E-04    0.90      16.6  T
   7   -100.7388137 -0.256880E-07  0.312E-04    0.90      37.7  T
     SCC iter.                  ...        0 min,  0.057 sec
     gradient                   ...        0 min,  0.068 sec
 * total energy  :  -101.9976723 Eh     change       -0.1304276E-03 Eh
   gradient norm :     0.0085949 Eh/α   predicted    -0.1032421E-03 ( -20.84%)
   displ. norm   :     0.2204658 α      lambda       -0.1817116E-03
   maximum displ.:     0.0758672 α      in ANC's #38, #3, #5, ...

........................................................................
.............................. CYCLE   40 ..............................
........................................................................

 iter      E             dE          RMSdq      gap      omega  full diag
   1   -100.7387031 -0.100739E+03  0.339E-02    0.90       0.0  T
   2   -100.7387025  0.602561E-06  0.205E-02    0.89       1.0  T
   3   -100.7386611  0.414387E-04  0.194E-02    0.92       1.0  T
   4   -100.7387038 -0.426922E-04  0.303E-03    0.90       3.9  T
   5   -100.7387044 -0.642799E-06  0.988E-04    0.90      11.9  T
   6   -100.7387044 -0.142555E-07  0.693E-04    0.90      17.0  T
     SCC iter.                  ...        0 min,  0.063 sec
     gradient                   ...        0 min,  0.069 sec
 * total energy  :  -101.9977989 Eh     change       -0.1265638E-03 Eh
   gradient norm :     0.0075235 Eh/α   predicted    -0.9527437E-04 ( -24.72%)
   displ. norm   :     0.2748765 α      lambda       -0.1253494E-03
   maximum displ.:     0.1037947 α      in ANC's #3, #5, #38, ...

........................................................................
.............................. CYCLE   41 ..............................
........................................................................

 iter      E             dE          RMSdq      gap      omega  full diag
   1   -100.7388203 -0.100739E+03  0.404E-02    0.90       0.0  T
   2   -100.7388194  0.883638E-06  0.237E-02    0.90       1.0  T
   3   -100.7387851  0.342797E-04  0.239E-02    0.90       1.0  T
   4   -100.7388219 -0.367719E-04  0.265E-03    0.90       4.5  T
   5   -100.7388224 -0.537883E-06  0.170E-03    0.90       6.9  T
   6   -100.7388226 -0.202139E-06  0.872E-04    0.90      13.5  T
   7   -100.7388227 -0.217574E-07  0.539E-04    0.90      21.9  T
     SCC iter.                  ...        0 min,  0.057 sec
     gradient                   ...        0 min,  0.072 sec
 * total energy  :  -101.9978803 Eh     change       -0.8146103E-04 Eh
   gradient norm :     0.0052841 Eh/α   predicted    -0.6741172E-04 ( -17.25%)
   displ. norm   :     0.1464209 α      lambda       -0.6322900E-04
   maximum displ.:     0.0779249 α      in ANC's #3, #38, #5, ...

........................................................................
.............................. CYCLE   42 ..............................
........................................................................

 iter      E             dE          RMSdq      gap      omega  full diag
   1   -100.7407102 -0.100741E+03  0.214E-02    0.90       0.0  T
   2   -100.7407100  0.125931E-06  0.126E-02    0.90       1.0  T
   3   -100.7407007  0.935268E-05  0.121E-02    0.91       1.0  T
   4   -100.7407107 -0.999011E-05  0.140E-03    0.90       8.4  T
   5   -100.7407108 -0.926917E-07  0.851E-04    0.90      13.9  T
   6   -100.7407108 -0.385234E-07  0.507E-04    0.90      23.2  T
     SCC iter.                  ...        0 min,  0.049 sec
     gradient                   ...        0 min,  0.069 sec
 * total energy  :  -101.9979196 Eh     change       -0.3925134E-04 Eh
   gradient norm :     0.0034546 Eh/α   predicted    -0.3229462E-04 ( -17.72%)
   displ. norm   :     0.2160621 α      lambda       -0.5695708E-04
   maximum displ.:     0.0993387 α      in ANC's #3, #5, #22, ...

   *** GEOMETRY OPTIMIZATION CONVERGED AFTER 42 ITERATIONS ***

------------------------------------------------------------------------
 total energy gain   :        -2.4170368 Eh    -1516.7135 kcal/mol
 total RMSD          :         1.1382580 a0        0.6023 Å
 total power (kW/mol):      -151.0935549 (step) -912.8741 (real)
------------------------------------------------------------------------

 ANCopt (total)                0 d,  0 h,  0 min,  6.952 sec
 optimizer setup                ...        0 min,  0.000 sec (  0.004%)
 model hessian                  ...        0 min,  0.105 sec (  1.515%)
 ANC generation                 ...        0 min,  0.013 sec (  0.188%)
 coordinate transformation      ...        0 min,  0.003 sec (  0.042%)
 single point calculation       ...        0 min,  6.774 sec ( 97.444%)
 optimization log               ...        0 min,  0.011 sec (  0.155%)
 hessian update                 ...        0 min,  0.003 sec (  0.039%)
 rational function              ...        0 min,  0.023 sec (  0.329%)

================
 final structure:
================
72
 xtb: 6.6.1 (8d0f1dd)
N           -1.76645739958924        2.94993085233425        2.04518182972842
C           -1.83673828749646        2.13059903555716        1.10355211710402
C           -3.05527616540435        1.93169163287065        0.24420871938418
C           -3.49101368555554        0.47714658886219        0.31697841602014
C           -4.43428665193415       -0.01633851589086       -0.58650477990486
C           -4.89823924650914       -1.31901836155905       -0.50973657891840
O           -5.81871329412236       -1.86855473661111       -1.33113879797333
C           -6.47503323488148       -1.05334221572384       -2.27279221357382
C           -4.39892814846951       -2.18151148331904        0.50223491052999
O           -4.90644599891444       -3.43221032349573        0.50415066030786
C           -4.56023913144061       -4.30661557616683        1.55210295381217
C           -3.46225883965021       -1.68636975047288        1.39507604468103
C           -3.02026616310762       -0.37322358762466        1.30560602778666
C           -2.62278009391399        2.30668222001082       -1.19899816454725
C           -1.71798006772090        1.27763595505466       -1.89424221697960
C           -0.31901365597905        1.30153175244611       -1.39608295599225
N            0.48462388104129        0.24199465288011       -1.28585956379313
C            1.75644100972863        0.35470908114145       -0.88532897917654
C            2.72362737225081       -0.77435764801590       -0.80860456505457
C            4.13683009235854       -0.40224545674312       -0.44871358327798
C            4.61093993109313        1.00624473283281       -0.68885071713208
C            6.06186688480061        1.19092965064120       -0.32893891703675
C            6.85645881823414        0.20521942074241        0.15106390622809
O            8.15267609644975        0.32032223050368        0.50226777294481
C            8.78399197566097        1.57503720984247        0.38416783060441
C            6.32184014491894       -1.12180056405467        0.33200428182232
O            7.18988813980991       -2.02349186098528        0.79591201902164
C            6.78154538520925       -3.35411884232893        1.01679073054936
C            4.97595287495586       -1.36847145888628        0.02455643133767
C           -0.06739872475403       -1.06476912850759       -1.59794128139922
C           -4.26973943300259        2.80946840582328        0.67069624349869
C           -4.73857353469367        2.46908569903486        2.08354394841882
C           -4.00158221520046        4.30834933992873        0.56688201660642
H           -4.82367377193596        0.63447887462300       -1.35174266796026
H           -6.97122577315196       -0.20487186872782       -1.79212030500392
H           -7.22369686638334       -1.69104288924238       -2.73867633545921
H           -5.78544643896361       -0.68790895621542       -3.04078497668885
H           -4.82263374500619       -3.88608350453727        2.52744320363397
H           -5.13999878957624       -5.21166165022647        1.38166605668867
H           -3.49344838996155       -4.55251319584482        1.53577329708870
H           -3.07878295898066       -2.31196464723758        2.18468079769310
H           -2.31982679767829       -0.01397924111536        2.04346766433584
H           -3.52055027062507        2.43317587141203       -1.80391484618548
H           -2.11016391886094        3.26852642664658       -1.16912046770929
H           -2.16676903814062        0.28994101396330       -1.80091694223066
H           -1.71106673926136        1.53066949647816       -2.96381751772913
H           -0.99116923361940        1.50149179510636        0.77590989918753
H            0.13165819196979        2.26618001114675       -1.22417052765730
H            4.18827313360299        1.50883280317979       -0.34037743802545
H            2.06817537242897        1.34998278046584       -0.62171374104907
H            2.76724719345644       -1.28386151014818       -1.78388483533569
H            2.38657193746064       -1.52736022273858       -0.08428343080384
H            4.54799406453933        1.15608231136639       -1.79348213670692
H            6.43786133288769        2.19181612928601       -0.46496767122725
H            8.29949952851334        2.32652423472259        1.01477885625509
H            8.79688478735970        1.92042317816811       -0.65388913888881
H            9.80522075007008        1.41996262913160        0.72603978680064
H            7.65926222537871       -3.86798433296299        1.40514561891539
H            5.97500049326459       -3.40894467065568        1.75403359069789
H            6.46381675830373       -3.83442217064553        0.08617551861213
H            4.59095348058042       -2.36799351992759        0.16292680487666
H           -0.34965023265933       -1.11006896329618       -2.64934177509887
H           -0.95250438295093       -1.24882984043233       -0.98745797258724
H            0.65574159149998       -1.84624839133885       -1.39514885258480
H           -5.08387831977219        2.56167722536190       -0.02082832007655
H           -3.97218534228299        2.73575442081551        2.80440588563664
H           -4.96277635178740        1.40948178895320        2.18000573950846
H           -5.63995931814606        3.03102513805777        2.31376264752852
H           -3.15936047290057        4.58259883690366        1.19407340280625
H           -3.80442089406736        4.61610123806550       -0.45631599289373
H           -4.87706834544858        4.85085313546307        0.91423612595067
H           -0.88310748632303        3.02416080834933        2.54045229265967

 Bond Distances (Angstroems)
 ---------------------------
N1-C2=1.2502         N1-H72=1.0154        C2-N1=1.2502         C2-C3=1.5043         C2-H47=1.1037        C3-C2=1.5043         
C3-C4=1.5202         C3-C14=1.5526        C3-C31=1.5580        C4-C3=1.5202         C4-C5=1.3963         C4-C13=1.3864        
C5-C4=1.3963         C5-C6=1.3850         C5-H34=1.0774        C6-C5=1.3850         C6-O7=1.3505         C6-C9=1.4203         
O7-C6=1.3505         O7-C8=1.4078         C8-O7=1.4078         C8-H35=1.0941        C8-H36=1.0882        C8-H37=1.0949        
C9-C6=1.4203         C9-O10=1.3498        C9-C12=1.3855        O10-C9=1.3498        O10-C11=1.4081       C11-O10=1.4081       
C11-H38=1.0941       C11-H39=1.0882       C11-H40=1.0949       C12-C9=1.3855        C12-C13=1.3884       C12-H41=1.0779       
C13-C4=1.3864        C13-C12=1.3884       C13-H42=1.0789       C14-C3=1.5526        C14-C15=1.5365       C14-H43=1.0899       
C14-H44=1.0903       C15-C14=1.5365       C15-C16=1.4852       C15-H45=1.0889       C15-H46=1.0991       C16-C15=1.4852       
C16-N17=1.3344       C16-H48=1.0785       N17-C16=1.3344       N17-C18=1.3382       N17-C30=1.4525       C18-N17=1.3382       
C18-C19=1.4887       C18-H50=1.0758       C19-C18=1.4887       C19-C20=1.5050       C19-H51=1.1012       C19-H52=1.0978       
C20-C19=1.5050       C20-C21=1.5054       C20-C29=1.3644       C21-C20=1.5054       C21-C22=1.5063       C21-H49=0.7434       
C21-H53=1.1165       C22-C21=1.5063       C22-C23=1.3540       C22-H54=1.0778       C23-C22=1.3540       C23-O24=1.3479       
C23-C26=1.4421       O24-C23=1.3479       O24-C25=1.4095       C25-O24=1.4095       C25-H55=1.0941       C25-H56=1.0941       
C25-H57=1.0880       C26-C23=1.4421       C26-O27=1.3348       C26-C29=1.4024       O27-C26=1.3348       O27-C28=1.4093       
C28-O27=1.4093       C28-H58=1.0887       C28-H59=1.0941       C28-H60=1.0944       C29-C20=1.3644       C29-C26=1.4024       
C29-H61=1.0800       C30-N17=1.4525       C30-H62=1.0896       C30-H63=1.0909       C30-H64=1.0839       C31-C3=1.5580        
C31-C32=1.5270       C31-C33=1.5262       C31-H65=1.0966       C32-C31=1.5270       C32-H66=1.0854       C32-H67=1.0874       
C32-H68=1.0869       C33-C31=1.5262       C33-H69=1.0853       C33-H70=1.0865       C33-H71=1.0869       H34-C5=1.0774        
H35-C8=1.0941        H36-C8=1.0882        H37-C8=1.0949        H38-C11=1.0941       H39-C11=1.0882       H40-C11=1.0949       
H41-C12=1.0779       H42-C13=1.0789       H43-C14=1.0899       H44-C14=1.0903       H45-C15=1.0889       H46-C15=1.0991       
H47-C2=1.1037        H48-C16=1.0785       H49-C21=0.7434       H50-C18=1.0758       H51-C19=1.1012       H52-C19=1.0978       
H53-C21=1.1165       H54-C22=1.0778       H55-C25=1.0941       H56-C25=1.0941       H57-C25=1.0880       H58-C28=1.0887       
H59-C28=1.0941       H60-C28=1.0944       H61-C29=1.0800       H62-C30=1.0896       H63-C30=1.0909       H64-C30=1.0839       
H65-C31=1.0966       H66-C32=1.0854       H67-C32=1.0874       H68-C32=1.0869       H69-C33=1.0853       H70-C33=1.0865       
H71-C33=1.0869       H72-N1=1.0154        
 C  H  Rav=1.0806 sigma=0.0560  Rmin=0.7434  Rmax=1.1165    38
 C  C  Rav=1.4609 sigma=0.0666  Rmin=1.3540  Rmax=1.5580    22
 N  H  Rav=1.0154 sigma=0.0000  Rmin=1.0154  Rmax=1.0154     1
 N  C  Rav=1.3438 sigma=0.0719  Rmin=1.2502  Rmax=1.4525     4
 O  C  Rav=1.3772 sigma=0.0318  Rmin=1.3348  Rmax=1.4095     8

 selected bond angles (degree)
 --------------------
H72-N1-C2=117.66               C3-C2-N1=124.23                H47-C2-N1=123.65               H47-C2-C3=112.06               
C4-C3-C2=109.35                C14-C3-C2=105.87               C14-C3-C4=110.82               C31-C3-C2=113.61               
C31-C3-C4=107.61               C31-C3-C14=109.60              C5-C4-C3=120.06                C13-C4-C3=121.58               
C13-C4-C5=118.30               C6-C5-C4=121.53                H34-C5-C4=119.36               H34-C5-C6=119.11               
O7-C6-C5=125.26                C9-C6-C5=119.53                C9-C6-O7=115.20                C8-O7-C6=119.27                
H35-C8-O7=111.51               H36-C8-O7=105.53               H36-C8-H35=109.30              H37-C8-O7=111.64               
H37-C8-H35=109.57              H37-C8-H36=109.18              O10-C9-C6=115.56               C12-C9-C6=118.67               
C12-C9-O10=125.76              C11-O10-C9=118.95              

 selected dihedral angles (degree)
 ---------------------------------
C3-C2-N1-H72=182.03           H47-C2-N1-H72=359.00          C4-C3-C2-N1=237.36            C4-C3-C2-H47= 60.09           
C14-C3-C2-N1=117.92           C14-C3-C2-H47=300.65          C31-C3-C2-N1=357.59           C31-C3-C2-H47=180.32          
C5-C4-C3-C2=192.38            C5-C4-C3-C14=308.71           C5-C4-C3-C31= 68.53           C13-C4-C3-C2= 15.42           
C13-C4-C3-C14=131.75          C13-C4-C3-C31=251.58          C6-C5-C4-C3=182.98            C6-C5-C4-C13=  0.04           
H34-C5-C4-C3=  1.95           H34-C5-C4-C13=179.01          O7-C6-C5-C4=179.15            O7-C6-C5-H34=  0.18           
C9-C6-C5-C4=359.47            C9-C6-C5-H34=180.50           C8-O7-C6-C5=353.60            C8-O7-C6-C9=173.29            
H35-C8-O7-C6=303.92           H36-C8-O7-C6=185.35           H37-C8-O7-C6= 66.85           O10-C9-C6-C5=179.94           
O10-C9-C6-O7=  0.22           C12-C9-C6-C5=  0.46           C12-C9-C6-O7=180.75           C11-O10-C9-C6=186.08          
C11-O10-C9-C12=  5.51         
           -------------------------------------------------
          |                Final Singlepoint                |
           -------------------------------------------------

          ...................................................
          :                      SETUP                      :
          :.................................................:
          :  # basis functions                 171          :
          :  # atomic orbitals                 171          :
          :  # shells                          105          :
          :  # electrons                       180          :
          :  max. iterations                   250          :
          :  Hamiltonian                  GFN2-xTB          :
          :  restarted?                      false          :
          :  GBSA solvation                  false          :
          :  PC potential                    false          :
          :  electronic temp.         5000.0000000     K    :
          :  accuracy                    1.0000000          :
          :  -> integral cutoff          0.2500000E+02      :
          :  -> integral neglect         0.1000000E-07      :
[...]
         :::::::::::::::::::::::::::::::::::::::::::::::::::::
         :: total energy            -101.997919597647 Eh    ::
         :: gradient norm              0.003457775499 Eh/a0 ::
         :: HOMO-LUMO gap              0.900862024607 eV    ::
         ::.................................................::
         :: SCC energy              -100.740710831015 Eh    ::
         :: -> isotropic ES            0.106709079701 Eh    ::
         :: -> anisotropic ES          0.004597981303 Eh    ::
         :: -> anisotropic XC          0.042933097947 Eh    ::
         :: -> dispersion             -0.073825873877 Eh    ::
         :: repulsion energy           1.555638873070 Eh    ::
         :: add. restraining          -2.814029356136 Eh    ::
         :: total charge               1.000000000016 e     ::
         :::::::::::::::::::::::::::::::::::::::::::::::::::::

           -------------------------------------------------
          |                Property Printout                |
           -------------------------------------------------

    * Orbital Energies and Occupations

         #    Occupation            Energy/Eh            Energy/eV
      -------------------------------------------------------------
         1        2.0000           -0.8211702             -22.3452
       ...           ...                  ...                  ...
        78        1.9989           -0.5296340             -14.4121
        79        1.9982           -0.5219527             -14.2031
        80        1.9982           -0.5217069             -14.1964
        81        1.9975           -0.5170607             -14.0699
        82        1.9972           -0.5151555             -14.0181
        83        1.9956           -0.5076164             -13.8129
        84        1.9950           -0.5055979             -13.7580
        85        1.9937           -0.5021429             -13.6640
        86        1.9799           -0.4836286             -13.1602
        87        1.9734           -0.4791062             -13.0371
        88        1.9328           -0.4641166             -12.6293
        89        1.8702           -0.4531592             -12.3311
        90        1.5870           -0.4322401             -11.7619 (HOMO)
        91        0.6440           -0.3991340             -10.8610 (LUMO)
        92        0.0229           -0.3403439              -9.2612
        93        0.0109           -0.3285016              -8.9390
        94        0.0050           -0.3162419              -8.6054
        95        0.0033           -0.3097281              -8.4281
        96        0.0027           -0.3064009              -8.3376
        97        0.0000           -0.2270981              -6.1797
        98        0.0000           -0.1839935              -5.0067
        99                         -0.1082648              -2.9460
       100                         -0.0753812              -2.0512
       101                         -0.0724542              -1.9716
       ...                                ...                  ...
       171                          1.4263817              38.8138
      -------------------------------------------------------------
                  HL-Gap            0.0331061 Eh            0.9009 eV
             Fermi-level           -0.4109234 Eh          -11.1818 eV

     #   Z          covCN         q      C6AA      α(0)
     1   7 N        1.774    -0.273    27.905     7.822
     2   6 C        2.827     0.102    25.725     8.311
     3   6 C        3.907     0.007    20.411     6.422
     4   6 C        2.975     0.002    27.972     8.675
     5   6 C        2.921    -0.079    29.986     8.980
     6   6 C        2.862     0.128    25.184     8.226
     7   8 O        1.706    -0.233    17.858     5.706
     8   6 C        3.644     0.029    20.431     6.497
     9   6 C        2.864     0.128    25.198     8.228
    10   8 O        1.706    -0.231    17.834     5.702
    11   6 C        3.646     0.028    20.433     6.496
    12   6 C        2.914    -0.074    29.834     8.957
    13   6 C        2.922    -0.052    29.287     8.875
    14   6 C        3.812    -0.064    21.718     6.633
    15   6 C        3.801    -0.066    21.756     6.641
    16   6 C        2.872    -0.044    29.099     8.843
    17   7 N        2.730     0.074    19.957     6.635
    18   6 C        2.865    -0.059    29.450     8.895
    19   6 C        3.808    -0.065    21.738     6.637
    20   6 C        2.951     0.001    28.003     8.679
    21   6 C        3.811    -0.099    22.381     6.734
    22   6 C        2.900    -0.086    30.157     9.004
    23   6 C        2.848     0.134    25.057     8.204
    24   8 O        1.706    -0.234    17.880     5.709
    25   6 C        3.645     0.024    20.504     6.508
    26   6 C        2.861     0.137    25.012     8.198
    27   8 O        1.706    -0.197    17.282     5.613
    28   6 C        3.644     0.021    20.560     6.517
    29   6 C        2.904    -0.076    29.887     8.964
    30   6 C        3.714    -0.076    22.079     6.714
    31   6 C        3.853    -0.007    20.673     6.467
    32   6 C        3.756    -0.117    22.786     6.806
    33   6 C        3.755    -0.119    22.842     6.815
    34   1 H        0.926     0.052     2.301     2.372
    35   1 H        0.924     0.053     2.288     2.365
    36   1 H        0.925     0.080     1.984     2.202
    37   1 H        0.924     0.047     2.361     2.403
    38   1 H        0.924     0.054     2.275     2.359
    39   1 H        0.925     0.079     1.986     2.204
    40   1 H        0.924     0.047     2.356     2.400
    41   1 H        0.926     0.051     2.313     2.378
    42   1 H        0.926     0.040     2.453     2.449
    43   1 H        0.925     0.055     2.257     2.349
    44   1 H        0.924     0.053     2.286     2.364
    45   1 H        0.925     0.057     2.229     2.335
    46   1 H        0.923     0.063     2.159     2.298
    47   1 H        0.923     0.009     2.911     2.668
    48   1 H        0.926     0.051     2.308     2.376
    49   1 H        0.931     0.131     1.530     1.934
    50   1 H        0.926     0.051     2.303     2.373
    51   1 H        0.923     0.074     2.038     2.232
    52   1 H        0.924     0.066     2.125     2.280
    53   1 H        0.920     0.082     1.957     2.188
    54   1 H        0.926     0.059     2.205     2.322
    55   1 H        0.924     0.052     2.296     2.370
    56   1 H        0.924     0.052     2.290     2.366
    57   1 H        0.925     0.083     1.952     2.185
    58   1 H        0.925     0.088     1.898     2.155
    59   1 H        0.924     0.059     2.217     2.328
    60   1 H        0.924     0.059     2.207     2.323
    61   1 H        0.926     0.054     2.274     2.358
    62   1 H        0.925     0.082     1.963     2.191
    63   1 H        0.924     0.081     1.974     2.197
    64   1 H        0.925     0.083     1.945     2.181
    65   1 H        0.924     0.036     2.508     2.477
    66   1 H        0.925     0.065     2.144     2.290
    67   1 H        0.925     0.034     2.535     2.490
    68   1 H        0.925     0.049     2.330     2.387
    69   1 H        0.925     0.064     2.148     2.292
    70   1 H        0.925     0.035     2.511     2.478
    71   1 H        0.925     0.053     2.289     2.366
    72   1 H        0.860     0.153     1.381     1.841

 Mol. C6AA /au·bohr⁶  :      47410.013865
 Mol. C8AA /au·bohr⁸  :    1082044.709869
 Mol. α(0) /au        :        334.236790


Wiberg/Mayer (AO) data.
largest (>0.10) Wiberg bond orders for each atom

 ---------------------------------------------------------------------------
     #   Z sym  total        # sym  WBO       # sym  WBO       # sym  WBO
 ---------------------------------------------------------------------------
     1   7 N    3.020 --     2 C    1.952    72 H    0.943
     2   6 C    3.934 --     1 N    1.952     3 C    0.994    47 H    0.915
     3   6 C    3.974 --     2 C    0.994     4 C    0.974    14 C    0.952
                            31 C    0.944
     4   6 C    3.948 --    13 C    1.413     5 C    1.369     3 C    0.974
     5   6 C    3.962 --     6 C    1.401     4 C    1.369    34 H    0.958
     6   6 C    3.904 --     5 C    1.401     9 C    1.225     7 O    1.095
     7   8 O    2.249 --     6 C    1.095     8 C    0.979
     8   6 C    3.933 --     7 O    0.979    36 H    0.977    35 H    0.974
                            37 H    0.973
     9   6 C    3.900 --    12 C    1.392     6 C    1.225    10 O    1.097
    10   8 O    2.248 --     9 C    1.097    11 C    0.979
    11   6 C    3.933 --    10 O    0.979    39 H    0.977    38 H    0.974
                            40 H    0.974
    12   6 C    3.963 --    13 C    1.407     9 C    1.392    41 H    0.964
    13   6 C    3.953 --     4 C    1.413    12 C    1.407    42 H    0.962
    14   6 C    3.979 --    15 C    0.992    44 H    0.972    43 H    0.968
                             3 C    0.952
    15   6 C    3.987 --    16 C    1.050    14 C    0.992    45 H    0.958
                            46 H    0.936
    16   6 C    3.663 --    17 N    1.335    15 C    1.050    48 H    0.961
                            18 C    0.213
    17   7 N    3.719 --    16 C    1.335    18 C    1.322    30 C    0.987
    18   6 C    3.626 --    17 N    1.322    19 C    1.042    50 H    0.960
                            16 C    0.213
    19   6 C    3.989 --    18 C    1.042    20 C    1.019    52 H    0.936
                            51 H    0.922
    20   6 C    3.730 --    29 C    1.565    21 C    1.030    19 C    1.019
    21   6 C    3.973 --    22 C    1.031    20 C    1.030    49 H    0.938
                            53 H    0.903
    22   6 C    3.795 --    23 C    1.586    21 C    1.031    54 H    0.963
                            24 O    0.108
    23   6 C    3.936 --    22 C    1.586    26 C    1.129    24 O    1.095
    24   8 O    2.263 --    23 C    1.095    25 C    0.976    22 C    0.108
    25   6 C    3.931 --    57 H    0.977    24 O    0.976    55 H    0.974
                            56 H    0.974
    26   6 C    3.682 --    29 C    1.288    27 O    1.151    23 C    1.129
    27   8 O    2.268 --    26 C    1.151    28 C    0.972
    28   6 C    3.926 --    58 H    0.976    59 H    0.972    27 O    0.972
                            60 H    0.972
    29   6 C    3.974 --    20 C    1.565    26 C    1.288    61 H    0.958
    30   6 C    3.957 --    17 N    0.987    64 H    0.973    62 H    0.970
                            63 H    0.966
    31   6 C    3.973 --    32 C    1.008    33 C    1.008    65 H    0.960
                             3 C    0.944
    32   6 C    3.981 --    31 C    1.008    68 H    0.982    67 H    0.982
                            66 H    0.975
    33   6 C    3.980 --    31 C    1.008    70 H    0.983    71 H    0.980
                            69 H    0.975
    34   1 H    0.996 --     5 C    0.958
    35   1 H    0.994 --     8 C    0.974
    36   1 H    0.993 --     8 C    0.977
    37   1 H    0.994 --     8 C    0.973
    38   1 H    0.993 --    11 C    0.974
    39   1 H    0.993 --    11 C    0.977
    40   1 H    0.993 --    11 C    0.974
    41   1 H    0.996 --    12 C    0.964
    42   1 H    0.998 --    13 C    0.962
    43   1 H    0.995 --    14 C    0.968
    44   1 H    0.996 --    14 C    0.972
    45   1 H    0.994 --    15 C    0.958
    46   1 H    0.974 --    15 C    0.936
    47   1 H    0.982 --     2 C    0.915
    48   1 H    0.997 --    16 C    0.961
    49   1 H    0.969 --    21 C    0.938
    50   1 H    0.997 --    18 C    0.960
    51   1 H    0.967 --    19 C    0.922
    52   1 H    0.975 --    19 C    0.936
    53   1 H    0.949 --    21 C    0.903
    54   1 H    0.995 --    22 C    0.963
    55   1 H    0.995 --    25 C    0.974
    56   1 H    0.995 --    25 C    0.974
    57   1 H    0.993 --    25 C    0.977
    58   1 H    0.992 --    28 C    0.976
    59   1 H    0.990 --    28 C    0.972
    60   1 H    0.990 --    28 C    0.972
    61   1 H    0.996 --    29 C    0.958
    62   1 H    0.993 --    30 C    0.970
    63   1 H    0.993 --    30 C    0.966
    64   1 H    0.993 --    30 C    0.973
    65   1 H    0.992 --    31 C    0.960
    66   1 H    0.992 --    32 C    0.975
    67   1 H    0.997 --    32 C    0.982
    68   1 H    0.995 --    32 C    0.982
    69   1 H    0.992 --    33 C    0.975
    70   1 H    0.997 --    33 C    0.983
    71   1 H    0.994 --    33 C    0.980
    72   1 H    0.970 --     1 N    0.943
 ---------------------------------------------------------------------------

Topologies differ in total number of bonds
Writing topology from bond orders to xtbtopo.mol

molecular dipole:
                 x           y           z       tot (Debye)
 q only:        1.867      -0.441      -1.026
   full:        2.104      -0.597      -1.194       6.333
molecular quadrupole (traceless):
                xx          xy          yy          xz          yz          zz
 q only:       58.385      -2.365     -18.299       6.732      -9.540     -40.086
  q+dip:       53.238       1.002     -18.128       8.480     -12.721     -35.110
   full:       52.637       0.905     -18.613       6.296     -12.988     -34.024

           -------------------------------------------------
          |                Geometry Summary                 |
           -------------------------------------------------

      molecular mass/u    :      455.6105846
   center of mass at/Å    :       -0.0211070      -0.0083240       0.0108692
  moments of inertia/u·Å² :        0.2532966E+04   0.1111250E+05   0.1240707E+05
rotational constants/cm⁻¹ :        0.6655294E-02   0.1516997E-02   0.1358711E-02

 * 62 selected distances

     #   Z          #   Z                                           value/Å
     1   7 N        2   6 C                                       1.2501643
     4   6 C        5   6 C                                       1.3962714
     5   6 C        6   6 C                                       1.3849623
     6   6 C        7   8 O                                       1.3505424
     7   8 O        8   6 C                                       1.4078490
     6   6 C        9   6 C                                       1.4203143
     9   6 C       10   8 O                                       1.3497503
    10   8 O       11   6 C                                       1.4080654
     9   6 C       12   6 C                                       1.3855253
     4   6 C       13   6 C                                       1.3864046
    12   6 C       13   6 C                                       1.3884220
    14   6 C       15   6 C                                       1.5365429 (max)
    15   6 C       16   6 C                                       1.4852074
    16   6 C       17   7 N                                       1.3343919
    17   7 N       18   6 C                                       1.3381511
    22   6 C       23   6 C                                       1.3540325
    23   6 C       24   8 O                                       1.3478770
    24   8 O       25   6 C                                       1.4095451
    26   6 C       27   8 O                                       1.3348278
    27   8 O       28   6 C                                       1.4092905
    20   6 C       29   6 C                                       1.3644430
    26   6 C       29   6 C                                       1.4024206
    17   7 N       30   6 C                                       1.4524999
    31   6 C       32   6 C                                       1.5270248
    31   6 C       33   6 C                                       1.5262143
     5   6 C       34   1 H                                       1.0773926
     8   6 C       35   1 H                                       1.0941456
     8   6 C       36   1 H                                       1.0882130
     8   6 C       37   1 H                                       1.0949359
    11   6 C       38   1 H                                       1.0940690
    11   6 C       39   1 H                                       1.0882457
    11   6 C       40   1 H                                       1.0948858
    12   6 C       41   1 H                                       1.0779140
    13   6 C       42   1 H                                       1.0789401
    14   6 C       43   1 H                                       1.0899158
    14   6 C       44   1 H                                       1.0903268
    15   6 C       45   1 H                                       1.0888814
    15   6 C       46   1 H                                       1.0991202
    16   6 C       48   1 H                                       1.0785200
    21   6 C       49   1 H                                       0.7434216 (min)
    18   6 C       50   1 H                                       1.0757515
    19   6 C       51   1 H                                       1.1012124
    19   6 C       52   1 H                                       1.0978436
    21   6 C       53   1 H                                       1.1165233
    22   6 C       54   1 H                                       1.0777985
    25   6 C       55   1 H                                       1.0941372
    25   6 C       56   1 H                                       1.0940842
    25   6 C       57   1 H                                       1.0880409
    28   6 C       58   1 H                                       1.0886985
    28   6 C       59   1 H                                       1.0940968
    28   6 C       60   1 H                                       1.0943892
    29   6 C       61   1 H                                       1.0800072
    30   6 C       62   1 H                                       1.0895693
    30   6 C       63   1 H                                       1.0908623
    30   6 C       64   1 H                                       1.0838666
    31   6 C       65   1 H                                       1.0965533
    32   6 C       66   1 H                                       1.0854056
    32   6 C       67   1 H                                       1.0873511
    32   6 C       68   1 H                                       1.0868639
    33   6 C       69   1 H                                       1.0853200
    33   6 C       70   1 H                                       1.0865165
    33   6 C       71   1 H                                       1.0869413

 * 4 distinct bonds (by element types)

   Z      Z             #   av. dist./Å        max./Å        min./Å
   1 H    6 C          37     1.0800206     1.1165233     0.7434216
   6 C    6 C          13     1.4275219     1.5365429     1.3540325
   6 C    7 N           4     1.3438018     1.4524999     1.2501643
   6 C    8 O           8     1.3772184     1.4095451     1.3348278


optimized geometry written to: xtbopt.xyz


           -------------------------------------------------
          | TOTAL ENERGY             -101.997919597647 Eh   |
          | GRADIENT NORM               0.003457775499 Eh/α |
          | HOMO-LUMO GAP               0.900862024607 eV   |
           -------------------------------------------------

------------------------------------------------------------------------
 * finished run on 2024/04/06 at 11:16:58.310     
------------------------------------------------------------------------
 total:
 * wall-time:     0 d,  0 h,  0 min,  7.307 sec
 *  cpu-time:     0 d,  0 h,  0 min,  7.267 sec
 * ratio c/w:     0.994 speedup
 SCF:
 * wall-time:     0 d,  0 h,  0 min,  0.192 sec
 *  cpu-time:     0 d,  0 h,  0 min,  0.191 sec
 * ratio c/w:     0.997 speedup
 ANC optimizer:
 * wall-time:     0 d,  0 h,  0 min,  7.075 sec
 *  cpu-time:     0 d,  0 h,  0 min,  7.051 sec
 * ratio c/w:     0.997 speedup

