25
 energy: -43.830991903421 gnorm: 0.113718140206 xtb: 6.6.1 (8d0f1dd)
C            3.24161767892232        1.17485672865237        0.08727253133821
N            2.30660535695206        0.08706271664533        0.04049682767216
C            2.59819859088042       -1.21611653516994        0.03094649934519
N            1.45294624432693       -1.93508389989367        0.00030011035552
C            0.40534317799001       -1.06296304572079       -0.01160166088908
C            0.94102473686229        0.22199867459949        0.01619763496966
C            0.10319978818140        1.40047841998489       -0.00382166368142
O            0.50227548101686        2.55105121569887       -0.00180540038734
N           -1.24860768798678        1.05510161066825       -0.03372353009601
C           -2.21447130421053        2.14917990443053       -0.05532494279842
C           -1.80728317225777       -0.20150347456128       -0.05303653798473
O           -3.00651517505051       -0.38176837940450       -0.08343283716276
N           -0.94313822359558       -1.31610327479760       -0.02773052254798
C           -1.51329178082151       -2.63800156284475       -0.04960482321924
H            3.72632761187726        1.22166204444622        1.06738904195914
H            4.01030006165641        1.05443365467878       -0.67636815320914
H            2.69965105849277        2.10792148814012       -0.07753339254983
H            3.58480984860108       -1.63461793081537        0.04549802855317
H           -1.66349817687451        3.08623937663393       -0.02888428256516
H           -2.81706048972046        2.09004144162764       -0.96066110264181
H           -2.87365946369707        2.07246342616064        0.80679732522023
H           -1.12511370083749       -3.23225261122845        0.77522148362974
H           -1.26418224924657       -3.15082090853402       -0.93978166337299
H           -2.64977692455685       -2.62636255229911       -0.03225109946639
H            1.40458357638632       -2.93868269556835       -0.01313311422535
25
 energy: -43.836413928486 gnorm: 0.040860369171 xtb: 6.6.1 (8d0f1dd)
C            3.24425683219886        1.18183387802420        0.08973875121554
N            2.30968071812502        0.09971835037139        0.03860236384029
C            2.60625278542471       -1.23224964931969        0.03093619520867
N            1.43533527795288       -1.93971775648358        0.00034215963803
C            0.40049435908570       -1.06274281421538       -0.00984693105907
C            0.92921363637860        0.22347745383891        0.01500699974877
C            0.10549738460096        1.39031840557867       -0.00489797458257
O            0.49869546556173        2.56021914585948       -0.00301772487621
N           -1.26042737584967        1.04560916951276       -0.03336658489686
C           -2.21758323889694        2.14304436764198       -0.05542121138657
C           -1.81681912942817       -0.20312515512854       -0.05131619935295
O           -3.01770368711851       -0.38356294082833       -0.08468280604755
N           -0.94544690275926       -1.31164540795152       -0.02892042223725
C           -1.49617041661971       -2.64322644908002       -0.05673034540838
H            3.73151032592284        1.22591018306260        1.06916329846776
H            4.01019031301918        1.05905430942013       -0.67832992168058
H            2.69579652137287        2.10848657991309       -0.07500017726035
H            3.58633537311032       -1.65410178071574        0.04531225027364
H           -1.65244791047170        3.07240333067130       -0.02913219465469
H           -2.81995426731318        2.09029604553111       -0.96184560610083
H           -2.87721251195790        2.07333201803154        0.80843138821103
H           -1.13627407221711       -3.22700304285427        0.79305340394424
H           -1.24277706384189       -3.15963263900683       -0.97514458535369
H           -2.59863059496434       -2.57564015613632       -0.00763112217113
H            1.37847304197523       -2.94284161420773       -0.01387824723391
25
 energy: -43.837500582220 gnorm: 0.017572153888 xtb: 6.6.1 (8d0f1dd)
C            3.24528480951606        1.18514674174988        0.08878846170780
N            2.30984832275413        0.11037272976864        0.03556552564761
C            2.61509854761571       -1.23138195563715        0.03146107882464
N            1.43597258181175       -1.93839494072507        0.00135840280597
C            0.39982549609984       -1.06735992857667       -0.00808877892872
C            0.92272559800662        0.22263898973145        0.01392057783399
C            0.11511195658591        1.38435378062446       -0.00428255554370
O            0.50488108348852        2.56100683763027       -0.00126115006343
N           -1.26068328263345        1.04663715660652       -0.03366540963246
C           -2.21374627092327        2.14727844963893       -0.05544312040076
C           -1.81492504692421       -0.19837572646633       -0.05109650095515
O           -3.01588935026400       -0.37586706662015       -0.08166287593005
N           -0.95009486841870       -1.31154897965240       -0.02540314710891
C           -1.51732509121742       -2.64552064486663       -0.04950905474952
H            3.72893371357772        1.22452647936714        1.06960747790541
H            4.01294447583170        1.05475189174401       -0.67714233702436
H            2.69988525794423        2.11117942152120       -0.07981656540176
H            3.59466848355137       -1.64066308678718        0.04574972941477
H           -1.65793832305981        3.08307644314850       -0.02843164883966
H           -2.81651879725715        2.09304476349819       -0.96132253396785
H           -2.87414029606726        2.07491783106433        0.80766818871804
H           -1.14002970940097       -3.23264779240660        0.78935066527272
H           -1.25327153901473       -3.16049025529772       -0.97113711115512
H           -2.61284483761543       -2.61691616203882       -0.02155913445872
H            1.39251194930334       -2.94155114548958       -0.01222342772541
25
 energy: -43.837708694909 gnorm: 0.009824903144 xtb: 6.6.1 (8d0f1dd)
C            3.24527234207642        1.18015943365928        0.09122180393521
N            2.30932618601603        0.10789425615455        0.03646000604596
C            2.61343270502700       -1.23393233037900        0.03112563842825
N            1.43548756298320       -1.93810263506514       -0.00124398853527
C            0.40290582081869       -1.06738192902877       -0.01111174153281
C            0.92291117334989        0.22337687234749        0.01434854215636
C            0.11638654632574        1.38411832583982       -0.00447849253901
O            0.49832460161199        2.56053631393787       -0.00172077604142
N           -1.26219731111207        1.04712593841584       -0.03540133350736
C           -2.21739358039940        2.14431201390617       -0.05640258078108
C           -1.81112865183334       -0.19893308209989       -0.05413344500715
O           -3.01062385369844       -0.38362656785352       -0.08601254551293
N           -0.94499516908969       -1.30857768647157       -0.02837692470735
C           -1.51760959714612       -2.63866536009756       -0.04550149521448
H            3.73186836765279        1.21911671914059        1.07022353966437
H            4.01038552914527        1.05554531321195       -0.67783369740534
H            2.69888683606194        2.10669634361383       -0.07178957341031
H            3.59095923076197       -1.64314068645184        0.04486514045769
H           -1.66100225022461        3.07934669340606       -0.02978583183790
H           -2.82098174623757        2.08836946715515       -0.96180656391564
H           -2.87719869035176        2.07070907854499        0.80724507700979
H           -1.12642017652315       -3.22544455165026        0.78624948318749
H           -1.25552400272734       -3.15480967817657       -0.96305766128815
H           -2.61711576073986       -2.59492094561588       -0.01561081728862
H            1.39632875154293       -2.94155748491433       -0.01604700611492
25
 energy: -43.837739581642 gnorm: 0.006602961954 xtb: 6.6.1 (8d0f1dd)
C            3.24249433411727        1.18022448994492        0.08732391671909
N            2.30744040303375        0.10589467388567        0.03692330271099
C            2.60936288612606       -1.23506852559506        0.03459988406093
N            1.43220346196733       -1.93774825635980        0.00351597735308
C            0.40127739200868       -1.06766406337740       -0.00804689946613
C            0.92187307653633        0.22327124546941        0.01644391349094
C            0.11665754909070        1.38433422051851       -0.00331414766198
O            0.49558976275198        2.55936166412463       -0.00266179710384
N           -1.26346493231770        1.04744556657328       -0.03232343402941
C           -2.21453149814952        2.14700363459838       -0.05422048401588
C           -1.81253853891240       -0.19945099280691       -0.05050218734852
O           -3.01233357168013       -0.38453640175061       -0.08272919523338
N           -0.94555411293673       -1.30947403680218       -0.02820726963581
C           -1.51243762124418       -2.64255386100298       -0.05169428527539
H            3.72789831096755        1.22832177323072        1.06655135076622
H            4.01003951103199        1.05579882286499       -0.67920910134083
H            2.69671185307256        2.10700351242149       -0.08186118570670
H            3.58681810034191       -1.64536785674008        0.04699538891136
H           -1.65140046360934        3.07792143630673       -0.02777835684622
H           -2.81716597367976        2.09407859449927       -0.96045610925598
H           -2.87467918719626        2.07758306740628        0.80948536394423
H           -1.13070295407710       -3.23046681534888        0.78343179018674
H           -1.24394756435040       -3.15775241059780       -0.96672918769294
H           -2.61305503324997       -2.59840920855044       -0.02444625189653
H            1.39372967364787       -2.94153644138289       -0.00966623938867
25
 energy: -43.837802747580 gnorm: 0.004389030349 xtb: 6.6.1 (8d0f1dd)
C            3.24474506378276        1.18093093337902        0.09091684824055
N            2.30911446834524        0.10658742776674        0.03560328705706
C            2.61057692390245       -1.23420032673548        0.03046578118320
N            1.43273832087560       -1.93667677521158       -0.00137617444109
C            0.40110179667390       -1.06734941184083       -0.01029669719230
C            0.92299019900326        0.22396731160413        0.01433908883465
C            0.11884784529659        1.38547748032073       -0.00462797923134
O            0.49819886176639        2.56027812106065       -0.00262905379814
N           -1.26279233433031        1.04831936093126       -0.03388286131923
C           -2.21563619122557        2.14617328032242       -0.05626751546274
C           -1.81311449304049       -0.19822739419120       -0.05111352855419
O           -3.01365433029593       -0.38091510976066       -0.08225580623160
N           -0.94667417054056       -1.30960657988289       -0.02849024135528
C           -1.51329327547625       -2.64408468521418       -0.04957231046128
H            3.72973547407922        1.22376729759243        1.07094805297600
H            4.01337706386236        1.05789920422904       -0.67496901459838
H            2.70109460391667        2.11004142753623       -0.07504706193443
H            3.58939089408281       -1.64386557198104        0.04230867734800
H           -1.65721696380306        3.07980495716830       -0.02942733450113
H           -2.81798813109722        2.09137621227780       -0.96257419136980
H           -2.87609347663554        2.07390389990894        0.80687224045090
H           -1.13665984094059       -3.23044978912838        0.78931522668864
H           -1.25021675920233       -3.16106687330867       -0.96584448389015
H           -2.61258506459110       -2.60322403185473       -0.01514137000259
H            1.39429837888219       -2.94064653345881       -0.01582882218996
25
 energy: -43.837811240147 gnorm: 0.003425197056 xtb: 6.6.1 (8d0f1dd)
C            3.24475734646476        1.18066125171051        0.08852235941326
N            2.30999889116569        0.10664811554370        0.03643263101299
C            2.61251826637494       -1.23446089827852        0.03401405265859
N            1.43423414466643       -1.93718113111722        0.00203869778372
C            0.40205664460409       -1.06801338985107       -0.00900428278641
C            0.92332665075026        0.22363642153078        0.01523482711448
C            0.11991233513201        1.38499990710688       -0.00410214600198
O            0.49889264554261        2.56052490725520       -0.00084898155410
N           -1.26268716765006        1.04780222385813       -0.03452727723326
C           -2.21651665832270        2.14484555581001       -0.05517952198745
C           -1.81253079393303       -0.19818455068370       -0.05312540986799
O           -3.01284878815283       -0.38125950354303       -0.08563746104544
N           -0.94620911875687       -1.30903297454004       -0.02839867489829
C           -1.51532072574159       -2.64168750264855       -0.05023898661340
H            3.73212648977015        1.22272217953347        1.06745775164979
H            4.01010205251359        1.05514762229965       -0.68042659003541
H            2.69856732212195        2.10816554726944       -0.07693469042473
H            3.59194323904699       -1.64273125043212        0.04813096699692
H           -1.66030498335203        3.07985492997806       -0.02829905577724
H           -2.82028227269734        2.08980131659554       -0.96054514651591
H           -2.87611110564956        2.07111474924941        0.80855379051401
H           -1.13322280703160       -3.22856916196249        0.78595755926921
H           -1.25413636635976       -3.15546587344837       -0.96892966958980
H           -2.61440681721838       -2.59982946359557       -0.01780359119566
H            1.39642644000277       -2.94129519611087       -0.01091639464052
25
 energy: -43.837828799284 gnorm: 0.002491104966 xtb: 6.6.1 (8d0f1dd)
C            3.24338661193903        1.18047269803071        0.09012792004850
N            2.30896607220207        0.10631735183049        0.03603508431198
C            2.61125064766671       -1.23484068502552        0.03182864054485
N            1.43325120532031       -1.93735384853701       -0.00029008167176
C            0.40145458704595       -1.06819506944618       -0.00938745246812
C            0.92229433143623        0.22354004698336        0.01493699027574
C            0.11908184709927        1.38459958519927       -0.00421395084653
O            0.49678919077920        2.56034913097917       -0.00235009483350
N           -1.26371405029318        1.04715961922514       -0.03398013305326
C           -2.21518549471131        2.14601782131854       -0.05582529263672
C           -1.81303902858320       -0.19896880198119       -0.05170068794173
O           -3.01306375095874       -0.38313890275572       -0.08309664098822
N           -0.94634629722883       -1.30930631721370       -0.02751283038980
C           -1.51424926564579       -2.64217949778100       -0.04839935435811
H            3.72846176585876        1.22322248214768        1.07006674077089
H            4.01053547945234        1.05593220489566       -0.67707454314600
H            2.69707419024335        2.10753563274056       -0.07625098864790
H            3.59024378981708       -1.64330558969456        0.04416947830138
H           -1.65521050147676        3.07893820794603       -0.02962757860172
H           -2.81832017504735        2.09220575595609       -0.96170255152139
H           -2.87540872776040        2.07575302881792        0.80777578501433
H           -1.12971910847925       -3.22791002433480        0.78741206668519
H           -1.24983092517492       -3.15662037089935       -0.96532500325585
H           -2.61395823394653       -2.60053163372257       -0.01958239192562
H            1.39554070373645       -2.94147899314980       -0.01460837342125
25
 energy: -43.837836884365 gnorm: 0.001566200472 xtb: 6.6.1 (8d0f1dd)
C            3.24488825670272        1.18063613235393        0.08950491096902
N            2.30937144908030        0.10643750708774        0.03592496913304
C            2.61055171672556       -1.23456467074770        0.03225315821483
N            1.43280939015868       -1.93675887901077        0.00048634218702
C            0.40132619660129       -1.06764301446760       -0.00958845997814
C            0.92270877704919        0.22415490818635        0.01494061605891
C            0.11946490576163        1.38538088586872       -0.00413712509621
O            0.49699460790608        2.56074056658287       -0.00228182642825
N           -1.26347645258748        1.04766008821036       -0.03377886617511
C           -2.21589668824365        2.14559938102861       -0.05537833732907
C           -1.81276510548153       -0.19865338690609       -0.05184898796148
O           -3.01285917737022       -0.38255062122039       -0.08346770876151
N           -0.94630148529295       -1.30941529714079       -0.02839839247120
C           -1.51411121543269       -2.64292456210353       -0.04983740598439
H            3.73048307955404        1.22460641123252        1.06910698988331
H            4.01277923223165        1.05640912223249       -0.67696375450552
H            2.70073086015676        2.10894733462976       -0.07730952793864
H            3.58922618467918       -1.64387289474350        0.04463572003769
H           -1.65729731501486        3.07925014424101       -0.02810782145023
H           -2.81847256646996        2.09145264888489       -0.96163447854611
H           -2.87646806625462        2.07339815317400        0.80778786327801
H           -1.13407163076089       -3.22977860959710        0.78700209397830
H           -1.25009958386825       -3.15904328010584       -0.96591937659702
H           -2.61390852077277       -2.60038981980337       -0.01853945682044
H            1.39467801423327       -2.94086441633733       -0.01302638145145
25
 energy: -43.837833241117 gnorm: 0.001684971304 xtb: 6.6.1 (8d0f1dd)
C            3.24330146521408        1.18089607844435        0.08973257881991
N            2.30941898355469        0.10597520387016        0.03638395603964
C            2.61144213330958       -1.23479045393288        0.03270583331162
N            1.43370527434253       -1.93732311670716        0.00040634219481
C            0.40159491121943       -1.06833803096044       -0.00942942746453
C            0.92279498814900        0.22341905505144        0.01524736067274
C            0.12035809237064        1.38492470342964       -0.00414588758694
O            0.49868537130446        2.56013141248848       -0.00174765186489
N           -1.26297042726722        1.04774806782136       -0.03405650852275
C           -2.21524370405881        2.14586988978989       -0.05596735322744
C           -1.81269112145802       -0.19822797930933       -0.05171336278606
O           -3.01296302645744       -0.38138539453915       -0.08374055907623
N           -0.94637667086174       -1.30936459244639       -0.02812146655125
C           -1.51419746790984       -2.64262013691133       -0.04990866846419
H            3.72996655958212        1.22322575286742        1.06894004220278
H            4.00927876113795        1.05738409660718       -0.67879818858846
H            2.69648947958700        2.10811721540063       -0.07513755213680
H            3.59074744638807       -1.64328935843749        0.04580814531800
H           -1.65703773504410        3.07980754429172       -0.03044015602915
H           -2.81907850290613        2.09084909292912       -0.96133824516047
H           -2.87475446720207        2.07448023671009        0.80805976164344
H           -1.13252059743091       -3.22937795161907        0.78638296808637
H           -1.25194593440264       -3.15698891398103       -0.96774509438208
H           -2.61356707122328       -2.60143910839035       -0.01650476268872
H            1.39584812335315       -2.94146948093761       -0.01344734751398
25
 energy: -43.823516755570 gnorm: 0.110119344994 xtb: 6.6.1 (8d0f1dd)
C            3.24596424202723        1.18340026501498        0.09028180212350
N            2.31435447505468        0.09888803833916        0.04126705901883
C            2.61605038145113       -1.21714855742177        0.03208120824244
N            1.46746064280496       -1.93233261159717        0.00098214384511
C            0.41893704141287       -1.07106850134036       -0.01220272449566
C            0.94931391650204        0.22300129562384        0.01829992686841
C            0.11173424858939        1.39567733826700       -0.00352748220365
O            0.50780660004229        2.55879541608381        0.00043145975515
N           -1.24614601715331        1.04794363663627       -0.03705283704063
C           -2.20975181550027        2.14362529076063       -0.06087967802082
C           -1.79673901348115       -0.20312334261807       -0.05839645864557
O           -3.00185199824580       -0.38372670217110       -0.09774937613752
N           -0.94640990293060       -1.33307736674249       -0.01269734483917
C           -1.55662404353895       -2.63136942792324       -0.03766141821775
H            3.74038436910578        1.22816084763772        1.06938408009377
H            4.01168606710777        1.07458924261877       -0.67913870224379
H            2.70023589199408        2.11783358417770       -0.06357450592877
H            3.60237273229768       -1.63145141439918        0.04897134068258
H           -1.65586191124833        3.07950965219934       -0.03247317878602
H           -2.80979941214408        2.08598492019806       -0.96819661143629
H           -2.87102546802344        2.06785905622611        0.79886832044195
H           -1.07812525380000       -3.26939371875963        0.71903343687084
H           -1.38380316597145       -3.12873202030986       -0.94006743142257
H           -2.73936172058185       -2.68741212672651        0.02686758688887
H            1.42794085540249       -2.93455282158457       -0.01231749038065
25
 energy: -43.830754383477 gnorm: 0.045525180003 xtb: 6.6.1 (8d0f1dd)
C            3.24512866751255        1.18728632247792        0.09267460564973
N            2.31247403270772        0.10505287064576        0.03967018023612
C            2.61639906470635       -1.23032140298653        0.03203375860664
N            1.44652571642392       -1.93804382236823        0.00172950297402
C            0.40563816849754       -1.07188909523158       -0.00800325851944
C            0.93162441771708        0.22051032500106        0.01779747131050
C            0.11104199568922        1.38454401934186       -0.00367960257284
O            0.50214816876369        2.55769391089373       -0.00066967984587
N           -1.25788550586981        1.04086440185863       -0.03561669148908
C           -2.21285063593509        2.13945361085074       -0.06128486560272
C           -1.80991774533240       -0.20508809105263       -0.05474738730306
O           -3.01245474631482       -0.38363962846319       -0.10056314801793
N           -0.94984677753613       -1.32520675833153       -0.01532419372883
C           -1.52452982055128       -2.64561797617513       -0.05465574653482
H            3.74130120392538        1.22874435026963        1.06928578497230
H            4.00839150101125        1.07567016397890       -0.68041662159524
H            2.69523214027640        2.11582605438957       -0.06137067686315
H            3.59840611488156       -1.64627555799177        0.04823275986938
H           -1.64611358122242        3.06794454371260       -0.03304777397555
H           -2.81241403573149        2.08690042076970       -0.96955973753696
H           -2.87483185978796        2.06959612208119        0.80038530796184
H           -1.10337731459068       -3.26637864545227        0.74557344726302
H           -1.35041011462082       -3.14169698000052       -0.99815005673605
H           -2.64246504134802       -2.60250833273062        0.07343845087965
H            1.40152772790143       -2.94154085329787       -0.01319870436907
25
 energy: -43.832791947699 gnorm: 0.019001215274 xtb: 6.6.1 (8d0f1dd)
C            3.24899260326068        1.19183516485157        0.09212212519348
N            2.31537785125192        0.11236736095283        0.03649533748950
C            2.62376428713915       -1.22859976178884        0.03166629133540
N            1.44694292985197       -1.93666450392796        0.00256165397112
C            0.40230356807005       -1.07492219970948       -0.00528474315720
C            0.92730937783335        0.21957197217257        0.01536419494621
C            0.12012550955971        1.38180835766348       -0.00491278018082
O            0.50744393280799        2.55854969901738       -0.00085935681998
N           -1.25586371001184        1.04261714460632       -0.03695940513728
C           -2.20893137371362        2.14195547188982       -0.06133305447626
C           -1.81029117752579       -0.20089561573371       -0.05404411777211
O           -3.01178693031991       -0.37538363644954       -0.09367173163206
N           -0.95609827068734       -1.32239259650624       -0.00804499085459
C           -1.55152581512240       -2.64655917715673       -0.03744072307345
H            3.74274519406145        1.23029596732632        1.06907767209507
H            4.01348049584484        1.07594665390630       -0.67989914693653
H            2.70064771416417        2.11924660753207       -0.06460074797989
H            3.60577955551705       -1.63739183801591        0.04880765226188
H           -1.64868470916551        3.07461756128284       -0.03244014424663
H           -2.80957136165408        2.08832440849030       -0.96871439434813
H           -2.87117116373686        2.06968475203787        0.80035709340874
H           -1.10361579240098       -3.26561088783757        0.74163720182444
H           -1.36561200592113       -3.13688486248031       -0.98724742988190
H           -2.65497829315722       -2.65921450321242        0.03907175361545
H            1.41195932522752       -2.94042156672154       -0.01117508461188
25
 energy: -43.832831720349 gnorm: 0.013713785560 xtb: 6.6.1 (8d0f1dd)
C            3.24896019500779        1.19000224512334        0.09555678180549
N            2.31749108144667        0.11200025457270        0.03750801402964
C            2.62761778667412       -1.22919531506071        0.03162377482177
N            1.45220980164881       -1.93679024204258       -0.00186710342971
C            0.40846870380637       -1.07716492653378       -0.01272952568943
C            0.92879221061810        0.21951559779578        0.01506979255387
C            0.12379056706284        1.38171072658404       -0.00283202995006
O            0.50270724569093        2.55979567978923        0.00450432867051
N           -1.25516704834648        1.04191239528951       -0.03953382419770
C           -2.21165806006495        2.13804705758145       -0.06274369858353
C           -1.80392157536176       -0.20375982350248       -0.06147290325214
O           -3.00390813261146       -0.38517928757151       -0.10467151235207
N           -0.94890790971762       -1.32195211352753       -0.01628666505885
C           -1.56268527766283       -2.64099223831163       -0.03062487714410
H            3.74216375255179        1.22627296331360        1.07241221864331
H            4.01117770456819        1.07576836321282       -0.67868395380505
H            2.69802516345243        2.11622921928582       -0.05874814570708
H            3.60820549859617       -1.63640428814492        0.04975670742923
H           -1.65525050344703        3.07282390533396       -0.03251022230798
H           -2.81236119620061        2.08395192300730       -0.97017633235534
H           -2.87517378513273        2.06398005945533        0.79801068870541
H           -1.08601815656873       -3.26172040916329        0.72833928969211
H           -1.38283213826562       -3.13436130280996       -0.97644090268097
H           -2.67651798552201       -2.63218591283791        0.06356652811450
H            1.42353379895077       -2.94042455864915       -0.01649330291923
25
 energy: -43.833142183142 gnorm: 0.007866489610 xtb: 6.6.1 (8d0f1dd)
C            3.24698449787688        1.18811916664038        0.09132134615207
N            2.31465255086328        0.11056890951058        0.03846884362584
C            2.62206301716406       -1.23086621603794        0.03463441608326
N            1.44658093858674       -1.93616476588904        0.00469431133886
C            0.40587411026787       -1.07554068282214       -0.00599951933553
C            0.92648150016536        0.22079762593043        0.01897261987499
C            0.12260445071537        1.38310049347149       -0.00256927429378
O            0.49971958985180        2.56062789183115       -0.00166205858907
N           -1.25774419926317        1.04323961071824       -0.03524606632046
C           -2.21042286227320        2.14192152716617       -0.06024088175576
C           -1.80650301656177       -0.20331026146658       -0.05470742671341
O           -3.00696537044602       -0.38489333211837       -0.09776334737596
N           -0.94958554912308       -1.32117399956436       -0.01417649344826
C           -1.55364082205105       -2.64532281904044       -0.03943735651031
H            3.74163119590818        1.22888817297897        1.06721856585821
H            4.00883443272029        1.07254152395921       -0.68296070175733
H            2.69748048946235        2.11520915754355       -0.06538042018719
H            3.60144522723835       -1.64040650585548        0.04915953504883
H           -1.64805853576680        3.07334942903553       -0.03292274321494
H           -2.81175188066704        2.08869751286097       -0.96736408563492