72
 energy: 0.000000000000 xtb: 6.6.1 (8d0f1dd)
N           -1.47310921155849        2.74401293103706        2.22063921685122
C           -1.55658879776851        2.16490285539332        1.13274273951491
C           -2.74549199786261        2.05621232186130        0.23826248438941
C           -3.31377553111525        0.64333411542669        0.32332512650568
C           -4.30230156009016        0.24487110156316       -0.58026161703006
C           -4.85238763031941       -1.02286490450319       -0.53363588718165
O           -5.81419972815119       -1.48606034185536       -1.36157882725342
C           -6.39655633239252       -0.60827000183299       -2.29568474302620
C           -4.39972501531283       -1.94646102182611        0.44396929121966
O           -4.98748311285188       -3.16145997157803        0.41085992006324
C           -4.66362127904578       -4.10093827755394        1.40909127743729
C           -3.42072513477031       -1.54561384810496        1.33436546260297
C           -2.88302799614223       -0.26315800396994        1.27400150770375
C           -2.19303798107274        2.30467000305896       -1.18742977106749
C           -1.26651538239283        1.17243369445008       -1.65249429687285
C            0.01082524939134        1.09745454476277       -0.89354803499847
N            0.61779393476578       -0.02034948052406       -0.57705522512502
C            2.00145210352228       -0.02376006389122       -0.15611399603240
C            2.92554934655222       -0.53865282675074       -1.27700088804721
C            4.35756843073516       -0.43050757231754       -0.83075544324989
C            5.07346135469827        0.73206409086248       -1.03980965825901
C            6.38627986649936        0.84224441421807       -0.60344822702769
C            7.00047264773336       -0.20824756335880        0.05722314418200
O            8.26703657141718       -0.21011313101264        0.52410943644933
C            9.06912227848686        0.92943601033931        0.31863058007678
C            6.27039964270142       -1.40439753960823        0.28033466008274
O            6.94829939911432       -2.38012925705718        0.92751999079483
C            6.31537317745639       -3.61583200086742        1.15217711710877
C            4.96302794628964       -1.49347471867959       -0.16064430359178
C           -0.05511211367372       -1.29906247805359       -0.62085686319744
C           -3.86758037025447        3.07992600430699        0.58498060215443
C           -4.49286159663096        2.77383493050346        1.94313289484366
C           -3.39165179876499        4.52917666589254        0.54797523472093
H           -4.66030026466202        0.94509067363451       -1.31640568823548
H           -6.85037928558380        0.25803162192116       -1.80468845313260
H           -7.17287442604349       -1.18600110843259       -2.79318157561361
H           -5.66836817451085       -0.26952966318766       -3.04040255244073
H           -4.88416720672258       -3.71589460520039        2.40913542187496
H           -5.29223570620378       -4.96637458756866        1.20969236903657
H           -3.61139813139015       -4.39919835331056        1.35529357841967
H           -3.07077796610445       -2.21868765711333        2.10002662693138
H           -2.14562754426994        0.02067850696302        2.01001344383370
H           -3.02188875377605        2.38238012313952       -1.88813545054866
H           -1.65198530896729        3.25146700677685       -1.20556284570283
H           -1.81103374245520        0.23006524641044       -1.62116301628650
H           -0.99335688527853        1.37490212198123       -2.69443256973690
H           -0.67628064361333        1.65183887049447        0.61785727145403
H            0.63525841192517        1.98466369793744       -0.92314021190751
H            2.11132552493482       -0.65949692842762        0.72532613231274
H            2.30680473056284        0.98978251704176        0.11078972794250
H            2.76694198818247        0.06750735147374       -2.17075252200790
H            2.67954581369920       -1.57455627803457       -1.51167743520200
H            4.62169998552446        1.56295612048703       -1.56123579000624
H            6.92357674630170        1.75715815945204       -0.79119596719031
H            8.65159112996149        1.81001823324363        0.81701555159939
H            9.20136171144928        1.14042857828877       -0.74698991949293
H           10.03428838009630        0.69003240176163        0.76064937965836
H            7.05567174969094       -4.23621171795340        1.65347565939075
H            5.43848001056755       -3.50813558175093        1.79970565785717
H            6.02060041905269       -4.09420497120334        0.21253282636366
H            4.40102758497114       -2.40127266373392       -0.00490198249042
H           -0.22071299714579       -1.61775583601871       -1.65116008982042
H           -1.01972258008625       -1.24102717432227       -0.10935206830928
H            0.55899954147532       -2.04486085926761       -0.12333730421426
H           -4.63991875734388        2.95501092798550       -0.18098088071825
H           -3.76095216473977        2.90314704960906        2.73380821053058
H           -4.87457614030224        1.75695641518947        1.97884603101694
H           -5.31925552549014        3.45579210326349        2.12325564252114
H           -2.60025590131176        4.69225046143352        1.27368918226171
H           -3.03987406413880        4.81897652321898       -0.43870975059559
H           -4.22191740670577        5.18069648090034        0.80616693961239
H           -0.59832433787845        2.77744694953323        2.72958984441332
72
 energy: -3.969277976279 xtb: 6.6.1 (8d0f1dd)
N           -1.46826627317150        2.78322232403477        2.22873735584462
C           -1.55863535932442        2.13205793202264        1.16457039219013
C           -2.73670316950319        2.04274808052123        0.24383845478964
C           -3.31702683092741        0.62860405952519        0.35172473106193
C           -4.30382083327941        0.22742723258043       -0.55149286602420
C           -4.85200693263344       -1.04132403266799       -0.51610872542612
O           -5.81211936937460       -1.50347339797369       -1.35714471243696
C           -6.38348031309287       -0.61765436195965       -2.28809820497901
C           -4.40834116182192       -1.96956500393175        0.45610178791878
O           -4.99785419843377       -3.19145498085968        0.40873161862454
C           -4.67709884720004       -4.13606279287932        1.40060327352240
C           -3.44087717024183       -1.57059000952194        1.35794766898273
C           -2.90398865414899       -0.28559079423404        1.30784153755558
C           -2.17361873841914        2.33936342484904       -1.20128782118842
C           -1.25510981510385        1.21524616504887       -1.67895826365804
C            0.01721535110176        1.15477285771925       -0.90868565598094
N            0.62918584522665       -0.00870783720599       -0.57398192601895
C            2.00189335995906       -0.01307210170745       -0.16090311794706
C            2.92841742316692       -0.52850226796384       -1.27929888809795
C            4.35592566630130       -0.42554283124972       -0.83891979771662
C            5.07384075685296        0.73766949416424       -1.04152373839129
C            6.38446350204927        0.84512703132566       -0.60097991060317
C            6.99479811574599       -0.20801013296789        0.05860285598721
O            8.26909899538966       -0.21486854512344        0.52731281577929
C            9.06790899980606        0.92408008991908        0.32110939089645
C            6.26263811633000       -1.40008900520524        0.28064306394589
O            6.94147183253716       -2.38212339236629        0.92930422771872
C            6.30205535587228       -3.61375054773776        1.15105042129312
C            4.95768016001113       -1.48778373596126       -0.16321663145763
C           -0.06364327096538       -1.26858371141067       -0.63177698744279
C           -3.86300940448743        3.05739050159740        0.58682784324644
C           -4.48774272433404        2.80160845463345        1.95552686535116
C           -3.36997353787122        4.49687093824931        0.52011262986580
H           -4.65277051420709        0.92822031869326       -1.29083237777735
H           -6.83914165114405        0.24669884978950       -1.79439407706290
H           -7.15709902358242       -1.19078768878303       -2.79596622191842
H           -5.64887478829194       -0.27327039216028       -3.02397715374349
H           -4.90607948913324       -3.76042459008246        2.40278385948922
H           -5.30121660246240       -5.00243894569777        1.18919289755228
H           -3.62321463758354       -4.43021629715660        1.35359964048801
H           -3.09493681901774       -2.25208047896682        2.12006899089269
H           -2.16979509293633       -0.01116146867391        2.04936609577272
H           -2.97837719434619        2.43650460893700       -1.93574979158391
H           -1.60508401420040        3.27559493264104       -1.23953337155626
H           -1.81470902660578        0.28934560446929       -1.59700571495496
H           -1.02396815976194        1.37317635850205       -2.73816359058008
H           -0.69562193531621        1.58127364923718        0.69428734949273
H            0.65847894156009        2.02417795535956       -0.96703491897933
H            2.10759596698622       -0.64234018127624        0.72653914136688
H            2.30197448189745        1.00383511094473        0.10297178203962
H            2.76381390669491        0.07766002311490       -2.17163923072145
H            2.67089533929971       -1.56268565010140       -1.50897448650070
H            4.62155459617275        1.57057258111260       -1.55904594827748
H            6.92469331808676        1.75929417225281       -0.78745739619899
H            8.65033472731272        1.80537115893236        0.81922896843495
H            9.19949907160942        1.13664103315653       -0.74487872618954
H           10.03328737143852        0.68412870914006        0.76293663908945
H            7.03985888521759       -4.23792391849326        1.65226669391925
H            5.42434187890304       -3.50370321017743        1.79724740024172
H            6.00460083160563       -4.09024067336511        0.21085032879033
H            4.39073434181900       -2.39245146055183       -0.00535978474901
H           -0.23101705608489       -1.58345697829442       -1.66639244646440
H           -1.03200130898397       -1.19485397970232       -0.12822890303269
H            0.53636988657274       -2.02187022235607       -0.12963988106015
H           -4.64362387395338        2.92678106753432       -0.17009722836225
H           -3.74686691644373        2.94445904344956        2.73556912561241
H           -4.87920646540364        1.79044552843287        2.01992474840482
H           -5.30751012139566        3.49807427833039        2.11726702459213
H           -2.57552665320361        4.66124670434611        1.24176444644121
H           -3.00857629974682        4.74884120266941       -0.47273856279584
H           -4.19480497961304        5.16417921766407        0.75558471888167
H           -0.57938860490995        2.78323576081207        2.71993660192129
72
 energy: 1.162450836747 xtb: 6.6.1 (8d0f1dd)
N           -1.45256374728858        2.85110061704414        2.21830009479392
C           -1.55747092090250        2.08160840113126        1.20515639910418
C           -2.72484257261914        2.02330414494142        0.25267577210136
C           -3.31099056739567        0.60035921657230        0.38262009888922
C           -4.30249296775968        0.19661899659130       -0.51303388901181
C           -4.85251748683512       -1.07128258922330       -0.48875852526050
O           -5.80904228309870       -1.53046339608808       -1.34957681494242
C           -6.36247810154870       -0.63257587074621       -2.27585964236077
C           -4.42302112247013       -2.00612623435980        0.47600167458588
O           -5.01332444437140       -3.23800266900790        0.40597625010685
C           -4.69853775144010       -4.19232139038246        1.38660855605851
C           -3.47312439732515       -1.60858424041067        1.39577064836221
C           -2.93218305007795       -0.32253436598979        1.35517795664746
C           -2.14000388486178        2.39057590978352       -1.22177143975662
C           -1.23912567628147        1.26783055062666       -1.70569564610868
C            0.03072507717728        1.23389917406178       -0.93765662568239
N            0.64034660970665        0.02072522040229       -0.57750705654028
C            1.99784867352835        0.01377857002158       -0.16931771233020
C            2.92918577727177       -0.51024703779849       -1.28148028032387
C            4.35076565904986       -0.41522056058097       -0.84530401457277
C            5.07352483844075        0.74654108111579       -1.04194290568050
C            6.38264885195498        0.84925287584178       -0.59756825247246
C            6.98554542454559       -0.20774062202220        0.05994131618953
O            8.26936399095788       -0.22194064987490        0.53083022898419
C            9.06482405740985        0.91531604689200        0.32496881585809
C            6.25046199974025       -1.39334369148053        0.28013311820543
O            6.92883233758091       -2.38456778401611        0.93081659395041
C            6.27980510472401       -3.60995869261256        1.14884354185481
C            4.94742377263044       -1.47776641717431       -0.16646636616332
C           -0.08092468824903       -1.21229615808824       -0.65356186166650
C           -3.85304388134358        3.02625339933996        0.59145427357330
C           -4.47549109939621        2.84280331968312        1.97537498464896
C           -3.33645150693715        4.45132834718639        0.47317451035768
H           -4.64030480247761        0.90100616584940       -1.25333639425997
H           -6.82192433033210        0.22819669599810       -1.77809325294489
H           -7.13130295013211       -1.19802211559358       -2.80073841480672
H           -5.61752907697652       -0.27974150248166       -2.99774042916879
H           -4.94255026858516       -3.83411567365333        2.39264925114913
H           -5.31516105313588       -5.06013465527005        1.15497580070094
H           -3.64238956080328       -4.48133064723195        1.35092570548611
H           -3.13568826986078       -2.30197026816993        2.15416916548253
H           -2.20954527159182       -0.06257421048424        2.11360222774249
H           -2.91444006362461        2.52609009409815       -1.99792526326647
H           -1.53639928070976        3.31419851978710       -1.27295407298017
H           -1.82060363396782        0.36713341820797       -1.55265032120290
H           -1.06384095218386        1.36142299562506       -2.78625230538996
H           -0.72589368554933        1.46743249371215        0.81596575649896
H            0.69231542134909        2.07941048405646       -1.01668989847183
H            2.10014507929330       -0.60993522238493        0.72571788519562
H            2.29763925333578        1.03233234486584        0.09267750447523
H            2.75955455930824        0.09412355239203       -2.17398670242126
H            2.65612120893686       -1.54250839101031       -1.50498285220728
H            4.62133620067140        1.58184785760813       -1.55565644411720
H            6.92663837520054        1.76248247259530       -0.78125209990049
H            8.64873452002297        1.79797470723861        0.82321875031785
H            9.19708005839043        1.13055023434631       -0.74120412151532
H           10.03051421208436        0.67431827491210        0.76648608682965
H            7.01353810713780       -4.24007931559218        1.64979331583242
H            5.40144301110592       -3.49662621222908        1.79384171988559
H            5.97891760553636       -4.08419750667969        0.20797679097808
H            4.37303549930992       -2.37778684996723       -0.00678119154636
H           -0.24855371378963       -1.52622260436769       -1.69211331242296
H           -1.05422311949331       -1.12016092029228       -0.16104124305986
H            0.49750221659632       -1.97782834091576       -0.14285288102983
H           -4.64600748896410        2.87890310437779       -0.15006165914514
H           -3.72554772150678        3.01165513977054        2.74157538519509
H           -4.88675734453122        1.84266230486504        2.08942192933031
H           -5.28321238213388        3.56345177906001        2.10396876689939
H           -2.53877437019003        4.61599903538057        1.18996104730477
H           -2.95953717509114        4.64210219079349       -0.52795932321833
H           -4.15063375749495        5.14276644637328        0.67244967843001
H           -0.54546788680499        2.78014145997700        2.68905794206205
72
 energy: 14.746951279174 xtb: 6.6.1 (8d0f1dd)
N           -1.43219922345564        2.89968596205184        2.20345596491907
C           -1.55001770596043        2.04500854219759        1.23640132888032
C           -2.71156661171445        2.00393283725849        0.26256749383952
C           -3.30242985384985        0.56955129250238        0.41240797967374
C           -4.29939200723572        0.16296925409706       -0.47563549939742
C           -4.85310178291005       -1.10355989517867       -0.46115877522000
O           -5.80507549284881       -1.55789250751272       -1.34087954815811
C           -6.34037029752709       -0.64826366435884       -2.26279280769907
C           -4.43825681266378       -2.04531759366713        0.49687231610443
O           -5.02850659854495       -3.28532439899909        0.40420764166157
C           -4.72128772942737       -4.25177616464963        1.37205836816302
C           -3.50563712334056       -1.64829708806119        1.43461723670779
C           -2.95930015059335       -0.36183939519854        1.40236507300631
C           -2.10450340485497        2.44435611829749       -1.24685853465070
C           -1.22489343825821        1.31697810444975       -1.72942185573216
C            0.04474712891001        1.31078221959115       -0.97320157523624
N            0.64768723549018        0.05855558675256       -0.58586316614142
C            1.99266479528618        0.04607323156062       -0.17716185845137
C            2.92736363225852       -0.48983555928926       -1.28352740960970
C            4.34447367355557       -0.40322401941600       -0.84919402171478
C            5.07273086377402        0.75644197812944       -1.04141366572554
C            6.38094188218190        0.85388786042901       -0.59429066356844
C            6.97612279523464       -0.20755264221687        0.06115597401075
O            8.26741717814408       -0.22894832683897        0.53371427034879
C            9.06126432962265        0.90600627825283        0.32900344190831
C            6.23761856434784       -1.38711249478342        0.27957848855821
O            6.91390759145082       -2.38668041219021        0.93171809014742
C            6.25572326402337       -3.60603552984251        1.14648238824564
C            4.93563431268406       -1.46736989224563       -0.16894004469344
C           -0.10001179915455       -1.15025932415020       -0.67713089207402
C           -3.84097637274247        2.99549404869051        0.59754971041224
C           -4.45987493381078        2.88621433264366        1.99566986342767
C           -3.30224473036710        4.40571759015471        0.42269799655151
H           -4.62727952996247        0.87198963110026       -1.21529297418232
H           -6.80431190021363        0.20842851672899       -1.76115708674148
H           -7.10358343600253       -1.20553813646178       -2.80567952646990
H           -5.58447829277228       -0.28713089436125       -2.96988794354592
H           -4.98188165863666       -3.91346828961947        2.38204340669058
H           -5.32984926038611       -5.12064460424519        1.11808885213672
H           -3.66309162924367       -4.53615784457455        1.34829446000552
H           -3.18011194793125       -2.35219711871292        2.19157909552621
H           -2.25195799801979       -0.11777563098949        2.18216724683510
H           -2.85071613914208        2.61961017127044       -2.05778052012067
H           -1.46668642289383        3.35474772925546       -1.30388632523165
H           -1.82583177706010        0.44395090499525       -1.50588108146916
H           -1.10044550853594        1.34482920521457       -2.82615430537052
H           -0.75937250682388        1.34347711603990        0.95207245343675
H            0.72394818413444        2.13544193316939       -1.06175641335002
H            2.09106537551196       -0.57369037050579        0.72443352577475
H            2.29598971193958        1.06466839654372        0.08273798636498
H            2.75585959680751        0.11160299018951       -2.17774227993598
H            2.64014737021065       -1.52045589231557       -1.50046692265342
H            4.62135721311061        1.59403246318907       -1.55226616123855
H            6.92849330664660        1.76586799720554       -0.77518327115503
H            8.64737720782479        1.79009091999073        0.82767014762095
H            9.19487973883638        1.12390351766816       -0.73715640352034
H           10.02712198013653        0.66354128271492        0.77028260982796
H            6.98517282222063       -4.24214701259076        1.64711577034582
H            5.37703614033141       -3.48917796314971        1.79065538167554
H            5.95163342901036       -4.07804079786881        0.20500801187116
H            4.35398745022292       -2.36278332703653       -0.00826070873992
H           -0.26632685118993       -1.46350107303859       -1.71860598700224
H           -1.07800592369105       -1.04086096704332       -0.19586962867441
H            0.45582362043129       -1.92884367913903       -0.15784386642733
H           -4.64656264346158        2.82668968952646       -0.12693258728242
H           -3.70328149894891        3.08342019052657        2.74888443056835
H           -4.89292155795392        1.89992084328290        2.16298381017263
H           -5.25455916522041        3.63099727487366        2.08814157873404
H           -2.50134805775597        4.57183161786708        1.13439403930432
H           -2.91152379748562        4.53326027513033       -0.58460568728379
H           -4.10376021103862        5.12108266011565        0.58359426380826
H           -0.50875741784291        2.77595278353884        2.64969562932084
72
 energy: 34.529202071163 xtb: 6.6.1 (8d0f1dd)
N           -1.41067690526046        2.93840069892823        2.18265787174476
C           -1.53902391944293        2.01662954517025        1.26450296334391
C           -2.69946210849080        1.98709499004961        0.27612221668977
C           -3.29197941052914        0.53785666468874        0.43964387118288
C           -4.29649248030376        0.12830698923208       -0.43902916223601
C           -4.85451623404597       -1.13637421471946       -0.43338841887778
O           -5.80125636942207       -1.58463244286168       -1.33231529608142
C           -6.31839058090546       -0.66385410988104       -2.24952768521770
C           -4.45369418032725       -2.08487742154606        0.51755939492058
O           -5.04335658514555       -3.33208328135137        0.40296489605179
C           -4.74370861435710       -4.31031802408064        1.35764115815866
C           -3.53771607981076       -1.68776703863018        1.47328617642362
C           -2.98572806569559       -0.40150901631023        1.44835952447665
C           -2.06531660530519        2.50023116673864       -1.28035597724724
C           -1.21045580260785        1.36155666571327       -1.75116394481934
C            0.06003075984202        1.38429374690071       -1.01701812448941
N            0.65139216409296        0.10028887389858       -0.59741282358429
C            1.98560554401498        0.08046589007452       -0.18455292829919
C            2.92428904382765       -0.46970628245842       -1.28532989446421
C            4.33798149755238       -0.39117528942826       -0.85123923507035
C            5.07197432940847        0.76601038784549       -1.04039639254901
C            6.37986078180923        0.85850949521090       -0.59122926418969
C            6.96682073847923       -0.20750370031175        0.06220131541442
O            8.26463728148824       -0.23550907023375        0.53605009816246
C            9.05738299105553        0.89667852535573        0.33296514744120
C            6.22550092310489       -1.38115855687288        0.27883403673674
O            6.89875912626896       -2.38863365620200        0.93241470646998
C            6.23206507791933       -3.60197050711315        1.14409301876776
C            4.92388356347123       -1.45743412212850       -0.17140702161395
C           -0.11966289256571       -1.08624174033789       -0.70125144451055
C           -3.82872726199383        2.96694721764314        0.60575204500108
C           -4.44358239445104        2.92839383858120        2.01502896028369
C           -3.26965318860489        4.36169343053111        0.37269682505054
H           -4.61469726382121        0.84354893352995       -1.17649492790373
H           -6.78715106221772        0.18865745592121       -1.74436194893360
H           -7.07580320874049       -1.21251987800470       -2.81044644816257
H           -5.55200696151477       -0.29460486312184       -2.94208391148964
H           -5.02094955443932       -3.99222418173437        2.37125829313032
H           -5.34393705103003       -5.18028860630064        1.08201264744789
H           -3.68366013272219       -4.59057253271019        1.34591927321482
H           -3.22465023305091       -2.40253189170108        2.22848002292667
H           -2.29482011683821       -0.17520588964097        2.25190993080278
H           -2.78602096200105        2.71565061416437       -2.11934919659003
H           -1.39587588748779        3.39787197578159       -1.33686634865840
H           -1.83004417416414        0.52177369796890       -1.45793646681323
H           -1.13595488724221        1.32305278110555       -2.85863662553351
H           -0.79888379867596        1.22434214706111        1.10397858419365
H            0.75578431484135        2.18819396270031       -1.10270327365009
H            2.08227886259563       -0.53772028799177        0.72280898340986
H            2.29567405394694        1.09730337913769        0.07382916886345
H            2.75224757737862        0.12837647727615       -2.18201280480873
H            2.62437566165844       -1.49892826838270       -1.49616321937739
H            4.62131128742495        1.60563007398916       -1.54900051613868
H            6.93019980594233        1.76927641053945       -0.76918584453674
H            8.64623813696380        1.78238286575156        0.83211334201765
H            9.19294544815666        1.11735880382349       -0.73309190846258
H           10.02365187463700        0.65310421221547        0.77391394776854
H            6.95714132510160       -4.24408242863487        1.64438408287435
H            5.35320663722647       -3.48192164677523        1.78770691982660
H            5.92509165526359       -4.07204408869049        0.20209766381308
H            4.33512122294543       -2.34811916936960       -0.00994475064438
H           -0.28377798577245       -1.40125556281820       -1.74411944899920
H           -1.10150354765563       -0.96301267764738       -0.23039642941470
H            0.41356020594458       -1.87882293690183       -0.17326070365483
H           -4.64636396235992        2.77348882685071       -0.10134683935683
H           -3.68261371746341        3.15433696465610        2.75589021899823
H           -4.89972313072819        1.95881982076871        2.23599333101537
H           -5.22463641950750        3.69609630137287        2.07053931644692
H           -2.46554476881525        4.52732223121298        1.07962833163751
H           -2.86601614810834        4.42503302181383       -0.63690156228854
H           -4.05629759476422        5.09891363418709        0.49466065252258
H           -0.47278045110906        2.77000150344709        2.60250817955593
72
 energy: 53.532333990238 xtb: 6.6.1 (8d0f1dd)
N           -1.38543330858829        2.94434641092531        2.12469676051393
C           -1.51143357674930        2.01963120507783        1.28594473959806
C           -2.69840165303509        1.98337066173047        0.31614826158634
C           -3.27830172681378        0.50665014086735        0.45145312872916
C           -4.29853310293811        0.09408209393187       -0.41074200198837
C           -4.86071240809470       -1.16704159455147       -0.40825077011866
O           -5.79848026956793       -1.60448094562748       -1.32737437304961
C           -6.29997178449588       -0.67716639455924       -2.23770043399136
C           -4.46844320098919       -2.11966113698616        0.53451613266067
O           -5.05398797827886       -3.36969375208011        0.40333578780732
C           -4.76133112665745       -4.35527291839182        1.34486471322537
C           -3.56357879425357       -1.71893655019780        1.50725614495729
C           -3.00870914524889       -0.43513482487814        1.48407266767263
C           -2.01350187590653        2.55312460003245       -1.34717260335824
C           -1.19360246804282        1.37771082182429       -1.76102481571643
C            0.08159053609761        1.42846445290991       -1.09778265916430
N            0.63496022909459        0.15561316215652       -0.62180156041440
C            1.96987987583831        0.11803525925276       -0.18860947145316
C            2.91690081153138       -0.45488518989906       -1.28685203175136
C            4.33338845761095       -0.38134471578886       -0.84612348588705