25
 energy: -43.833115905133 gnorm: 0.112432922428 xtb: 6.6.1 (8d0f1dd)
C            3.23305519372023        1.16941433702603        0.08548316961333
N            2.30997349837612        0.07857197241712        0.03866416298917
C            2.62298385115824       -1.22976402518686        0.03072250223607
N            1.44980155436247       -1.94148978938311        0.00122289912300
C            0.40097989910898       -1.06557908440369       -0.00826289812714
C            0.93090146196214        0.20644848333794        0.01431814034829
C            0.09405353982148        1.39483765472129       -0.00448064188687
O            0.49196337818773        2.55166227958806       -0.00331113679567
N           -1.25727414695624        1.05953792252286       -0.03094280015727
C           -2.22384653230876        2.15500469640996       -0.04994693281504
C           -1.82543377857673       -0.19897900395506       -0.04731064353170
O           -3.00816832050575       -0.37751961918326       -0.07031835398135
N           -0.93347055942371       -1.30150169624338       -0.03711883530435
C           -1.47676635736317       -2.64373943718545       -0.06041502304126
H            3.70802637868836        1.21055565816348        1.06816925447649
H            4.00234303033630        1.02964413520776       -0.67605421566022
H            2.69436523536244        2.09601580251338       -0.09148492763092
H            3.67935416229487       -1.62943015486026        0.04575493110014
H           -1.67422639041013        3.08985853463572       -0.02532452796425
H           -2.82921969916594        2.09750879723876       -0.95305917227344
H           -2.88133135245711        2.08062152267497        0.81444680400370
H           -1.17881019094755       -3.19384886120339        0.83219364636225
H           -1.15353493119645       -3.17323876171400       -0.95691451892460
H           -2.56395290812062       -2.55137523823929       -0.07476657685786
H            1.37013903538623       -2.95527723652821       -0.01117627906363
25
 energy: -43.837976397145 gnorm: 0.039911252685 xtb: 6.6.1 (8d0f1dd)
C            3.24291423079747        1.17788570515489        0.08735463535033
N            2.31379649359473        0.09433530794798        0.03609379914398
C            2.62129861966205       -1.24062254278387        0.03059925109469
N            1.43845832596924       -1.94510183596699        0.00125680310476
C            0.40611620984753       -1.06269846300602       -0.00870146800070
C            0.93062803404909        0.21676899962494        0.01294791968023
C            0.10378992354091        1.38770127714765       -0.00569739602477
O            0.49391051724631        2.55850699895141       -0.00467631619007
N           -1.26120603815093        1.04847857768819       -0.03123901665798
C           -2.22141191507149        2.14571118559380       -0.04971550047905
C           -1.82280884140649       -0.20207214871080       -0.04752327424154
O           -3.01865697159255       -0.38618650391064       -0.07048645376339
N           -0.93247300895637       -1.30154270077905       -0.03726654426387
C           -1.47453261149624       -2.64139689955684       -0.06027567040475
H            3.72204770407820        1.22337491886261        1.06985639857654
H            4.01169010764108        1.04404212581703       -0.67664024894946
H            2.69573972403376        2.10116747282539       -0.08797566295827
H            3.62531156986971       -1.64245571289625        0.04489718152195
H           -1.65912770424984        3.07581277308884       -0.02512602356011
H           -2.82746739323637        2.09378935981117       -0.95388754169394
H           -2.87954143743479        2.07701284361637        0.81593756960979
H           -1.17454788594933       -3.19395122490978        0.83198726759131
H           -1.14930598177293       -3.17359123761251       -0.95621758033504
H           -2.56047003486543       -2.54701817309657       -0.07470013742470
H            1.35775341518606       -2.95001121452957       -0.01071396448906
25
 energy: -43.838571823141 gnorm: 0.019980372245 xtb: 6.6.1 (8d0f1dd)
C            3.23857893001858        1.17336125178863        0.08569243551745
N            2.31282476473770        0.09778388511299        0.03368176801944
C            2.63758992600435       -1.24517814926295        0.03231545027225
N            1.44733900254762       -1.94905930560897        0.00203303284547
C            0.41445248884513       -1.07001374350636       -0.00768744757533
C            0.92772510841921        0.21637580336049        0.01384889290350
C            0.11225901151225        1.37937645332251       -0.00296149724473
O            0.49695791725086        2.55607046465047       -0.00098084512494
N           -1.26562355933658        1.04959246565090       -0.02991577364108
C           -2.22400977929698        2.15124850816037       -0.04983201004876
C           -1.81425590174789       -0.19781196251641       -0.04679316472763
O           -3.01515659635441       -0.38332161332281       -0.07091213820424
N           -0.93053992246624       -1.30292764354346       -0.03652612734467
C           -1.47908763982326       -2.63960525510059       -0.06051897337184
H            3.70846672320590        1.21166495625009        1.07241614967593
H            4.00538228032839        1.02719707133804       -0.67704694834363
H            2.68893279514546        2.09462089747738       -0.09520115312978
H            3.63618380521298       -1.61927332148786        0.04495399811891
H           -1.67512297932291        3.09125876168919       -0.02513570179537
H           -2.83174120840578        2.10005624892200       -0.95320386936737
H           -2.88545667711113        2.08338984449924        0.81354411192245
H           -1.18188700564467       -3.19589590235081        0.83140219477063
H           -1.15640651520859       -3.17453796030556       -0.95678118690222
H           -2.56463976154389       -2.54542714088343       -0.07499093656700
H            1.37913984436730       -2.95100572596173       -0.01131223442058
25
 energy: -43.838921712664 gnorm: 0.008406870515 xtb: 6.6.1 (8d0f1dd)
C            3.23964243899146        1.17215163935526        0.08775456082851
N            2.31015885771908        0.09662382976341        0.03423362265503
C            2.63291517035488       -1.24756438312457        0.03190532566951
N            1.43862657026079       -1.94581824286465        0.00157647076075
C            0.40906200243369       -1.06715453772900       -0.00830862083552
C            0.92415947334856        0.21869906973697        0.01346854474116
C            0.11013384534299        1.38066616179041       -0.00651436024018
O            0.48820264602388        2.55790101096657       -0.00664523591486
N           -1.26951381099741        1.04989937122628       -0.03208354406938
C           -2.22314564642024        2.15087885975146       -0.04998005427019
C           -1.81722460601351       -0.19631901827276       -0.04758027794451
O           -3.01670937611701       -0.38251958159414       -0.07031375551663
N           -0.93505303711729       -1.30085487439785       -0.03716013599932
C           -1.47565902569467       -2.64043284685315       -0.05998705292421
H            3.71699469150386        1.21228185420484        1.07036316451612
H            4.00577700294025        1.03544680023133       -0.67699024499556
H            2.69592209998363        2.09815122127300       -0.08560059211695
H            3.63811731193679       -1.62881551811482        0.04408743134390
H           -1.66448523025801        3.08450402764080       -0.02583830196871
H           -2.83001139554474        2.09820589828982       -0.95368218528309
H           -2.88014847007991        2.08127295453534        0.81648523969838
H           -1.17314618251341       -3.19313364338613        0.83245085157917
H           -1.14808978165468       -3.17338589838056       -0.95575355773551
H           -2.56169372090414       -2.55377742834537       -0.07435150682242
H            1.36707322380858       -2.94896783733115       -0.01144775891865
25
 energy: -43.838867567009 gnorm: 0.007441393535 xtb: 6.6.1 (8d0f1dd)
C            3.23992937704377        1.17469772796301        0.08466195595281
N            2.31182652385345        0.09554945043949        0.03452167151385
C            2.63197143478177       -1.24778478063726        0.03384629160589
N            1.43853017501839       -1.94515892077597        0.00248604496540
C            0.40977782445173       -1.06804081812808       -0.00779755091869
C            0.92598652653191        0.21798555642558        0.01498655585105
C            0.11390684206498        1.38113912524817       -0.00180323120338
O            0.49070371130465        2.55716750588189        0.00112422917743
N           -1.26741774495138        1.04929561248507       -0.02948751717227
C           -2.22278568566477        2.14683331675829       -0.04947879882805
C           -1.81483666607098       -0.19742662677099       -0.04696605808299
O           -3.01298698798897       -0.38555734081467       -0.07116774117891
N           -0.93360520307748       -1.30133913538179       -0.03701717365205
C           -1.47890128004229       -2.63881800487866       -0.06141585259085
H            3.71514624880996        1.22635010887278        1.06809052826310
H            4.01042178586265        1.03958339060169       -0.67643880872785
H            2.69423955430120        2.09855235831531       -0.09681567055837
H            3.63903173996461       -1.63467630348194        0.04626273560573
H           -1.66468192206573        3.07979469754061       -0.02352023281243
H           -2.82660659395986        2.09270412370504       -0.95493518568311
H           -2.88278170512259        2.07547913769773        0.81441563312063
H           -1.18208589463831       -3.19474018444430        0.83078678199313
H           -1.15636061711159       -3.17272187799458       -0.95826226048132
H           -2.56408294174471       -2.54092076473023       -0.07594995340644
H            1.36756654978302       -2.95000846552484       -0.01003836651545
25
 energy: -43.838988625259 gnorm: 0.002911372667 xtb: 6.6.1 (8d0f1dd)
C            3.23971855800102        1.17303762682942        0.08758111933288
N            2.31106644776406        0.09594763866474        0.03387157826106
C            2.63131212793075       -1.24683070679014        0.03149884990767
N            1.43898528468112       -1.94496477440224        0.00058037083447
C            0.40977047458669       -1.06813671959580       -0.00887478210529
C            0.92530576626326        0.21845647776360        0.01322330196429
C            0.11401879110166        1.38166393075327       -0.00526719913928
O            0.49116043173126        2.55766782181945       -0.00413165165190
N           -1.26849925747861        1.05027800192423       -0.03127062079685
C           -2.22344666024863        2.14945222472929       -0.05002072698314
C           -1.81561943095164       -0.19703549029861       -0.04707197222293
O           -3.01422322087128       -0.38533546500732       -0.07005172791099
N           -0.93374428326570       -1.30141029322065       -0.03701516128940
C           -1.47644367476765       -2.64023587978040       -0.05978276657530
H            3.71466021360502        1.21654962799735        1.07167911837240
H            4.00837200486728        1.03646757093385       -0.67530344835651
H            2.69401552813089        2.09787691247898       -0.08959640095053
H            3.63672101977167       -1.63129233038132        0.04361595720380
H           -1.66689507967988        3.08357534581017       -0.02591357343204
H           -2.83055353499286        2.09719011744926       -0.95341917073855
H           -2.88233716832115        2.08095227237300        0.81497456412195
H           -1.17703067702795       -3.19454663122002        0.83252980856047
H           -1.15214705928725       -3.17436113949504       -0.95583670204038
H           -2.56204891496411       -2.54717212757367       -0.07394239840398
H            1.36978736475546       -2.94985512339002       -0.01196833972504
25
 energy: -43.838968587317 gnorm: 0.003354246720 xtb: 6.6.1 (8d0f1dd)
C            3.23964954156589        1.17268461248566        0.08500468786880
N            2.31074757237205        0.09619229359686        0.03479797482453
C            2.63141721403082       -1.24644544618599        0.03427504647826
N            1.43901443558685       -1.94474155669249        0.00398147707852
C            0.40930008418565       -1.06838078341595       -0.00687822194713
C            0.92453196300638        0.21863442917114        0.01519370125006
C            0.11378033626989        1.38128224329504       -0.00380577151045
O            0.48920888230231        2.55788345567123       -0.00292791575858
N           -1.26959084842396        1.04983980100764       -0.03075116017816
C           -2.22271116380518        2.14997680150333       -0.04927987592128
C           -1.81691113453333       -0.19672397653772       -0.04762395024653
O           -3.01592133753047       -0.38420025525206       -0.07196393591674
N           -0.93475649425720       -1.30130148648213       -0.03687008076599
C           -1.47653707323952       -2.64044296037867       -0.06172294362292
H            3.71758626783030        1.21546616230202        1.06755014221702
H            4.00525736210173        1.03391618765169       -0.68043289563258
H            2.69438319832555        2.09787754900059       -0.09107321767238
H            3.63687307526748       -1.62858639391821        0.04690890612752
H           -1.66510843018777        3.08380704102098       -0.02365346699368
H           -2.82863579820919        2.09862213977499       -0.95367889204722
H           -2.88166741759808        2.08045668680777        0.81570903436852
H           -1.17626204661515       -3.19449663940961        0.83037332570643
H           -1.14946173772080       -3.17258983517325       -0.95791319452329
H           -2.56258129479771       -2.55132340040250       -0.07711298803782
H            1.37029989540688       -2.94946778106901       -0.00801775890805
25
 energy: -43.838996903177 gnorm: 0.001296175314 xtb: 6.6.1 (8d0f1dd)
C            3.23971770558693        1.17302335947028        0.08696278515261
N            2.31134704620361        0.09584332574653        0.03418327226694
C            2.63176131987487       -1.24679875094666        0.03230533359972
N            1.43927224695730       -1.94482866376872        0.00124416105370
C            0.40967054297826       -1.06855257367938       -0.00835695716345
C            0.92502360227318        0.21848080054008        0.01386408531561
C            0.11450566442030        1.38125176436541       -0.00476041256240
O            0.48958720680997        2.55780850196354       -0.00375935484552
N           -1.26923091364427        1.04972687340185       -0.03112815318329
C           -2.22285723077217        2.14918955273812       -0.04995229091963
C           -1.81641690312695       -0.19674207802783       -0.04723573738777
O           -3.01528741896748       -0.38439261413172       -0.07045992903511
N           -0.93437664922929       -1.30123755884073       -0.03700796417387
C           -1.47722239688974       -2.63991958811277       -0.06019917657611
H            3.71533252414652        1.21645396620994        1.07058099908769
H            4.00758112684140        1.03597760671512       -0.67646877790983
H            2.69437804443434        2.09800363576597       -0.08988076999733
H            3.63752414915048       -1.62969531274394        0.04447388465561
H           -1.66574595985403        3.08327716488081       -0.02527787981384
H           -2.82909669844368        2.09655890169026       -0.95408170501860
H           -2.88151497782239        2.07970324232118        0.81529130179927
H           -1.17700662544919       -3.19364213316050        0.83213134009575
H           -1.15215220082805       -3.17328327978444       -0.95637856781625
H           -2.56309295600974       -2.54863744821228       -0.07436127196359
H            1.37020480269323       -2.94962980602874       -0.01164018842345
25
 energy: -43.838988300307 gnorm: 0.002110155967 xtb: 6.6.1 (8d0f1dd)
C            3.23976344844673        1.17280669130426        0.08663219363347
N            2.31157727164965        0.09516298217823        0.03388863135569
C            2.63102522516597       -1.24742124217152        0.03232267259742
N            1.43881309230476       -1.94496219396869        0.00205264072788
C            0.40978304871014       -1.06841815843999       -0.00830278279913
C            0.92519873831412        0.21860329674124        0.01349856729917
C            0.11517053363860        1.38187201492069       -0.00504031743069
O            0.49066865437344        2.55803581146000       -0.00380796139315
N           -1.26924700775751        1.05041763580660       -0.03109928876464
C           -2.22382290241316        2.14976665542466       -0.04947591386202
C           -1.81574299533246       -0.19671630592821       -0.04724604115045
O           -3.01415678377428       -0.38540592679898       -0.07050837042468
N           -0.93361605872348       -1.30120797655525       -0.03702442129380
C           -1.47560889937269       -2.64040475712538       -0.06063797740927
H            3.71491031997366        1.21740735474926        1.07050049711292
H            4.00831226051089        1.03618183608409       -0.67625171385648
H            2.69394449292593        2.09738355387960       -0.09107048827997
H            3.63662111175320       -1.63237807162782        0.04440818581187
H           -1.66759197942395        3.08418507605643       -0.02536592965853
H           -2.83152729061513        2.09814921142628       -0.95263107748078
H           -2.88290208288946        2.08169954039932        0.81554304854187
H           -1.17692028917121       -3.19529455516410        0.83158418553482
H           -1.15052260915536       -3.17431877992887       -0.95655948617980
H           -2.56114407235759       -2.54727393231867       -0.07573521727841
H            1.36891982455258       -2.94993087203180       -0.00958560911643
25
 energy: -43.838997641300 gnorm: 0.000854509599 xtb: 6.6.1 (8d0f1dd)
C            3.23965455674618        1.17299100140891        0.08672593312420
N            2.31145059128649        0.09548651381351        0.03413011882470
C            2.63121249426835       -1.24696039843115        0.03232307228853
N            1.43911491121459       -1.94481221884292        0.00163063865675
C            0.40969962751698       -1.06855241326771       -0.00824502298692
C            0.92499286502839        0.21859388334084        0.01387978058184
C            0.11507894830605        1.38164231228743       -0.00460300108503
O            0.49018963257219        2.55796770109321       -0.00344348214761
N           -1.26932007656186        1.05002885194097       -0.03102441397751
C           -2.22327297592281        2.14952974902997       -0.04982637347722
C           -1.81605453595950       -0.19680501457762       -0.04722634960710
O           -3.01459750504331       -0.38518606137940       -0.07066204863964
N           -0.93392295026021       -1.30132684635178       -0.03694324611500
C           -1.47634950607169       -2.64032130198906       -0.06037107107791
H            3.71548648541711        1.21675114901935        1.07028243593520
H            4.00750761288490        1.03612570805842       -0.67680234148398
H            2.69401641547025        2.09780072043079       -0.09021404119523
H            3.63692732498323       -1.63095045589871        0.04451246810256
H           -1.66644403073300        3.08366573947117       -0.02522498320859
H           -2.83007216887992        2.09773954686467       -0.95360315754118
H           -2.88248809176949        2.08099188799075        0.81506001286179
H           -1.17700140756300       -3.19480289936264        0.83184265750849
H           -1.15145376601233       -3.17401476928340       -0.95645901310597
H           -2.56203152420373       -2.54791642423367       -0.07493099503018
H            1.36958212461958       -2.94972707276058       -0.01071955096813
25
 energy: -43.827553971447 gnorm: 0.099630391662 xtb: 6.6.1 (8d0f1dd)
C            3.22840650335597        1.16769435226572        0.08581599038796
N            2.31943073770884        0.07816015724367        0.03646626658150
C            2.66575386990265       -1.24507274478788        0.03147398383527
N            1.46189883765651       -1.94770520732501        0.00156631381003
C            0.41081366853235       -1.07329935054185       -0.00850680442918
C            0.92862999574709        0.19839039921810        0.01265745000348
C            0.09392714752770        1.38462332960324       -0.00472603481586
O            0.48511102441720        2.55340980337834       -0.00319039830899
N           -1.26383796054279        1.05656691845924       -0.03102858935688
C           -2.22859829267747        2.15484158354369       -0.04987636077876
C           -1.83311389024730       -0.19733419481250       -0.04779376861428
O           -3.01649406570672       -0.37671365871179       -0.07058169689888
N           -0.94101479373680       -1.30046901283190       -0.03752090392226
C           -1.48370882272126       -2.64104466715904       -0.06053274964386
H            3.70279486663427        1.20644146257514        1.06967259688681
H            3.99625506473647        1.02585766572056       -0.67811601283092
H            2.68967616792138        2.09425855816314       -0.09163961603908
H            3.79082514459129       -1.61658286270088        0.04929825846119
H           -1.67794415906646        3.08932401780868       -0.02506173194556
H           -2.83414174291954        2.10074100482394       -0.95292095076858
H           -2.88621527369046        2.08379544800948        0.81438294662873
H           -1.18701157946387       -3.19193711429602        0.83197146958837
H           -1.16147678647649       -3.17144073321418       -0.95694989012906
H           -2.57231151405967       -2.54604400375333       -0.07494222402284
H            1.35499905454927       -2.95940098179950       -0.00989005365812
25
 energy: -43.834481510928 gnorm: 0.035025874318 xtb: 6.6.1 (8d0f1dd)
C            3.24090322621936        1.17651743801688        0.08722159256321
N            2.31900592439117        0.09232569277049        0.03364268250713
C            2.64486274539451       -1.24763506020271        0.03123537877350
N            1.45089805765144       -1.95107586533541        0.00172708041698
C            0.41597365516232       -1.07064516634047       -0.00887961719402
C            0.93178642111123        0.20998159428531        0.01162338479335
C            0.10586018178867        1.38005605748022       -0.00579820679655
O            0.48988497432946        2.55372682970308       -0.00436571422650
N           -1.26221913230028        1.04677711896452       -0.03122619007090
C           -2.22276843368569        2.14515676255799       -0.04960309240663
C           -1.82195754225390       -0.20299388459070       -0.04768768016246
O           -3.01732906224897       -0.38898547824926       -0.07065393165798
N           -0.93103462170054       -1.30249097297856       -0.03744325128245
C           -1.47817898927516       -2.64003680695929       -0.06037251575893
H            3.71956614512743        1.22213296338010        1.07046937798400
H            4.00999210116523        1.04401324695591       -0.67743614058633
H            2.69384551984727        2.09996803680561       -0.08810985686815
H            3.67632082726755       -1.62347935313979        0.04702517900896
H           -1.66210572279420        3.07626980486585       -0.02489140467354
H           -2.82947257553341        2.09465461860218       -0.95348950089441
H           -2.88155673728021        2.07772715618607        0.81567998543202
H           -1.18188109266569       -3.19401413533059        0.83206210574589
H           -1.15644613750904       -3.17374919057580       -0.95654399120757
H           -2.56473392779168       -2.54205972833551       -0.07484333578269
H            1.35343739755530       -2.95508150965705       -0.00931484763568
25
 energy: -43.835112719131 gnorm: 0.017845650914 xtb: 6.6.1 (8d0f1dd)
C            3.23736994799707        1.17080563038224        0.08599133187727
N            2.32124657350977        0.08817996574552        0.03210165572058
C            2.66541200357208       -1.25253936144696        0.03288007012679
N            1.46486889649251       -1.95402790463026        0.00242782968811
C            0.42405477336656       -1.07768384627279       -0.00822782975606
C            0.93377179127440        0.20755906249250        0.01236490943331
C            0.11139006755135        1.37347866380850       -0.00403090215768
O            0.49103164777705        2.54959110650096       -0.00174004006316
N           -1.26675138973768        1.04818005271016       -0.03040853909897
C           -2.22709760560882        2.14992469133981       -0.04971982776420
C           -1.81704885029742       -0.19977056815809       -0.04727639846775
O           -3.01672156749194       -0.38528178862951       -0.07098223636531
N           -0.92760801524598       -1.30309937496659       -0.03694016125398
C           -1.48514681103506       -2.63664553390793       -0.06060539175364
H            3.70705344869455        1.21013380102773        1.07303393986444
H            4.00269654090257        1.02873487013945       -0.67907519775214
H            2.68362115239679        2.09029748831592       -0.09331190887667
H            3.69538047952233       -1.59669201466705        0.04770557968137
H           -1.67624201036235        3.08801253074156       -0.02490045055668
H           -2.83619707389289        2.10169154184090       -0.95263374166198
H           -2.88935027158531        2.08481371448595        0.81357722495919
H           -1.19121427035440       -3.19308242639661        0.83166451805240
H           -1.16558426930289       -3.17211859059839       -0.95704843206163
H           -2.57145171194200       -2.53748712144649       -0.07507746383855
H            1.37516972577186       -2.95591441953147       -0.00974104795486
25
 energy: -43.835433330292 gnorm: 0.008104805077 xtb: 6.6.1 (8d0f1dd)
C            3.23786951712269        1.17063629776705        0.08741518230168
N            2.31925130657095        0.08771030970447        0.03221432746394
C            2.66503529715315       -1.25684846760885        0.03248323426676
N            1.45637987665331       -1.95032655461053        0.00213615742095
C            0.41853671341122       -1.07383865824574       -0.00855685208744
C            0.93029475139228        0.21144274297099        0.01220755093895
C            0.10959630190766        1.37535907924467       -0.00620494204242
O            0.48265770690777        2.55387399242942       -0.00540067795556
N           -1.27193055845642        1.04873701768183       -0.03175189061028
C           -2.22661662564838        2.15097127087192       -0.04988607984549
C           -1.82105784842456       -0.19729118567392       -0.04772127606377
O           -3.02089952794595       -0.38251593971510       -0.07056961472713
N           -0.93274548207938       -1.30085604956418       -0.03723398755800
C           -1.48060274636292       -2.63859809726865       -0.06019188545665
H            3.71173799179343        1.21010292963019        1.07177225511666
H            4.00228965734537        1.03273614900636       -0.67841104495129
H            2.69081239209094        2.09500764576316       -0.08736932922673
H            3.70163864586559       -1.61212319640971        0.04654796111724
H           -1.66852383733666        3.08467635627572       -0.02543551168193
H           -2.83416759409038        2.10094191088455       -0.95359334820807
H           -2.88510115098578        2.08402594629970        0.81597212864036
H           -1.17978779813041       -3.19220429053360        0.83193803525521
H           -1.15445567920959       -3.17221416152995       -0.95577919830412
H           -2.56743043804230       -2.55027664006913       -0.07463003745521
H            1.35987233047053       -2.95206823842159       -0.00992366632747
25
 energy: -43.835418568811 gnorm: 0.007049106401 xtb: 6.6.1 (8d0f1dd)
C            3.23770480205624        1.17481729692722        0.08550951670743
N            2.31944000734140        0.08922636783173        0.03240875030693
C            2.66399656572281       -1.25580963796911        0.03376801622704
N            1.45598285181504       -1.95050501881669        0.00255033845460
C            0.41907375394722       -1.07558005892519       -0.00835861528325
C            0.93081720273453        0.21077535020000        0.01316806518289
C            0.11377082644634        1.37465533577674       -0.00357483999140
O            0.48610734434245        2.55297913617810       -0.00105272094893
N           -1.26942346703980        1.04663213085342       -0.03034135130896
C           -2.22458397393872        2.14619304485229       -0.04945213374138
C           -1.81742487573567       -0.19923094115262       -0.04748819849260
O           -3.01622720653034       -0.38657622626196       -0.07117109195002
N           -0.93127895746444       -1.30273351990443       -0.03729309905253
C           -1.48523994511951       -2.63752674563943       -0.06116078175881
H            3.71199882106546        1.22206577683552        1.06945784727652
H            4.00536831500623        1.03969429293111       -0.67791186255827
H            2.69001902707324        2.09815134788479       -0.09340611881930
H            3.70118078270270       -1.61481536424171        0.04870658948471
H           -1.66708421540162        3.07963435587383       -0.02387854956028
H           -2.83003376377810        2.09418471686519       -0.95418684663258