72
 energy: 0.000000000000 xtb: 6.6.1 (8d0f1dd)
N           -1.47310934822924        2.74401318561852        2.22063942287560
C           -1.55658894218425        2.16490305624665        1.13274284460745
C           -2.74549225258129        2.05621251263064        0.23826250649470
C           -3.31377583855761        0.64333417511334        0.32332515650284
C           -4.30230195924506        0.24487112428158       -0.58026167086503
C           -4.85238808050968       -1.02286499940159       -0.53363593669082
O           -5.81420026757557       -1.48606047972767       -1.36157895357670
C           -6.39655692584623       -0.60827005826649       -2.29568495601309
C           -4.39972542350640       -1.94646120241305        0.44396933240983
O           -4.98748357557592       -3.16146026488900        0.41085995818162
C           -4.66362171172287       -4.10093865802695        1.40909140816864
C           -3.42072545213514       -1.54561399150247        1.33436558640148
C           -2.88302826362110       -0.26315802838497        1.27400162590187
C           -2.19303818453636        2.30467021687947       -1.18742988123374
C           -1.26651549989641        1.17243380322503       -1.65249445018642
C            0.01082525039567        1.09745464658138       -0.89354811789923
N            0.61779399208289       -0.02034948241203       -0.57705527866251
C            2.00145228921113       -0.02376006609561       -0.15611401051620
C            2.92554961797610       -0.53865287672537       -1.27700100652360
C            4.35756883501756       -0.43050761225877       -0.83075552032494
C            5.07346182539911        0.73206415878124       -1.03980975472950
C            6.38628045899965        0.84224449235903       -0.60344828301384
C            7.00047329721665       -0.20824758267940        0.05722314949100
O            8.26703733840855       -0.21011315050632        0.52410948507466
C            9.06912311989339        0.92943609656965        0.31863060963839
C            6.27040022445068       -1.40439766990411        0.28033468609137
O            6.94830004375713       -2.38012947787858        0.92752007684741
C            6.31537376337817       -3.61583233633369        1.15217722400438
C            4.96302840674480       -1.49347485723979       -0.16064431849589
C           -0.05511211878686       -1.29906259857679       -0.62085692079872
C           -3.86758072907722        3.07992629005348        0.58498065642721
C           -4.49286201346546        2.77383518785172        1.94313307512182
C           -3.39165211343248        4.52917708609625        0.54797528556046
H           -4.66030069703099        0.94509076131725       -1.31640581036773
H           -6.85037992114187        0.25803164586058       -1.80468862056629
H           -7.17287509152171       -1.18600121846629       -2.79318183475679
H           -5.66836870040540       -0.26952968819383       -3.04040283452035
H           -4.88416765986127       -3.71589494995018        2.40913564538747
H           -5.29223619720187       -4.96637504833431        1.20969248126828
H           -3.61139846644506       -4.39919876145526        1.35529370415983
H           -3.07077825100221       -2.21868786295666        2.10002682176568
H           -2.14562774333496        0.02067850888151        2.01001363031684
H           -3.02188903413801        2.38238034416975       -1.88813562572432
H           -1.65198546223364        3.25146730843841       -1.20556295755141
H           -1.81103391047759        0.23006526775522       -1.62116316669324
H           -0.99335697743926        1.37490224954061       -2.69443281971844
H           -0.67628070635666        1.65183902374723        0.61785732877701
H            0.63525847086258        1.98466388206871       -0.92314029755375
H            2.11132572081740       -0.65949698961381        0.72532619960637
H            2.30680494458141        0.98978260887088        0.11078973822125
H            2.76694224489122        0.06750735773687       -2.17075272340394
H            2.67954606229959       -1.57455642411728       -1.51167757545099
H            4.62170041431221        1.56295626549351       -1.56123593485311
H            6.92357738865082        1.75715832247601       -0.79119604059515
H            8.65159193263071        1.81001840117181        0.81701562739969
H            9.20136256512460        1.14042868409438       -0.74698998879646
H           10.03428931104811        0.69003246578081        0.76064945022918
H            7.05567240429544       -4.23621211097668        1.65347581279537
H            5.43848051513375       -3.50813590722545        1.79970582482858
H            6.02060097762632       -4.09420535105165        0.21253284608183
H            4.40102799328555       -2.40127288651695       -0.00490198294521
H           -0.22071301762289       -1.61775598610935       -1.65116024301020
H           -1.01972267469312       -1.24102728946113       -0.10935207845464
H            0.55899959333766       -2.04486104898380       -0.12333731565713
H           -4.63991918782192        2.95501120214274       -0.18098089750912
H           -3.76095251366987        2.90314731895452        2.73380846416528
H           -4.87457659255110        1.75695657819473        1.97884621460846
H           -5.31925601899505        3.45579242388173        2.12325583951056
H           -2.60025614255587        4.69225089676674        1.27368930043085
H           -3.03987434616939        4.81897697030947       -0.43870979129779
H           -4.22191779840287        5.18069696155015        0.80616701440619
H           -0.59832439338922        2.77744720721660        2.72959009765665
72
 energy: -2.181203305731 xtb: 6.6.1 (8d0f1dd)
N           -1.44979431985413        2.78505710281594        2.28432653679138
C           -1.55255374267282        2.15867752685049        1.19191888459702
C           -2.75374920620578        2.07164003257885        0.27559920992408
C           -3.33876076485627        0.66206023030406        0.34470659904768
C           -4.31358292832986        0.25260353002799       -0.57109388205620
C           -4.85872778347211       -1.01786546007972       -0.52783983534566
O           -5.81275641320890       -1.49239578360138       -1.36900391013467
C           -6.38190104882619       -0.62129297864693       -2.31498562323073
C           -4.41812647777827       -1.93496578799830        0.45712035692190
O           -5.00281429868280       -3.15895892272904        0.41963066891769
C           -4.67919011777304       -4.09326169372774        1.42052816082930
C           -3.45586448231982       -1.52656776031310        1.36020391456607
C           -2.92382855435036       -0.24216426600055        1.30348221622018
C           -2.18926999322313        2.30312219883770       -1.15199978079105
C           -1.26726056740528        1.17250898899552       -1.62878137353861
C           -0.00651055146626        1.09427408494085       -0.84258501293678
N            0.64295654496908       -0.06540643083031       -0.58288546420867
C            2.02004947511075       -0.04936580763710       -0.18374755394750
C            2.95498841249868       -0.54235720876325       -1.30535050464700
C            4.38037049806539       -0.43427457073238       -0.85724856358116
C            5.09562811154688        0.73142533086220       -1.05621925053935
C            6.40487000525642        0.84275161194985       -0.61225288587766
C            7.01635828649788       -0.20899600089215        0.04834369855844
O            8.28841216743705       -0.21209981435568        0.52238048924499
C            9.08609976049705        0.92860945595766        0.32131367906924
C            6.28748357110493       -1.40403670277949        0.26637747984439
O            6.96784838544054       -2.38381180222616        0.91649145007674
C            6.33279607257593       -3.61753125397132        1.13905077505383
C            4.98413624899246       -1.49584958898449       -0.18181706390837
C           -0.02562217124951       -1.33402117338990       -0.65851307528700
C           -3.89615797832426        3.09106121002788        0.56913594835903
C           -4.54843987338901        2.80122835720525        1.91827510732408
C           -3.42142367223913        4.54093453141390        0.52594996808341
H           -4.65989522537346        0.94508280760532       -1.32077168745554
H           -6.84403052278762        0.24760658581478       -1.83571334830431
H           -7.15017163429339       -1.20434902702758       -2.81972301940605
H           -5.64408457737176       -0.28410395647782       -3.05087859012357
H           -4.91271166272642       -3.71143796207047        2.41938360011234
H           -5.29740435112445       -4.96510656035301        1.21445289822208
H           -3.62339038167686       -4.38135512714842        1.37837224881419
H           -3.11174421495324       -2.19742038189778        2.13139525676054
H           -2.19348416338919        0.04622163866808        2.04291590733464
H           -3.00577344321340        2.39960542829569       -1.86876295963988
H           -1.63272891857957        3.24166750821004       -1.16069441185999
H           -1.81701865876372        0.23251497161847       -1.60393181309587
H           -0.99074017525342        1.37727033984529       -2.67020732401902
H           -0.71022708313309        1.54987148498353        0.68321149373822
H            0.61533338567658        1.97458021874144       -0.85028326386148
H            2.13776330939964       -0.68489286321382        0.69757533393802
H            2.30661369730690        0.96943650697564        0.08917140268578
H            2.78933703251593        0.07218904900724       -2.19153821818504
H            2.70858183835669       -1.57624881966743       -1.54808307471787
H            4.64288822761123        1.56284849229868       -1.57553392494233
H            6.94266495449099        1.75902511125626       -0.79581802821691
H            8.66461947294871        1.80887943621465        0.81789064758859
H            9.22341151070292        1.14195701214400       -0.74373018178015
H           10.04942861626878        0.68982820200231        0.76826672101561
H            7.07284043347365       -4.23843328368314        1.64104679802350
H            5.45476247058541       -3.50996963188540        1.78519822556660
H            6.03756302863580       -4.09614250753088        0.19928441454681
H            4.42032178914339       -2.40309090935624       -0.02721706253004
H           -0.25484214264149       -1.61460215000585       -1.68912942187555
H           -0.95853401283960       -1.30291356154785       -0.09255821805678
H            0.61751523193328       -2.09307173373345       -0.22900156042206
H           -4.65871693331639        2.96224760028362       -0.20951142269666
H           -3.82442978628948        2.93185127013381        2.71560997062910
H           -4.93232814736633        1.78463851533159        1.95419617139897
H           -5.37606969107260        3.48753959452852        2.08167566777973
H           -2.63618811195269        4.70428618658405        1.25782766470279
H           -3.05495475213787        4.81898842379575       -0.45916837343698
H           -4.25342835282773        5.19847087319871        0.76790938323539
H           -0.57451185345416        2.83509180502675        2.85884726759454
72
 energy: 4.477744764013 xtb: 6.6.1 (8d0f1dd)
N           -1.41672883374434        2.83137879911572        2.34141841590338
C           -1.55487428012989        2.14077244593004        1.26758405001211
C           -2.76855728516325        2.08970418210352        0.31680958801833
C           -3.36777210712243        0.68199649494219        0.36897066503507
C           -4.32672693546121        0.26150671201297       -0.56083946024773
C           -4.86627112070493       -1.01137896689896       -0.51992010368628
O           -5.81023716060842       -1.49941268150480       -1.37787475980807
C           -6.36302173602743       -0.63758350332656       -2.33876485466139
C           -4.44089830856816       -1.92078471377131        0.47372018317989
O           -5.02230661359513       -3.15530188735758        0.43144285058820
C           -4.69862417224439       -4.08310626457074        1.43493145264682
C           -3.49900069149463       -1.50458955596407        1.39303925570980
C           -2.97382569498946       -0.21887067098941        1.33970413783324
C           -2.17970180320191        2.30550664130965       -1.10884734249110
C           -1.26858941279609        1.16817287139183       -1.58902189849398
C           -0.03418499440129        1.08397211291704       -0.76179970253865
N            0.67433012606334       -0.11580924310405       -0.60747187871258
C            2.04048238574500       -0.07592719255519       -0.21863335091545
C            2.98949760688158       -0.54652074625154       -1.33966781895570
C            4.40729692770375       -0.43772279384712       -0.88596253263965
C            5.12324923638272        0.72976392104387       -1.07600833421590
C            6.42915841996979        0.84283986913802       -0.62370830332474
C            7.03604102333920       -0.21005420903064        0.03674238211804
O            8.31359938328226       -0.21418930628910        0.51935648564246
C            9.10661299950716        0.92737213623919        0.32456005970598
C            6.30918370966422       -1.40338550879054        0.24842389291984
O            6.99171359460136       -2.38803084434171        0.90191653773121
C            6.35441251267829       -3.61923355106642        1.12257083410660
C            5.00957601887811       -1.49818602348379       -0.20751032445330
C            0.00934158283947       -1.37208546331800       -0.70808240044800
C           -3.92791597678433        3.10621470462774        0.55245576654096
C           -4.61640701193408        2.83525069421978        1.88832301005304
C           -3.45703726165390        4.55718658116599        0.49881925046651
H           -4.65998297081047        0.94469699051474       -1.32643401678033
H           -6.83658922270306        0.23444244839957       -1.87501527785863
H           -7.12102392350749       -1.22724980116051       -2.85277913607406
H           -5.61377036473617       -0.30251684466450       -3.06430131092011
H           -4.94915940566566       -3.70626102716597        2.43245156379097
H           -5.30345261477712       -4.96316810666884        1.22058940067803
H           -3.63847712874989       -4.35883900539806        1.40770886305815
H           -3.16359179968466       -2.17141919910742        2.17218892369634
H           -2.25483819976424        0.07789909928958        2.08576711179272
H           -2.98389861828523        2.42270325965821       -1.84131310758065
H           -1.60591967600125        3.23437027940590       -1.10584959427821
H           -1.82770706325553        0.23240415459231       -1.57830655850683
H           -0.98016352774445        1.37613801043198       -2.62805190472519
H           -0.75356928042246        1.42995100738164        0.74892498038253
H            0.58970711028682        1.95410183487200       -0.74739545267134
H            2.17158658677420       -0.71356747513622        0.66305301003666
H            2.30820591046125        0.94698405054212        0.06230719862287
H            2.81862497544069        0.07792029968395       -2.21765094252402
H            2.74469088482996       -1.57831045020744       -1.59532880560265
H            4.66944153216201        1.56163466262898       -1.59358894581373
H            6.96680689620181        1.76108063691662       -0.80151807425818
H            8.68121318320573        1.80757539461274        0.81899367379282
H            9.25154988498494        1.14386469276229       -0.73952280984492
H           10.06774695871505        0.68959386686184        0.77779214062898
H            7.09411885440359       -4.24075166281458        1.62541746213875
H            5.47528821411010       -3.51229387472218        1.76751233566687
H            6.05915498375801       -4.09891517755378        0.18289841124042
H            4.44403182809035       -2.40517136980844       -0.05537729086206
H           -0.30287711932333       -1.60741714691705       -1.73443758765193
H           -0.88130954314737       -1.38186449846395       -0.06963373309560
H            0.69083084204022       -2.14932490260761       -0.36903063729511
H           -4.67471668708613        2.96733209548645       -0.24414219751568
H           -3.90373000585620        2.96768419803402        2.69547688549182
H           -5.00526577549473        1.81988087466589        1.92420283056433
H           -5.44491705308722        3.52703279575196        2.02933814805882
H           -2.67990668598199        4.72115311751345        1.23857445955431
H           -3.07418094038859        4.82027834733788       -0.48484335475179
H           -4.29164820945990        5.22057919876649        0.71991961046504
H           -0.55221815956927        2.90759595866563        3.01721450879288
72
 energy: 16.170109532394 xtb: 6.6.1 (8d0f1dd)
N           -1.38646266477891        2.85758213249605        2.39559725632927
C           -1.56140586049294        2.13254466828864        1.33934835908589
C           -2.78361828419094        2.10627730835355        0.35557803400410
C           -3.39618828488813        0.70053597288715        0.39357304873094
C           -4.33884262638200        0.27075738988230       -0.55131409957406
C           -4.87422150669913       -1.00471893318956       -0.51255906032758
O           -5.80582529791016       -1.50447540498601       -1.38557897485569
C           -6.34349837098929       -0.65367891948260       -2.36270641906815
C           -4.46458306419552       -1.90746070755733        0.49086724502050
O           -5.04103506999803       -3.14941528783125        0.44402065083861
C           -4.71848255123853       -4.07257397662416        1.44976910324734
C           -3.54285126354003       -1.48357397681989        1.42691011006826
C           -3.02397322775142       -0.19657459113562        1.37687860218173
C           -2.16930638965400        2.31010084689454       -1.06552064900576
C           -1.27065740384321        1.16277931248958       -1.54344911289375
C           -0.06158450724934        1.06270104650711       -0.67895637757049
N            0.69906421739791       -0.15634907563058       -0.63733053563515
C            2.05983265317025       -0.10022578028944       -0.25054359363403
C            3.02069139909575       -0.55000011586118       -1.37324775766934
C            4.43446830730401       -0.44040698056335       -0.91273761464180
C            5.15106161245728        0.72824606214651       -1.09567339776608
C            6.45423831454945        0.84314456515036       -0.63560620736697
C            7.05728327903797       -0.21109482661178        0.02508819500791
O            8.33679158750558       -0.21579511278332        0.51516094281708
C            9.12746067617460        0.92633909464706        0.32769142323525
C            6.33193278743632       -1.40399805530157        0.23028093271633
O            7.01466861352161       -2.39149087319874        0.88610593614751
C            6.37632760087712       -3.62113281655525        1.10558848166016
C            5.03510308594928       -1.50088248971540       -0.23308179350080
C            0.04248516506850       -1.40908314009327       -0.75676840367281
C           -3.95744670675189        3.12143604194403        0.53788276329305
C           -4.68384107787267        2.86933781816986        1.85827602615697
C           -3.49151185731811        4.57339366410761        0.47173596750809
H           -4.65975605624368        0.94480749024626       -1.33131396155037
H           -6.82920588982828        0.22102393742823       -1.91543927788697
H           -7.09058323726013       -1.25039777571737       -2.88585998313116
H           -5.58301512624282       -0.32130699096455       -3.07813524629545
H           -4.98656957173954       -3.70131410467326        2.44558394647176
H           -5.30940489336350       -4.96070393064514        1.22693060749980
H           -3.65433175556645       -4.33589273145972        1.43751332114822
H           -3.21708887683675       -2.14528753908346        2.21449544287098
H           -2.31820636338310        0.10894812909128        2.13189109354943
H           -2.96133067261636        2.44589789042671       -1.81094689552978
H           -1.57888352237820        3.22836607307200       -1.05044680697142
H           -1.84110204962854        0.23305267381698       -1.54990937112506
H           -0.96310576538883        1.37269661171837       -2.57794153035062
H           -0.79581782001078        1.32365464658053        0.80573531405305
H            0.56385499153884        1.92981813919346       -0.63863667575809
H            2.20676798136664       -0.74122530226258        0.62964702282410
H            2.31301768722906        0.92467994637850        0.03573536864426
H            2.84867805758714        0.08371767082539       -2.24438271837367
H            2.78134355432025       -1.57992875148301       -1.64344487030850
H            4.69685422619426        1.56058338222133       -1.61228313326222
H            6.99117216676971        1.76307118590021       -0.80777803306829
H            8.69834013642879        1.80620378914328        0.82021525128337
H            9.28045479351006        1.14581962297816       -0.73513149550783
H           10.08618768366753        0.68943036831124        0.78735073507559
H            7.11565000993683       -4.24298540056355        1.60931125913835
H            5.49633995565714       -3.51468591133699        1.74956755409311
H            6.08148066342652       -4.10186451238019        0.16606462309670
H            4.46850924568759       -2.40785895667059       -0.08408268082638
H           -0.34818459306813       -1.59814448848772       -1.77244538106284
H           -0.80154532901891       -1.46649012362040       -0.04979172268041
H            0.75959014855514       -2.20100292568506       -0.51339184827449
H           -4.68625523755985        2.96969824967188       -0.27675212807454
H           -3.98620007464036        3.00449841830439        2.67819051968164
H           -5.07921565688173        1.85612666005994        1.89396195729081
H           -5.51266137647387        3.56660717193930        1.97496170853670
H           -2.72365515629449        4.74161565472381        1.21972276211609
H           -3.09393550665553        4.82213388657404       -0.51023741160924
H           -4.32910768732494        5.24110369780590        0.67125645555167
H           -0.53325357040367        2.97258106096571        3.15742368031724
72
 energy: 28.518480583650 xtb: 6.6.1 (8d0f1dd)
N           -1.36072194720599        2.86747875475148        2.44542694568951
C           -1.57368078871389        2.13021077847600        1.40761323291263
C           -2.79929453658419        2.12032945906403        0.39061867662545
C           -3.42359822277584        0.71718420152347        0.41840085666787
C           -4.34954711594993        0.28003798180585       -0.54205284287964
C           -4.88245944671260       -0.99786073622705       -0.50575719514734
O           -5.79955393873323       -1.50722578915570       -1.39154953080788
C           -6.32370415105310       -0.66897147435837       -2.38604801755885
C           -4.48845976903973       -1.89533427667189        0.50814964914838
O           -5.05840061344818       -3.14131413900240        0.45683053097739
C           -4.73817989753172       -4.06220926935862        1.46452748928045
C           -3.58665801912765       -1.46364124144563        1.46058987779336
C           -3.07326493878566       -0.17529144409945        1.41409790434600
C           -2.15783083680596        2.31545765018457       -1.02255393011454
C           -1.27254774839567        1.15612725253151       -1.49523187451365
C           -0.08510330281408        1.02779685697233       -0.60199995835998
N            0.71559428749746       -0.18599382134373       -0.66503326397745
C            2.07791386217678       -0.12225754439359       -0.27865898002018
C            3.04759147889490       -0.55296493643566       -1.40503168835556
C            4.46063900413126       -0.44222114506775       -0.93731070807376
C            5.17790799107261        0.72706965714374       -1.11472818200435
C            6.47892273325748        0.84345022823895       -0.64774586902217
C            7.07946277620884       -0.21198583312362        0.01354463697334
O            8.35749328059452       -0.21698177080638        0.50990502705610
C            9.14821729264336        0.92566610177543        0.33060614752227
C            6.35476164193594       -1.40580216992733        0.21226399189506
O            7.03620721028981       -2.39402684102345        0.86922917917290
C            6.39802985855849       -3.62330373438734        1.08828431643398
C            5.05988422837521       -1.50361926117068       -0.25792434691089
C            0.07357090613567       -1.44488979771196       -0.80264280565601
C           -3.98481613849612        3.13625885821763        0.52573052354121
C           -4.74903531547775        2.90244096594348        1.82862842053826
C           -3.52424957219504        4.58894368030323        0.44567524672787
H           -4.65877599562726        0.94519587386302       -1.33485719730371
H           -6.82173314007529        0.20774094609204       -1.95587495800446
H           -7.05935642794840       -1.27328369928727       -2.91761631899666
H           -5.55257163535903       -0.33974363548594       -3.09169506844587
H           -5.02380474951603       -3.69687111606202        2.45806302748440
H           -5.31514784927460       -4.95764348755488        1.23288287522132
H           -3.67066572323008       -4.31315415561106        1.46667803063462
H           -3.27110022417077       -2.11960955844792        2.25668552153613
H           -2.38221883348419        0.13867355361104        2.17961678955664
H           -2.93752104947496        2.46795119981409       -1.77868410622328
H           -1.55235335045713        3.22303541408479       -0.99524915670060
H           -1.85666697746651        0.23460907111486       -1.52064222191080
H           -0.94178269218497        1.36777505014336       -2.52304667571477
H           -0.82983374650282        1.23974776701672        0.84729458005011
H            0.53693517038231        1.89980806001754       -0.52786005790011
H            2.24030493536826       -0.76725025821694        0.59766948724263
H            2.32020684393624        0.90326841759771        0.01016341197262
H            2.87789722673307        0.08968305335772       -2.27015214845149
H            2.81739715749250       -1.58107812248583       -1.69076328094749
H            4.72426909479937        1.56001753916697       -1.63098200182964
H            7.01496197275580        1.76481220328594       -0.81438641961121
H            8.71543183236965        1.80476181902002        0.82154986603223
H            9.30922038016895        1.14781581691774       -0.73068101830345
H           10.10418488548451        0.68911255697817        0.79670288325968
H            7.13704620574215       -4.24510252626339        1.59282244360781
H            5.51737800431128       -3.51717457902192        1.73149640906805
H            6.10390839569406       -4.10485374124475        0.14889621617723
H            4.49313267993491       -2.41101027197730       -0.11269323773981
H           -0.38546893466844       -1.58873733971868       -1.79865496905855
H           -0.71928024021621       -1.55422145934114       -0.03968151293198
H            0.81755472408377       -2.24112230505611       -0.65414337504576
H           -4.69385525347552        2.97004104055455       -0.30585289567954
H           -4.06991970482531        3.04102227211936        2.66372442797926
H           -5.15198010130307        1.89210996165346        1.86408357649439
H           -5.57743112449647        3.60501053509994        1.91986671669790
H           -2.76651434428821        4.76540508682280        1.20180351335366
H           -3.11349967397641        4.82428930625667       -0.53421597282479
H           -4.36499007761188        5.25943939706695        0.62364706370600
H           -0.51654911468561        3.02626488497751        3.28071882611241
72
 energy: 39.509975147582 xtb: 6.6.1 (8d0f1dd)
N           -1.33894377720013        2.87278684292968        2.48316798998684
C           -1.59043748094240        2.13317103914440        1.46793772004079
C           -2.81570879536453        2.13167614578151        0.42060112024130
C           -3.44886227259011        0.73151474154728        0.44231609110123
C           -4.35849982496285        0.28867372880035       -0.53293742759189
C           -4.89068509436824       -0.99097562098383       -0.49941076908718
O           -5.79177165392221       -1.50793172778500       -1.39580652049349
C           -6.30424456051320       -0.68275833210411       -2.40767393246683
C           -4.51138194582865       -1.88455905342922        0.52487599754824
O           -5.07377741757008       -3.13173878785332        0.46898483808964
C           -4.75679762336504       -4.05255144231708        1.47843532135477
C           -3.62864807720055       -1.44524133310070        1.49225525070722
C           -3.11950071545859       -0.15550798753615        1.44950072356106
C           -2.14580399327707        2.32021643955088       -0.98101397304147
C           -1.27339563271803        1.14824542701223       -1.44551272560487
C           -0.10464756164193        0.98143730429062       -0.52773834087664
N            0.72420347725701       -0.20340556377010       -0.68907863346498
C            2.09343619347420       -0.14072450563540       -0.30393782134569
C            3.06938379123739       -0.55509299423870       -1.43378364970958
C            4.48389277419879       -0.44295058534973       -0.95861293038298