25
 energy: 0.000000000000 xtb: 6.6.1 (8d0f1dd)
C            3.23720163006194        1.16630919979326        0.08434469647475
N            2.29877817382611        0.07527477071623        0.03981603040599
C            2.58028210190900       -1.21425402444508        0.03006176031096
N            1.43813958087363       -1.93419271955128        0.00098261760884
C            0.39035688448383       -1.05887472636071       -0.00790371836672
C            0.93510056364412        0.21347819449412        0.01709077491437
C            0.09450143893243        1.40504303904423       -0.00410947031874
O            0.49712751527797        2.54126714362870       -0.00342325688240
N           -1.25076640035757        1.06271879480407       -0.03085478223738
C           -2.21907211982101        2.15522099834493       -0.05001256985998
C           -1.81739487048744       -0.20012725993278       -0.04692818574614
O           -2.99983886758376       -0.37846417018721       -0.07008878229737
N           -0.92618586207120       -1.30210215599479       -0.03682761578324
C           -1.46982264913417       -2.64643102187190       -0.06029820460571
H            3.71247264356769        1.21471455160235        1.06488849150277
H            4.00791497605742        1.03430808813993       -0.67357694370751
H            2.69910007168542        2.09770118228144       -0.09130154882931
H            3.56654120610678       -1.63682992603973        0.04233140067262
H           -1.67107961066214        3.09322851271934       -0.02552706933167
H           -2.82428953597071        2.09428624779827       -0.95318082946668
H           -2.87644029173232        2.07745725625962        0.81450067533302
H           -1.17061996399332       -3.19584890659852        0.83242232437030
H           -1.14560257411436       -3.17511610292205       -0.95688275822323
H           -2.55549792440841       -2.55659984320617       -0.07459039797972
H            1.38130855184625       -2.94313852034425       -0.01389874181052
25
 energy: -5.378215111228 xtb: 6.6.1 (8d0f1dd)
C            3.24330285952368        1.17666837479026        0.08665492499775
N            2.30620027626314        0.09568988277682        0.03770615008897
C            2.59639160770411       -1.23281595738283        0.03002336030526
N            1.42370399617266       -1.93957588092854        0.00081692466504
C            0.39381811227648       -1.05455083617144       -0.00819826332156
C            0.92848231198635        0.22393968284564        0.01531301265139
C            0.10103114409887        1.39802214962443       -0.00519743028684
O            0.49840863514813        2.56369185859315       -0.00461804911115
N           -1.26111717130846        1.05302330673893       -0.03105610705284
C           -2.21963093799560        2.15112316328842       -0.04982170410280
C           -1.82513918499869       -0.19870447114754       -0.04726761561740
O           -3.02199520060309       -0.37942682688636       -0.07034604953971
N           -0.93623007184298       -1.30075659343682       -0.03702074724017
C           -1.46655057897017       -2.64783622665178       -0.06016268041231
H            3.72191515269992        1.22180597719116        1.06857086888779
H            4.01102208108977        1.04110626057869       -0.67656972806284
H            2.69784732172217        2.10212566171926       -0.08856439494304
H            3.57410342637993       -1.66000224656162        0.04263987340250
H           -1.65682971195434        3.08182471635866       -0.02521219876410
H           -2.82507537202439        2.09930932675582       -0.95427840032701
H           -2.87749757423892        2.08265148784670        0.81594386715767
H           -1.16099906026796       -3.20019969459877        0.83107793811459
H           -1.13546134732385       -3.17992672883399       -0.95472941946029
H           -2.55212361873689       -2.56459521239818       -0.07495433563152
H            1.35463757313634       -2.94356257193808       -0.01371590025014
25
 energy: -6.511179513520 xtb: 6.6.1 (8d0f1dd)
C            3.24866993370666        1.18120805793807        0.08877280267360
N            2.30924544499474        0.10696132909835        0.03407681345880
C            2.60066391359625       -1.24667371141593        0.03018330956700
N            1.40543638495277       -1.93720913890921        0.00118354559050
C            0.39272598694552       -1.04794619796379       -0.00869189173693
C            0.92167976627560        0.23355501277598        0.01280395706862
C            0.10523911806769        1.38874022380977       -0.00712060423954
O            0.48618384021605        2.56910344079000       -0.00725978436689
N           -1.27325197236285        1.04513388606795       -0.03156027962119
C           -2.21863182950309        2.15111872203102       -0.04957790097246
C           -1.83085345567433       -0.19782286535645       -0.04762443493745
O           -3.03193075567097       -0.38252801972126       -0.07040061289707
N           -0.94569496495492       -1.29749988408475       -0.03719777538987
C           -1.45794458182600       -2.65007459122019       -0.05986971900635
H            3.73476525711990        1.22774934396794        1.06904044352524
H            4.01503411328466        1.05219021941937       -0.67887680474702
H            2.70044232031290        2.10604133128768       -0.08144141039080
H            3.57079619441447       -1.68132180604314        0.04320423018580
H           -1.63571356731304        3.07065403984756       -0.02471812480120
H           -2.82507241024578        2.11059366559349       -0.95451850573871
H           -2.87743514970068        2.09400317732075        0.81686488454057
H           -1.14423979456652       -3.20316223658435        0.83003343699392
H           -1.11745071277358       -3.18377446948167       -0.95193349104057
H           -2.54423123393761       -2.58102841890214       -0.07569594005614
H            1.32378282257839       -2.93898250809302       -0.01264224751455
25
 energy: -6.537913919280 xtb: 6.6.1 (8d0f1dd)
C            3.25057597485685        1.18033722497940        0.08981816246867
N            2.30885981616090        0.10786209888666        0.03083794405112
C            2.59601623301801       -1.25372437226392        0.03029486239857
N            1.39376599935835       -1.93429015113187        0.00197856202088
C            0.38882171717669       -1.04368653921011       -0.00909409186082
C            0.91819902923194        0.23836569175468        0.01077421175949
C            0.10480169736573        1.38737067283614       -0.00921380982113
O            0.47249091747703        2.57125484163870       -0.01026253814828
N           -1.28203403065719        1.04341740971303       -0.03235056178139
C           -2.21750697802998        2.15563954111838       -0.04948713983931
C           -1.83614804981302       -0.19824294681613       -0.04801470978275
O           -3.03678865230839       -0.38708117663293       -0.07046925954612
N           -0.95070798350743       -1.29533462976881       -0.03725832216805
C           -1.44722042522997       -2.65354317413921       -0.05942846423740
H            3.74304478478516        1.22545407731910        1.06762392848292
H            4.01553988931062        1.06005418987643       -0.68127563246367
H            2.70324099073257        2.10778469333539       -0.07275052210177
H            3.56234732656445       -1.69526366088475        0.04353491112465
H           -1.61980817516716        3.06614520549308       -0.02440256142077
H           -2.82455385664639        2.12394757929029       -0.95438465294551
H           -2.87638068883073        2.10714218297190        0.81742847771090
H           -1.12599242252465       -3.20329295246935        0.83053790817455
H           -1.09744932318918       -3.18499307752114       -0.94996678619956
H           -2.53438202644619       -2.60058111185007       -0.07655996063221
H            1.30348290424818       -2.93571301435290       -0.01087605909574
25
 energy: -6.146063660210 xtb: 6.6.1 (8d0f1dd)
C            3.25192744468312        1.17501731434137        0.09176379527664
N            2.30612428239119        0.10513124829454        0.02380440215338
C            2.58196301888878       -1.26457839097255        0.03030715700204
N            1.37269254939752       -1.92882229303655        0.00411088998357
C            0.37837098581507       -1.03503773140439       -0.00996506142249
C            0.91221084635800        0.24637904448207        0.00628041595357
C            0.10140557611888        1.38971442919091       -0.01439339468390
O            0.44651706147153        2.57661437093120       -0.01743954724264
N           -1.29834731717814        1.04323011917124       -0.03460286710712
C           -2.21522549380600        2.16841646129216       -0.04949666641083
C           -1.84894982509018       -0.19885456512143       -0.04909738759418
O           -3.04761256578259       -0.39553664897697       -0.07067878339478
N           -0.95995299229673       -1.29092997737912       -0.03730880426297
C           -1.42131032269946       -2.66239535502644       -0.05816146151542
H            3.75744165892305        1.21005593933268        1.06410903314318
H            4.01147238731486        1.07299125158155       -0.68837664484405
H            2.70674200188697        2.10841369865853       -0.05088397432349
H            3.54163480986556       -1.72010023355535        0.04387951817243
H           -1.59127445624731        3.06233206232168       -0.02400815475575
H           -2.82349904401200        2.15532225056944       -0.95404101773597
H           -2.87356273168833        2.13759572941709        0.81860908420167
H           -1.08283111360696       -3.20171439312149        0.83301454727471
H           -1.04946986474984       -3.18628845199663       -0.94561851798469
H           -2.51008378251373       -2.64825504035753       -0.07873838578663
H            1.26583155449293       -2.92967223646400       -0.00603427794901
25
 energy: -4.838154908438 xtb: 6.6.1 (8d0f1dd)
C            3.25108336068086        1.16373435108721        0.09494163695816
N            2.29946806612817        0.09847768412453        0.01289674017221
C            2.55812692402629       -1.27641492483349        0.02974036622948
N            1.34391852686976       -1.92186732080413        0.00775297388177
C            0.36047015805341       -1.02182958116971       -0.01141654061192
C            0.90336659656650        0.25665540280474       -0.00110422741801
C            0.09467539832886        1.39693502079972       -0.02345102895936
O            0.41618915507526        2.58540055669126       -0.02970605811557
N           -1.31987071558942        1.04601539955978       -0.03899419147392
C           -2.21234895991274        2.19011701185907       -0.04987238787153
C           -1.87004278866367       -0.19793064970561       -0.05115212383759
O           -3.06574550593109       -0.40383925217939       -0.07109361472388
N           -0.97384990009474       -1.28425423197021       -0.03734925513609
C           -1.37908062602448       -2.67698310240171       -0.05567523437378
H            3.77703050522260        1.17299992328346        1.05824944117940
H            3.99799202438178        1.08816651571783       -0.70221919081110
H            2.70829816242289        2.10539134848140       -0.01176578043601
H            3.50887115524898       -1.75111223726260        0.04371201132300
H           -1.55702576944615        3.06328440209750       -0.02392852554463
H           -2.82224352325874        2.20426614308363       -0.95357110096433
H           -2.86873741403496        2.18434617816523        0.82038842520143
H           -1.01318441946625       -3.19709865780406        0.83836732788617
H           -0.97071711532560       -3.18690887288349       -0.93799858009103
H           -2.46871269094969       -2.72719263797328       -0.08252147514753
H            1.21428406362835       -2.92132986659565        0.00280428883192
25
 energy: -2.053850521248 xtb: 6.6.1 (8d0f1dd)
C            3.24705966622672        1.14563376805909        0.09990514922245
N            2.28742704637008        0.08840207665107       -0.00186421766408
C            2.52534629537523       -1.28667816270300        0.02817982828516
N            1.30923899597490       -1.91429978514646        0.01298341662850
C            0.33519633247298       -1.00491222276167       -0.01363843331669
C            0.89114608007973        0.26792533185968       -0.01192478838738
C            0.08503255430835        1.40890784847555       -0.03730430670011
O            0.39049732869212        2.59655284717419       -0.04839426451937
N           -1.34420148768869        1.05316591734255       -0.04628016218099
C           -2.21006438378660        2.21996677398265       -0.05088939392197
C           -1.89874760644366       -0.19366111492038       -0.05445456960716
O           -3.09106845025118       -0.40724952563995       -0.07175375151564
N           -0.99284350156268       -1.27622392541953       -0.03749788342471
C           -1.32147046565356       -2.69677026419788       -0.05157446486637
H            3.80239864716747        1.10773006313202        1.04873713860960
H            3.97094685342525        1.10475246400160       -0.72395621343740
H            2.70694242856155        2.09682191511658        0.04947371772841
H            3.46567118592608       -1.78302497996178        0.04251499966850
H           -1.52549431276055        3.07193647308209       -0.02458435362156
H           -2.82137590650108        2.26719868757931       -0.95291161142809
H           -2.86200007018908        2.24306274557315        0.82257440229506
H           -0.92018072929054       -3.18783859450604        0.84737448153232
H           -0.86324366825103       -3.18541103381369       -0.92621979868687
H           -2.40736688718907       -2.83598791923908       -0.08787798950328
H            1.15336872292342       -2.91097078154808        0.01641696495894
25
 energy: 0.276645620761 xtb: 6.6.1 (8d0f1dd)
C            3.24073924631882        1.12885006831286        0.10485262821381
N            2.27455687623808        0.08026355985912       -0.01335183551639
C            2.50105106824277       -1.28671766313473        0.02638768550757
N            1.28934103705105       -1.91052288275118        0.01747499033080
C            0.31565192785552       -0.99451872430892       -0.01584825286118
C            0.88140123666128        0.27271238058700       -0.02180163642963
C            0.07728155521413        1.41974937662262       -0.05054331335563
O            0.39026705794938        2.60342635875692       -0.06637826070520
N           -1.35630560230765        1.06236171046132       -0.05373952174659
C           -2.21061627258627        2.24188293608434       -0.05217607924345
C           -1.91938684800954       -0.18709040694423       -0.05769382481503
O           -3.11010390765080       -0.39926218686557       -0.07226253832585
N           -1.00735576815604       -1.27323187867684       -0.03796919985680
C           -1.27937953441268       -2.71158477038512       -0.04758974587214
H            3.82082211249804        1.04000263933583        1.03769481662273
H            3.93936412697548        1.11494360160328       -0.74283819351270
H            2.70345074981113        2.08438549410356        0.10793837605025
H            3.43581415486907       -1.79329160142020        0.04052726781519
H           -1.52025884123679        3.08671497770008       -0.02588540389105
H           -2.82210232352350        2.30872594349357       -0.95200053197591
H           -2.85681917983506        2.27933230584981        0.82402157322950
H           -0.85667191579955       -3.17724927641881        0.85630204164703
H           -0.78652946894418       -3.18079673270685       -0.91571972049830
H           -2.35283111276398       -2.91614454355427       -0.09158723406967
H            1.12083429347743       -2.90391208343159        0.02921980940586
25
 energy: 1.263358120536 xtb: 6.6.1 (8d0f1dd)
C            3.23282349499721        1.11505062403448        0.11056558619562
N            2.26037709035047        0.07773905679772       -0.02210425474319
C            2.48876221072053       -1.27462367763942        0.02482671166654
N            1.28599930267597       -1.91070911574982        0.02118696376823
C            0.30345004345323       -0.99215592382252       -0.01843016339787
C            0.87288019177540        0.27076227582403       -0.03217787080452
C            0.07006924785145        1.42695782494204       -0.06458141967073
O            0.41664254914330        2.60591925513162       -0.08551008488221
N           -1.35376623516155        1.07220210447227       -0.06200787100253
C           -2.21334942612884        2.25318449332038       -0.05367015958234
C           -1.92958112747588       -0.17758329059156       -0.06111089214936
O           -3.12184930570684       -0.37526583694420       -0.07229699246572
N           -1.01805698967095       -1.27708213197777       -0.03915252131823
C           -1.25902175935832       -2.72028443878589       -0.04363157226277
H            3.83351059434281        0.96897054995363        1.02216490022455
H            3.90218174057212        1.12274792336240       -0.75796182327372
H            2.70035267584295        2.06811110079672        0.16801232685608
H            3.42441529408790       -1.77717618428522        0.03780225247244
H           -1.53769582864701        3.10639185169346       -0.02764788697742
H           -2.82541042382945        2.32390623180117       -0.95058433628538
H           -2.85323930423360        2.28724108484042        0.82530095731076
H           -0.83100227588073       -3.16557660388169        0.86515029156841
H           -0.74814316276501       -3.17329265973242       -0.90575625677869
H           -2.31054281467463       -2.96540566367319       -0.09384574168676
H            1.12240888565560       -2.90100024771465        0.04249375336604
25
 energy: 4.256326748441 xtb: 6.6.1 (8d0f1dd)
C            3.22823326743275        1.10058368618711        0.11899374049522
N            2.24391945387144        0.07944699816512       -0.03661614142650
C            2.47153650008124       -1.27130456666983        0.02288160386930
N            1.26667094815642       -1.90782299463450        0.02553027450285
C            0.28602033064823       -0.98453523971239       -0.02226583150014
C            0.85778231396676        0.27537627554750       -0.04754974794012
C            0.05881697176120        1.43189339115758       -0.08427463945617
O            0.42472877370379        2.61129720663448       -0.11141170186046
N           -1.36009577767533        1.08102739666423       -0.07307920918708
C           -2.21360329616629        2.27029604655079       -0.05565543460376
C           -1.94521550284778       -0.16560092782383       -0.06585575568244
O           -3.13986328649742       -0.34993407890747       -0.07204224180809
N           -1.03697087550728       -1.27645223491354       -0.04088846753062
C           -1.22856109304305       -2.73205028079520       -0.03793847748403
H            3.86303376428321        0.88482417378156        1.00052124578993
H            3.86115437328778        1.14853495139305       -0.78031400540580
H            2.70383038119297        2.05601108949112        0.25439155152186
H            3.40568103223092       -1.77595545814102        0.03486252143930
H           -1.52954140644393        3.12153523147419       -0.02954911185720
H           -2.83023408124192        2.35316074281806       -0.94922376633451
H           -2.84804247935627        2.30776917553645        0.82782887698329
H           -0.78220413591119       -3.15185710738895        0.87712605278538
H           -0.67905949322875       -3.16845594230248       -0.88946111645692
H           -2.26601946217645       -3.05211687385286       -0.10003916200928
H            1.10021744741503       -2.89664205808720        0.06106283930322
25
 energy: 4.020397606463 xtb: 6.6.1 (8d0f1dd)
C            3.22747896242035        1.09794101455293        0.12729522108817
N            2.23248302348555        0.09196281034004       -0.04549620513164
C            2.47687331695738       -1.26164158975957        0.02307429156817
N            1.26888913761934       -1.90994741910740        0.02606466832763
C            0.28490960985317       -0.99004975186923       -0.02753539161176
C            0.84703696165328        0.27228725482170       -0.06247152930420
C            0.04855090096116        1.42683739943328       -0.10224406404183
O            0.44521331314028        2.60678490605735       -0.13136154015607
N           -1.34952964789631        1.08590018610214       -0.08297753105200
C           -2.21395345680253        2.26811914629471       -0.05655997396189
C           -1.94015071310210       -0.15440787189718       -0.06990449752839
O           -3.14070268449392       -0.31470037020046       -0.06998993634269
N           -1.04591524612973       -1.28242379298892       -0.04501591231098
C           -1.23894766823350       -2.73123488019419       -0.03387392032956
H            3.88098594842473        0.83390362745011        0.97328074322287
H            3.83251073562157        1.18104727821434       -0.78534515349719
H            2.71842292136140        2.04592654291700        0.32108268934976
H            3.41863173956962       -1.75090343682624        0.03189657670415
H           -1.53603262869061        3.13026178384414       -0.03075592928421
H           -2.83844995653395        2.34028069667059       -0.94600097588138
H           -2.84512310416059        2.28553888976290        0.83103121115511
H           -0.80114246435190       -3.14283314145848        0.88685309379125
H           -0.68114803515895       -3.16660756512804       -0.87671956064474
H           -2.26080202240684       -3.07200936967366       -0.10459114077472
H            1.12212572482917       -2.90100374518585        0.07729866279333
25
 energy: 5.017588691072 xtb: 6.6.1 (8d0f1dd)
C            3.22894588233146        1.09387828189030        0.13539248469625
N            2.22619717266472        0.09627195074135       -0.05563161998070
C            2.47277508892607       -1.26371115545094        0.02210131599098
N            1.26070869532147       -1.90828314260091        0.02618200832228
C            0.28035818725296       -0.99020366314176       -0.03349908439101
C            0.84012101355752        0.27316931682055       -0.07602322621156
C            0.04073787352626        1.42584848956667       -0.11990613041128
O            0.43732240964054        2.60430259423025       -0.15024266322607
N           -1.35236353622368        1.08988471994494       -0.09268392518450
C           -2.21347589287273        2.27316448049003       -0.05793658140487
C           -1.94209565099542       -0.14968089944429       -0.07359510492959
O           -3.14377772671986       -0.30268231442849       -0.06779661914003
N           -1.05327579353623       -1.28146140984171       -0.04985517098959
C           -1.23355821064652       -2.73386536325099       -0.02930934205533
H            3.90813190731605        0.78610023381500        0.94904401807631
H            3.80928498200282        1.22306076122956       -0.79320136318342
H            2.73353070894129        2.04068762181695        0.39052707516500
H            3.41600628717857       -1.74993572504565        0.02756378380833
H           -1.53054220190102        3.13164799991928       -0.03294709467726
H           -2.84453130779916        2.34736530877802       -0.94313461798148
H           -2.84056469481011        2.28604822190726        0.83309014845272
H           -0.79882038610079       -3.13494159779307        0.89907890415948
H           -0.66023853311107       -3.17028729259670       -0.86310435076048
H           -2.24795769598696       -3.09649132900044       -0.11005217361929
H            1.11929608997982       -2.90085748638320        0.09297322562229
25
 energy: 4.953875377349 xtb: 6.6.1 (8d0f1dd)
C            3.23758680955040        1.09417725801869        0.15343423748606
N            2.22660381280112        0.10545974888907       -0.07130803857082
C            2.47696393925861       -1.27172895230669        0.02259491977385
N            1.25665328172202       -1.90529904707495        0.02239738267206
C            0.28409163829873       -0.99575290322538       -0.04925440440375
C            0.83776825878614        0.27177246136305       -0.10276490990591
C            0.03164442945224        1.42002239382457       -0.15541241116068
O            0.40793732300723        2.59417492746917       -0.18778637763583
N           -1.35498623907291        1.09296372972796       -0.11194667137551
C           -2.21372786920708        2.27105268983004       -0.05930738992044
C           -1.93451347911451       -0.14905430431872       -0.07973570459129
O           -3.13659031946581       -0.29694158718504       -0.05933375134807
N           -1.05530320601246       -1.27619775313420       -0.06482202407760
C           -1.24686242631709       -2.72748156320564       -0.02098645724694
H            3.95977577155342        0.72138024621450        0.89317410286848
H            3.77530082802802        1.32446053986880       -0.78790614218602
H            2.77495526747152        2.02498565825462        0.51582343626263
H            3.42534560513660       -1.74785143243307        0.01392398140066
H           -1.52668917315151        3.12178835010209       -0.03713234072288
H           -2.86032930755597        2.34233214276710       -0.93453496385733
H           -2.83211773319495        2.26826997948559        0.83868316092975
H           -0.83845184159178       -3.12006367416322        0.92521977659445
H           -0.65804537351968       -3.18354011089183       -0.83538585334031
H           -2.25843025952103       -3.08764136144412       -0.12350091454297
H            1.13363493059471       -2.90225883426041        0.12290125304562
25
 energy: 5.526358050196 xtb: 6.6.1 (8d0f1dd)
C            3.24367363477002        1.09237187276946        0.17342307566603
N            2.22961922042303        0.11122199651712       -0.08528533905645
C            2.48063084235486       -1.27218263836973        0.02484785670801
N            1.25979345671726       -1.90261978462873        0.02149474131633
C            0.28812011455739       -0.99823028197865       -0.06508987441310
C            0.84018088136469        0.27050054092900       -0.12859760984211
C            0.02784755395296        1.41869507083656       -0.19249215045553
O            0.39358995187195        2.58945466359239       -0.23841968778672
N           -1.35528129803637        1.09499526941228       -0.13296034732346
C           -2.21794890956186        2.26656094306108       -0.06121790014244
C           -1.92982310791549       -0.15154368760940       -0.08576209737014
O           -3.13184856011204       -0.29767611727911       -0.04817426473520
N           -1.05371732843796       -1.27069879836701       -0.08086202587092
C           -1.25895157535010       -2.71881140269281       -0.01217299175717
H            4.01859033697771        0.63811159154159        0.83309865573450
H            3.72623479563122        1.42148111610039       -0.78362627685072
H            2.80633460090669        1.99920271204761        0.65753800910859
H            3.43348786043747       -1.73912003364767       -0.00555970513952
H           -1.53639936821538        3.11659268829613       -0.04249783379785
H           -2.87864309261323        2.33714136440265       -0.92612400815810
H           -2.82482714987953        2.24899314281807        0.84479631782830
H           -0.88042617061945       -3.09890547042811        0.95283851464966
H           -0.65259991979654       -3.19301990262864       -0.80451389674048
H           -2.26959515588079       -3.07324860752676       -0.14011873757673
H            1.15417305438944       -2.90023764499569        0.15247147215242
25
 energy: 3.307905165760 xtb: 6.6.1 (8d0f1dd)
C            3.25628889652202        1.09810899629884        0.19787704727295
N            2.25286664782152        0.11309125163403       -0.09116075648759
C            2.49492720090088       -1.27548825199834        0.03812822250489
N            1.27789001276445       -1.89940537574611        0.01905019901575
C            0.30647697717778       -1.00006776626307       -0.08678548340922
C            0.86146138805942        0.26913276810706       -0.15432568261593
C            0.03853457469865        1.41788922581181       -0.23238559820286
O            0.36712384569421        2.58607626377651       -0.30555634859798
N           -1.35525637975119        1.08867260844594       -0.15483375585691
C           -2.22694526163941        2.24718297948176       -0.05911199476351
C           -1.91689423785756       -0.16963542950211       -0.08923608870817
O           -3.11496293655475       -0.33481306144695       -0.02671533912827
N           -1.03322247755730       -1.25652236239130       -0.10641346513121
C           -1.29151451506729       -2.69469781445048       -0.00536097238394
H            4.07308152483597        0.59417470076876        0.75552278503640
H            3.68332700587773        1.53004686471928       -0.73932493094315
H            2.84822501475637        1.94783246444589        0.78449438768481
H            3.45182079394250       -1.73444598035263       -0.03982704488357
H           -1.55951414381940        3.09797191338047       -0.04533247795779
H           -2.90400251324161        2.31636441861956       -0.91112082084536
H           -2.81854900539539        2.21178199417302        0.85617492232634
H           -0.96695165331892       -3.07323762624323        0.98220495472781
H           -0.67781691165459       -3.20746664864113       -0.76948890058019
H           -2.32504271626691       -2.98869249366946       -0.16663147262107
H            1.19086353700873       -2.89482503678611        0.17719251069496
25