      -----------------------------------------------------------      
     |                   =====================                   |     
     |                           x T B                           |     
     |                   =====================                   |     
     |                         S. Grimme                         |     
     |          Mulliken Center for Theoretical Chemistry        |     
     |                    University of Bonn                     |     
      -----------------------------------------------------------      

   * xtb version 6.6.1 (8d0f1dd) compiled by 'conda@1efc2f54142f' on 2023-08-01

   xtb is free software: you can redistribute it and/or modify it under
   the terms of the GNU Lesser General Public License as published by
   the Free Software Foundation, either version 3 of the License, or
   (at your option) any later version.
   
   xtb is distributed in the hope that it will be useful,
   but WITHOUT ANY WARRANTY; without even the implied warranty of
   MERCHANTABILITY or FITNESS FOR A PARTICULAR PURPOSE.  See the
   GNU Lesser General Public License for more details.
   
   Cite this work as:
   * C. Bannwarth, E. Caldeweyher, S. Ehlert, A. Hansen, P. Pracht,
     J. Seibert, S. Spicher, S. Grimme, WIREs Comput. Mol. Sci., 2020, 11,
     e01493. DOI: 10.1002/wcms.1493
   
   for GFN2-xTB:
   * C. Bannwarth, S. Ehlert and S. Grimme., J. Chem. Theory Comput., 2019,
     15, 1652-1671. DOI: 10.1021/acs.jctc.8b01176
   for GFN1-xTB:
   * S. Grimme, C. Bannwarth, P. Shushkov, J. Chem. Theory Comput., 2017,
     13, 1989-2009. DOI: 10.1021/acs.jctc.7b00118
   for GFN0-xTB:
   * P. Pracht, E. Caldeweyher, S. Ehlert, S. Grimme, ChemRxiv, 2019, preprint.
     DOI: 10.26434/chemrxiv.8326202.v1
   for GFN-FF:
   * S. Spicher and S. Grimme, Angew. Chem. Int. Ed., 2020, 59, 15665-15673.
     DOI: 10.1002/anie.202004239
   
   for ALPB and GBSA implicit solvation:
   * S. Ehlert, M. Stahn, S. Spicher, S. Grimme, J. Chem. Theory Comput.,
     2021, 17, 4250-4261. DOI: 10.1021/acs.jctc.1c00471
   
   for DFT-D4:
   * E. Caldeweyher, C. Bannwarth and S. Grimme, J. Chem. Phys., 2017,
     147, 034112. DOI: 10.1063/1.4993215
   * E. Caldeweyher, S. Ehlert, A. Hansen, H. Neugebauer, S. Spicher,
     C. Bannwarth and S. Grimme, J. Chem. Phys., 2019, 150, 154122.
     DOI: 10.1063/1.5090222
   * E. Caldeweyher, J.-M. Mewes, S. Ehlert and S. Grimme, Phys. Chem. Chem. Phys.
     2020, 22, 8499-8512. DOI: 10.1039/D0CP00502A
   
   for sTDA-xTB:
   * S. Grimme and C. Bannwarth, J. Chem. Phys., 2016, 145, 054103.
     DOI: 10.1063/1.4959605
   
   in the mass-spec context:
   * V. Asgeirsson, C. Bauer and S. Grimme, Chem. Sci., 2017, 8, 4879.
     DOI: 10.1039/c7sc00601b
   * J. Koopman and S. Grimme, ACS Omega 2019, 4, 12, 15120-15133.
     DOI: 10.1021/acsomega.9b02011
   
   for metadynamics refer to:
   * S. Grimme, J. Chem. Theory Comput., 2019, 155, 2847-2862
     DOI: 10.1021/acs.jctc.9b00143
   
   for SPH calculations refer to:
   * S. Spicher and S. Grimme, J. Chem. Theory Comput., 2021, 17, 1701-1714
     DOI: 10.1021/acs.jctc.0c01306
   
   with help from (in alphabetical order)
   P. Atkinson, C. Bannwarth, F. Bohle, G. Brandenburg, E. Caldeweyher
   M. Checinski, S. Dohm, S. Ehlert, S. Ehrlich, I. Gerasimov, C. Hölzer
   A. Katbashev, J. Koopman, C. Lavigne, S. Lehtola, F. März, M. Müller,
   F. Musil, H. Neugebauer, J. Pisarek, C. Plett, P. Pracht, F. Pultar,
   J. Seibert, P. Shushkov, S. Spicher, M. Stahn, M. Steiner, T. Strunk,
   J. Stückrath, T. Rose, and J. Unsleber
   
 * started run on 2024/04/06 at 11:17:07.147     

           -------------------------------------------------
          |                Calculation Setup                |
           -------------------------------------------------

          program call               : xtb xtbopt.xyz --opt crude --input .xc2 --gfn2
          hostname                   : n-62-30-23
          coordinate file            : xtbopt.xyz
          omp threads                :                     1

   ID    Z sym.   atoms
    1    7 N      1, 17
    2    6 C      2-6, 8, 9, 11-16, 18-23, 25, 26, 28-33
    3    8 O      7, 10, 24, 27
    4    1 H      34-72
########################################################################
[WARNING] Please study the warnings concerning your input carefully
-1- readin_getIntValue: could not parse ''
########################################################################

           -------------------------------------------------
          |                 G F N 2 - x T B                 |
           -------------------------------------------------

        Reference                      10.1021/acs.jctc.8b01176
      * Hamiltonian:
        H0-scaling (s, p, d)           1.850000    2.230000    2.230000
        zeta-weighting                 0.500000
      * Dispersion:
        s8                             2.700000
        a1                             0.520000
        a2                             5.000000
        s9                             5.000000
      * Repulsion:
        kExp                           1.500000    1.000000
        rExp                           1.000000
      * Coulomb:
        alpha                          2.000000
        third order                    shell-resolved
        anisotropic                    true
        a3                             3.000000
        a5                             4.000000
        cn-shift                       1.200000
        cn-exp                         4.000000
        max-rad                        5.000000

q/qsh data taken from xtbrestart
CAMM data taken from xtbrestart

          ...................................................
          :                      SETUP                      :
          :.................................................:
          :  # basis functions                 171          :
          :  # atomic orbitals                 171          :
          :  # shells                          105          :
          :  # electrons                       180          :
          :  max. iterations                   250          :
          :  Hamiltonian                  GFN2-xTB          :
          :  restarted?                       true          :
          :  GBSA solvation                  false          :
          :  PC potential                    false          :
          :  electronic temp.         5000.0000000     K    :
          :  accuracy                    1.0000000          :
          :  -> integral cutoff          0.2500000E+02      :
          :  -> integral neglect         0.1000000E-07      :
          :  -> SCF convergence          0.1000000E-05 Eh   :
          :  -> wf. convergence          0.1000000E-03 e    :
          :  Broyden damping             0.4000000          :
          ...................................................

 iter      E             dE          RMSdq      gap      omega  full diag
   1   -100.7744253 -0.100774E+03  0.479E-05    1.72       0.0  T
   2   -100.7744253  0.390088E-09  0.739E-05    1.72     159.5  T
   3   -100.7744253 -0.583142E-09  0.148E-05    1.72     797.2  T

   *** convergence criteria satisfied after 3 iterations ***

         #    Occupation            Energy/Eh            Energy/eV
      -------------------------------------------------------------
         1        2.0000           -0.8162638             -22.2117
       ...           ...                  ...                  ...
        84        1.9942           -0.5182795             -14.1031
        85        1.9932           -0.5156889             -14.0326
        86        1.9785           -0.4973234             -13.5329
        87        1.9313           -0.4785467             -13.0219
        88        1.9282           -0.4778290             -13.0024
        89        1.8667           -0.4675237             -12.7220
        90        1.8544           -0.4660136             -12.6809 (HOMO)
        91        0.3826           -0.4028996             -10.9635 (LUMO)
        92        0.0781           -0.3750027             -10.2043
        93        0.0131           -0.3462086              -9.4208
        94        0.0031           -0.3234869              -8.8025
        95        0.0026           -0.3205693              -8.7231
       ...           ...                  ...                  ...
       171                          1.4076822              38.3050
      -------------------------------------------------------------
                  HL-Gap            0.0631140 Eh            1.7174 eV
             Fermi-level           -0.4257275 Eh          -11.5846 eV

 SCC (total)                   0 d,  0 h,  0 min,  0.122 sec
 SCC setup                      ...        0 min,  0.001 sec (  0.837%)
 Dispersion                     ...        0 min,  0.002 sec (  1.496%)
 classical contributions        ...        0 min,  0.000 sec (  0.380%)
 integral evaluation            ...        0 min,  0.018 sec ( 15.012%)
 iterations                     ...        0 min,  0.028 sec ( 22.837%)
 molecular gradient             ...        0 min,  0.072 sec ( 58.895%)
 printout                       ...        0 min,  0.001 sec (  0.532%)

         :::::::::::::::::::::::::::::::::::::::::::::::::::::
         ::                     SUMMARY                     ::
         :::::::::::::::::::::::::::::::::::::::::::::::::::::
         :: total energy             -99.213391081936 Eh    ::
         :: gradient norm              1.060812516444 Eh/a0 ::
         :: HOMO-LUMO gap              1.717419680600 eV    ::
         ::.................................................::
         :: SCC energy              -100.774425264009 Eh    ::
         :: -> isotropic ES            0.121914448855 Eh    ::
         :: -> anisotropic ES          0.004557325443 Eh    ::
         :: -> anisotropic XC          0.043929353553 Eh    ::
         :: -> dispersion             -0.075049200114 Eh    ::
         :: repulsion energy           1.559660299801 Eh    ::
         :: add. restraining           0.000000000000 Eh    ::
         :: total charge               1.000000001932 e     ::
         :::::::::::::::::::::::::::::::::::::::::::::::::::::

      ----------------------------------------------------------- 
     |                   =====================                   |
     |                        A N C O P T                        |
     |                   =====================                   |
     |               Approximate Normal Coordinate               |
     |                Rational Function Optimizer                |
      ----------------------------------------------------------- 

          ...................................................
          :                      SETUP                      :
          :.................................................:
          :   optimization level             crude          :
          :   max. optcycles                   200          :
          :   ANC micro-cycles                  20          :
          :   degrees of freedom               210          :
          :.................................................:
          :   RF solver                   davidson          :
          :   write xtbopt.log                true          :
          :   linear?                        false          :
          :   energy convergence         0.5000000E-03 Eh   :
          :   grad. convergence          0.1000000E-01 Eh/α :
          :   maxmium RF displ.          1.0000000          :
          :   Hlow (freq-cutoff)         0.1000000E-01      :
          :   Hmax (freq-cutoff)         5.0000000          :
          :   S6 in model hess.         20.0000000          :
          ...................................................

generating ANC from model Hessian ...
Using Lindh-Hessian (1995)
 Shifting diagonal of input Hessian by    9.9482791322990163E-003
 Lowest  eigenvalues of input Hessian
    0.000000    0.000000    0.000000    0.000000    0.000000    0.000000
    0.010000    0.010020    0.010053    0.010203    0.010281    0.010558
    0.010863    0.010897    0.011070    0.011504    0.011768    0.012240
 Highest eigenvalues
    2.042144    2.052293    2.114769    2.182729    2.239409    2.334293


........................................................................
.............................. CYCLE    1 ..............................
........................................................................

 iter      E             dE          RMSdq      gap      omega  full diag
   1   -100.7744253 -0.100774E+03  0.112E-05    1.72       0.0  T
   2   -100.7744253  0.321165E-11  0.109E-05    1.72    1080.6  T
   3   -100.7744253 -0.885336E-11  0.474E-06    1.72    2487.4  T
     SCC iter.                  ...        0 min,  0.026 sec
     gradient                   ...        0 min,  0.069 sec
 * total energy  :   -99.2133911 Eh     change       -0.4163780E-11 Eh
   gradient norm :     1.0608125 Eh/α   predicted     0.0000000E+00 (-100.00%)
   displ. norm   :     0.4139914 α      lambda       -0.4245442E+00
   maximum displ.:     0.3742067 α      in ANC's #210, #202, #160, ...

........................................................................
.............................. CYCLE    2 ..............................
........................................................................

 iter      E             dE          RMSdq      gap      omega  full diag
   1   -100.7616312 -0.100762E+03  0.264E-01    1.72       0.0  T
   2   -100.7621443 -0.513108E-03  0.148E-01    1.72       1.0  T
   3   -100.7616859  0.458463E-03  0.109E-01    1.69       1.0  T
   4   -100.7621424 -0.456550E-03  0.543E-02    1.76       1.0  T
   5   -100.7623455 -0.203044E-03  0.223E-02    1.70       1.0  T
   6   -100.7623913 -0.458481E-04  0.537E-03    1.72       2.2  T
   7   -100.7623914 -0.686942E-07  0.253E-03    1.72       4.7  T
   8   -100.7623920 -0.569517E-06  0.777E-04    1.72      15.2  T
   9   -100.7623920 -0.260262E-07  0.352E-04    1.72      33.5  T
     SCC iter.                  ...        0 min,  0.072 sec
     gradient                   ...        0 min,  0.075 sec
 * total energy  :   -99.3751999 Eh     change       -0.1618089E+00 Eh
   gradient norm :     0.0481338 Eh/α   predicted    -0.2486588E+00 (  53.67%)
   displ. norm   :     0.1298347 α      lambda       -0.2789209E-02
   maximum displ.:     0.0485858 α      in ANC's #80, #85, #125, ...

........................................................................
.............................. CYCLE    3 ..............................
........................................................................

 iter      E             dE          RMSdq      gap      omega  full diag
   1   -100.7568674 -0.100757E+03  0.734E-02    1.72       0.0  T
   2   -100.7568744 -0.698301E-05  0.439E-02    1.72       1.0  T
   3   -100.7568417  0.327238E-04  0.229E-02    1.72       1.0  T
   4   -100.7568751 -0.334285E-04  0.689E-03    1.71       1.7  T
   5   -100.7568784 -0.328805E-05  0.316E-03    1.72       3.7  T
   6   -100.7568792 -0.857092E-06  0.110E-03    1.72      10.8  T
   7   -100.7568793 -0.546199E-07  0.302E-04    1.72      39.1  T
   8   -100.7568793 -0.269644E-08  0.165E-04    1.72      71.3  T
     SCC iter.                  ...        0 min,  0.064 sec
     gradient                   ...        0 min,  0.072 sec
 * total energy  :   -99.3771426 Eh     change       -0.1942655E-02 Eh
   gradient norm :     0.0350257 Eh/α   predicted    -0.1410152E-02 ( -27.41%)
   displ. norm   :     0.1068168 α      lambda       -0.1400668E-02
   maximum displ.:     0.0302648 α      in ANC's #85, #80, #26, ...

........................................................................
.............................. CYCLE    4 ..............................
........................................................................

 iter      E             dE          RMSdq      gap      omega  full diag
   1   -100.7514506 -0.100751E+03  0.488E-02    1.72       0.0  T
   2   -100.7514566 -0.599824E-05  0.295E-02    1.72       1.0  T
   3   -100.7514416  0.149851E-04  0.185E-02    1.72       1.0  T
   4   -100.7514596 -0.179790E-04  0.522E-03    1.72       2.3  T
   5   -100.7514609 -0.127074E-05  0.244E-03    1.72       4.8  T
   6   -100.7514613 -0.460655E-06  0.115E-03    1.72      10.3  T
   7   -100.7514614 -0.995581E-07  0.231E-04    1.72      51.1  T
   8   -100.7514614 -0.147944E-08  0.123E-04    1.72      96.1  T
     SCC iter.                  ...        0 min,  0.064 sec
     gradient                   ...        0 min,  0.069 sec
 * total energy  :   -99.3780342 Eh     change       -0.8915603E-03 Eh
   gradient norm :     0.0184343 Eh/α   predicted    -0.7064137E-03 ( -20.77%)
   displ. norm   :     0.0652333 α      lambda       -0.3551141E-03
   maximum displ.:     0.0217998 α      in ANC's #12, #11, #20, ...

........................................................................
.............................. CYCLE    5 ..............................
........................................................................

 iter      E             dE          RMSdq      gap      omega  full diag
   1   -100.7500576 -0.100750E+03  0.195E-02    1.72       0.0  T
   2   -100.7500587 -0.105432E-05  0.111E-02    1.72       1.1  T
   3   -100.7500552  0.345882E-05  0.690E-03    1.72       1.7  T
   4   -100.7500579 -0.266314E-05  0.363E-03    1.72       3.2  T
   5   -100.7500592 -0.132286E-05  0.974E-04    1.72      12.1  T
   6   -100.7500593 -0.622672E-07  0.324E-04    1.72      36.4  T
   7   -100.7500593 -0.296559E-08  0.112E-04    1.72     105.0  T
     SCC iter.                  ...        0 min,  0.056 sec
     gradient                   ...        0 min,  0.069 sec
 * total energy  :   -99.3782713 Eh     change       -0.2371424E-03 Eh
   gradient norm :     0.0076820 Eh/α   predicted    -0.1780917E-03 ( -24.90%)
   displ. norm   :     0.0557884 α      lambda       -0.1119149E-03
   maximum displ.:     0.0212689 α      in ANC's #12, #11, #20, ...

   *** GEOMETRY OPTIMIZATION CONVERGED AFTER 5 ITERATIONS ***

------------------------------------------------------------------------
 total energy gain   :        -0.1648802 Eh     -103.4639 kcal/mol
 total RMSD          :         0.0674165 a0        0.0357 Å
 total power (kW/mol):       -86.5785886 (step) -521.7869 (real)
------------------------------------------------------------------------

 ANCopt (total)                0 d,  0 h,  0 min,  0.830 sec
 optimizer setup                ...        0 min,  0.000 sec (  0.027%)
 model hessian                  ...        0 min,  0.056 sec (  6.788%)
 ANC generation                 ...        0 min,  0.006 sec (  0.766%)
 coordinate transformation      ...        0 min,  0.000 sec (  0.041%)
 single point calculation       ...        0 min,  0.745 sec ( 89.771%)
 optimization log               ...        0 min,  0.015 sec (  1.804%)
 hessian update                 ...        0 min,  0.000 sec (  0.035%)
 rational function              ...        0 min,  0.004 sec (  0.528%)

================
 final structure:
================
72
 xtb: 6.6.1 (8d0f1dd)
N           -1.78770115007221        2.79950778220338        2.32637808750136
C           -1.71775048676674        2.11738436463773        1.28398055080442
C           -2.84354983608457        1.92946152451460        0.30506983997198
C           -3.31668418107339        0.48414486250011        0.34246152841725
C           -4.21534783729992        0.02396891714244       -0.62213975671185
C           -4.69424505126536       -1.27563339759974       -0.60410496502518
O           -5.56951844166038       -1.79628145632767       -1.48675885001200
C           -6.14371360729931       -0.96301019170793       -2.46642882998560
C           -4.25481633665637       -2.16985571404508        0.41070554743617
O           -4.76680275025137       -3.41372526328314        0.34730364132554
C           -4.45266925177540       -4.33902127805413        1.36216962926973
C           -3.36256164722163       -1.70624844496271        1.36461624819426
C           -2.90277628461809       -0.39577181625473        1.33102094356064
C           -2.24971473167301        2.25912831002871       -1.08931745033727
C           -1.30260189970674        1.18147151692538       -1.64584807409234
C            0.01831427450832        1.14102812505348       -0.97924619462712
N            0.66659137765284        0.03798428482867       -0.62741124223318
C            2.05604745112380        0.09415526852426       -0.23609940900488
C            2.98547843345979       -0.33152859296103       -1.38849041646792
C            4.42478059871252       -0.23282874150988       -0.95788881430864
C            5.20100221939564        0.80556208780966       -1.32103121275822
C            6.62087634903932        0.95291139854808       -0.90589933355578
C            7.10968454147737       -0.07853824718245        0.10226170878214
O            8.18296624582517        0.03078503012846        0.64886565670246
C            6.90529034168270        2.37198020141282       -0.38174708580487
C            6.22072328628815       -1.23834531094461        0.35730851527346
O            6.80654060660309       -2.16760529190705        1.12350950305412
C            6.11058171814258       -3.34806299426338        1.44605404600260
C            4.94923526118827       -1.27588682018726       -0.12943497208669
C            0.05345901056364       -1.26682173935508       -0.70371979439481
C           -4.06824084504151        2.84913885160596        0.59187436691126
C           -4.73517640552096        2.49432905427432        1.91862233346555
C           -3.72251412410002        4.33522082435768        0.56943622168820
H           -4.55840683874713        0.69761976802289       -1.38966514896600
H           -6.67799866660490       -0.12211091682405       -2.01434140878438
H           -6.85097823960618       -1.59093473046724       -3.00462416148380
H           -5.39108362895307       -0.58666151821617       -3.16685760217121
H           -4.76198550167642       -3.97452505295160        2.34604762519939
H           -5.01209523999151       -5.24007022298741        1.11878182744059
H           -3.38285544066572       -4.57047161630937        1.37735356381233
H           -3.02670455032476       -2.35596041525067        2.15639127028638
H           -2.23517950194024       -0.06258361680759        2.11053010334584
H           -3.06788855764979        2.38747815749762       -1.79690726877131
H           -1.71526043762185        3.20782692261341       -1.02885642640742
H           -1.79696401597242        0.21196552624325       -1.62004419136367
H           -1.12182902805931        1.43586865553048       -2.69860818540002
H           -0.79424361330036        1.60909497257970        0.93984057426395
H            0.57308019133459        2.06611580365997       -0.91788533113041
H            2.21309800741141       -0.56141659326955        0.62460993877620
H            2.30793575982436        1.11420742670696        0.06123944114754
H            2.80881481099941        0.32231243862656       -2.24368041796654
H            2.75523491202926       -1.35626308512581       -1.68479713686700
H            4.81300911525340        1.58902324925375       -1.95610094911621
H            6.79017613828205        3.10059964357246       -1.17958896672022
H            6.22412795587451        2.62670581619097        0.42857084794502
H            7.92247240670584        2.41608899683723       -0.00231520888659
H            7.25660506550965        0.80912725664412       -1.78508997084706
H            6.81307945114533       -3.95987159108487        2.00856957509789
H            5.23471934429305       -3.13684757202946        2.06804288992578
H            5.80007526820485       -3.88619854008999        0.54499902337443
H            4.30406291567546       -2.11280196878014        0.09459652879604
H           -0.10327463230585       -1.57193549458201       -1.74057037486186
H           -0.91027537531759       -1.26506452391720       -0.18876717480616
H            0.70034855209005       -1.99590322794354       -0.22248576136725
H           -4.79161360534929        2.65848873702170       -0.20914072404257
H           -4.05397856804737        2.68691969973380        2.74121522222421
H           -5.03243690350015        1.44874070689678        1.94303302403593
H           -5.62334541076530        3.10566743056328        2.05429847223109
H           -2.98159533995329        4.56281895796771        1.32964205509798
H           -3.35091191360739        4.65211694664966       -0.40143471559805
H           -4.61787724980274        4.91171736921005        0.78642435905219
H           -0.95672888544663        2.88425862315924        2.90276765914580

 Bond Distances (Angstroems)
 ---------------------------
N1-C2=1.2477         N1-H72=1.0149        C2-N1=1.2477         C2-C3=1.5037         C2-H47=1.1089        C3-C2=1.5037         
C3-C4=1.5212         C3-C14=1.5510        C3-C31=1.5582        C4-C3=1.5212         C4-C5=1.3964         C4-C13=1.3867        
C5-C4=1.3964         C5-C6=1.3851         C5-H34=1.0773        C6-C5=1.3851         C6-O7=1.3477         C6-C9=1.4222         
O7-C6=1.3477         O7-C8=1.4085         C8-O7=1.4085         C8-H35=1.0941        C8-H36=1.0882        C8-H37=1.0948        
C9-C6=1.4222         C9-O10=1.3466        C9-C12=1.3860        O10-C9=1.3466        O10-C11=1.4088       C11-O10=1.4088       
C11-H38=1.0939       C11-H39=1.0882       C11-H40=1.0947       C12-C9=1.3860        C12-C13=1.3892       C12-H41=1.0779       
C13-C4=1.3867        C13-C12=1.3892       C13-H42=1.0790       C14-C3=1.5510        C14-C15=1.5389       C14-H43=1.0893       
C14-H44=1.0906       C15-C14=1.5389       C15-C16=1.4801       C15-H45=1.0886       C15-H46=1.0980       C16-C15=1.4801       
C16-N17=1.3269       C16-H48=1.0804       N17-C16=1.3269       N17-C18=1.4446       N17-C30=1.4437       C18-N17=1.4446       
C18-C19=1.5405       C18-H49=1.0933       C18-H50=1.0920       C19-C18=1.5405       C19-C20=1.5056       C19-H51=1.0909       
C19-H52=1.0913       C20-C19=1.5056       C20-C21=1.3463       C20-C29=1.4316       C21-C20=1.3463       C21-C22=1.4866       
C21-H53=1.0806       C22-C21=1.4866       C22-C23=1.5229       C22-C25=1.5393       C22-H57=1.0944       C23-C22=1.5229       
C23-O24=1.2094       C23-C26=1.4834       O24-C23=1.2094       C25-C22=1.5393       C25-H54=1.0866       C25-H55=1.0888       
C25-H56=1.0865       C26-C23=1.4834       C26-O27=1.3393       C26-C29=1.3620       O27-C26=1.3393       O27-C28=1.4078       
C28-O27=1.4078       C28-H58=1.0882       C28-H59=1.0948       C28-H60=1.0945       C29-C20=1.4316       C29-C26=1.3620       
C29-H61=1.0802       C30-N17=1.4437       C30-H62=1.0921       C30-H63=1.0927       C30-H64=1.0870       C31-C3=1.5582        
C31-C32=1.5267       C31-C33=1.5259       C31-H65=1.0960       C32-C31=1.5267       C32-H66=1.0853       C32-H67=1.0873       
C32-H68=1.0867       C33-C31=1.5259       C33-H69=1.0857       C33-H70=1.0868       C33-H71=1.0868       H34-C5=1.0773        
H35-C8=1.0941        H36-C8=1.0882        H37-C8=1.0948        H38-C11=1.0939       H39-C11=1.0882       H40-C11=1.0947       
H41-C12=1.0779       H42-C13=1.0790       H43-C14=1.0893       H44-C14=1.0906       H45-C15=1.0886       H46-C15=1.0980       
H47-C2=1.1089        H48-C16=1.0804       H49-C18=1.0933       H50-C18=1.0920       H51-C19=1.0909       H52-C19=1.0913       
H53-C21=1.0806       H54-C25=1.0866       H55-C25=1.0888       H56-C25=1.0865       H57-C22=1.0944       H58-C28=1.0882       
H59-C28=1.0948       H60-C28=1.0945       H61-C29=1.0802       H62-C30=1.0921       H63-C30=1.0927       H64-C30=1.0870       
H65-C31=1.0960       H66-C32=1.0853       H67-C32=1.0873       H68-C32=1.0867       H69-C33=1.0857       H70-C33=1.0868       
H71-C33=1.0868       H72-N1=1.0149        
 C  H  Rav=1.0893 sigma=0.0061  Rmin=1.0773  Rmax=1.1089    38
 C  C  Rav=1.4691 sigma=0.0683  Rmin=1.3463  Rmax=1.5582    23
 N  H  Rav=1.0149 sigma=0.0000  Rmin=1.0149  Rmax=1.0149     1
 N  C  Rav=1.3657 sigma=0.0833  Rmin=1.2477  Rmax=1.4446     4
 O  C  Rav=1.3526 sigma=0.0655  Rmin=1.2094  Rmax=1.4088     7

 selected bond angles (degree)
 --------------------
H72-N1-C2=118.31               C3-C2-N1=124.77                H47-C2-N1=123.82               H47-C2-C3=111.36               
C4-C3-C2=109.61                C14-C3-C2=105.79               C14-C3-C4=110.07               C31-C3-C2=113.26               
C31-C3-C4=108.17               C31-C3-C14=109.93              C5-C4-C3=119.75                C13-C4-C3=121.84               
C13-C4-C5=118.39               C6-C5-C4=121.51                H34-C5-C4=119.41               H34-C5-C6=119.07               
O7-C6-C5=125.34                C9-C6-C5=119.50                C9-C6-O7=115.16                C8-O7-C6=119.46                
H35-C8-O7=111.49               H36-C8-O7=105.52               H36-C8-H35=109.30              H37-C8-O7=111.60               
H37-C8-H35=109.62              H37-C8-H36=109.19              O10-C9-C6=115.45               C12-C9-C6=118.67               
C12-C9-O10=125.88              C11-O10-C9=119.21              

 selected dihedral angles (degree)
 ---------------------------------
C3-C2-N1-H72=181.96           H47-C2-N1-H72=359.00          C4-C3-C2-N1=247.99            C4-C3-C2-H47= 70.62           
C14-C3-C2-N1=129.35           C14-C3-C2-H47=311.99          C31-C3-C2-N1=  8.87           C31-C3-C2-H47=191.51          
C5-C4-C3-C2=189.66            C5-C4-C3-C14=305.62           C5-C4-C3-C31= 65.74           C13-C4-C3-C2= 11.07           
C13-C4-C3-C14=127.02          C13-C4-C3-C31=247.15          C6-C5-C4-C3=181.54            C6-C5-C4-C13=  0.18           
H34-C5-C4-C3=  0.51           H34-C5-C4-C13=179.15          O7-C6-C5-C4=179.39            O7-C6-C5-H34=  0.42           
C9-C6-C5-C4=359.42            C9-C6-C5-H34=180.45           C8-O7-C6-C5=355.11            C8-O7-C6-C9=175.08            
H35-C8-O7-C6=302.10           H36-C8-O7-C6=183.55           H37-C8-O7-C6= 65.07           O10-C9-C6-C5=180.30           
O10-C9-C6-O7=  0.32           C12-C9-C6-C5=  0.55           C12-C9-C6-O7=180.57           C11-O10-C9-C6=184.05          
C11-O10-C9-C12=  3.77         
           -------------------------------------------------
          |                Final Singlepoint                |
           -------------------------------------------------

          ...................................................
          :                      SETUP                      :
          :.................................................:
          :  # basis functions                 171          :
          :  # atomic orbitals                 171          :
          :  # shells                          105          :
          :  # electrons                       180          :
          :  max. iterations                   250          :
          :  Hamiltonian                  GFN2-xTB          :
          :  restarted?                      false          :
          :  GBSA solvation                  false          :
          :  PC potential                    false          :
          :  electronic temp.         5000.0000000     K    :
          :  accuracy                    1.0000000          :
          :  -> integral cutoff          0.2500000E+02      :
          :  -> integral neglect         0.1000000E-07      :
          :  -> SCF convergence          0.1000000E-05 Eh   :
          :  -> wf. convergence          0.1000000E-03 e    :
          :  Broyden damping             0.4000000          :
          ...................................................

 iter      E             dE          RMSdq      gap      omega  full diag
   1   -100.7500593 -0.100750E+03  0.548E-05    1.72       0.0  T
   2   -100.7500593 -0.217284E-10  0.399E-05    1.72     295.4  T
   3   -100.7500593 -0.778186E-10  0.241E-05    1.72     488.2  T

   *** convergence criteria satisfied after 3 iterations ***

         #    Occupation            Energy/Eh            Energy/eV
      -------------------------------------------------------------
         1        2.0000           -0.8160912             -22.2070
       ...           ...                  ...                  ...
        84        1.9942           -0.5182527             -14.1024
        85        1.9932           -0.5156838             -14.0325
        86        1.9785           -0.4973137             -13.5326
        87        1.9307           -0.4783815             -13.0174
        88        1.9262           -0.4773324             -12.9889
        89        1.8683           -0.4676895             -12.7265
        90        1.8547           -0.4660169             -12.6810 (HOMO)
        91        0.3831           -0.4028871             -10.9631 (LUMO)
        92        0.0787           -0.3751049             -10.2071
        93        0.0131           -0.3461662              -9.4197
        94        0.0031           -0.3234676              -8.8020
        95        0.0026           -0.3205686              -8.7231
       ...           ...                  ...                  ...
       171                          0.6025956              16.3975
      -------------------------------------------------------------
                  HL-Gap            0.0631298 Eh            1.7178 eV
             Fermi-level           -0.4256880 Eh          -11.5836 eV

 SCC (total)                   0 d,  0 h,  0 min,  0.116 sec
 SCC setup                      ...        0 min,  0.001 sec (  0.747%)
 Dispersion                     ...        0 min,  0.002 sec (  1.336%)
 classical contributions        ...        0 min,  0.000 sec (  0.373%)
 integral evaluation            ...        0 min,  0.018 sec ( 15.537%)
 iterations                     ...        0 min,  0.026 sec ( 22.278%)
 molecular gradient             ...        0 min,  0.069 sec ( 59.242%)
 printout                       ...        0 min,  0.001 sec (  0.474%)

         :::::::::::::::::::::::::::::::::::::::::::::::::::::
         ::                     SUMMARY                     ::
         :::::::::::::::::::::::::::::::::::::::::::::::::::::
         :: total energy             -99.378271296978 Eh    ::
         :: gradient norm              0.007681168636 Eh/a0 ::
         :: HOMO-LUMO gap              1.717848868009 eV    ::
         ::.................................................::
         :: SCC energy              -100.750059286325 Eh    ::
         :: -> isotropic ES            0.121882777983 Eh    ::
         :: -> anisotropic ES          0.004765975484 Eh    ::
         :: -> anisotropic XC          0.044855115496 Eh    ::
         :: -> dispersion             -0.075047843310 Eh    ::
         :: repulsion energy           1.370407074681 Eh    ::
         :: add. restraining           0.000000000000 Eh    ::
         :: total charge               1.000000000000 e     ::
         :::::::::::::::::::::::::::::::::::::::::::::::::::::

           -------------------------------------------------
          |                Property Printout                |
           -------------------------------------------------

    * Orbital Energies and Occupations

         #    Occupation            Energy/Eh            Energy/eV
      -------------------------------------------------------------
         1        2.0000           -0.8160912             -22.2070
       ...           ...                  ...                  ...
        78        1.9980           -0.5349843             -14.5577
        79        1.9978           -0.5335766             -14.5194
        80        1.9971           -0.5293024             -14.4031
        81        1.9969           -0.5283476             -14.3771
        82        1.9965           -0.5259808             -14.3127
        83        1.9951           -0.5209851             -14.1767
        84        1.9942           -0.5182527             -14.1024
        85        1.9932           -0.5156838             -14.0325
        86        1.9785           -0.4973137             -13.5326
        87        1.9307           -0.4783815             -13.0174
        88        1.9262           -0.4773324             -12.9889
        89        1.8683           -0.4676895             -12.7265
        90        1.8547           -0.4660169             -12.6810 (HOMO)
        91        0.3831           -0.4028871             -10.9631 (LUMO)
        92        0.0787           -0.3751049             -10.2071
        93        0.0131           -0.3461662              -9.4197
        94        0.0031           -0.3234676              -8.8020
        95        0.0026           -0.3205686              -8.7231
        96        0.0012           -0.3083617              -8.3909
        97        0.0000           -0.2332362              -6.3467
        98        0.0000           -0.1979522              -5.3866
        99                         -0.1457011              -3.9647
       100                         -0.0773181              -2.1039
       101                         -0.0761793              -2.0729
       ...                                ...                  ...
       171                          0.6025956              16.3975
      -------------------------------------------------------------
                  HL-Gap            0.0631298 Eh            1.7178 eV
             Fermi-level           -0.4256880 Eh          -11.5836 eV

     #   Z          covCN         q      C6AA      α(0)
     1   7 N        1.774    -0.264    27.666     7.789
     2   6 C        2.827     0.102    25.739     8.313
     3   6 C        3.907     0.007    20.409     6.421
     4   6 C        2.974     0.003    27.960     8.674
     5   6 C        2.920    -0.080    29.997     8.981
     6   6 C        2.862     0.130    25.143     8.219
     7   8 O        1.706    -0.227    17.765     5.691
     8   6 C        3.644     0.027    20.466     6.503
     9   6 C        2.864     0.129    25.161     8.222
    10   8 O        1.706    -0.225    17.740     5.687
    11   6 C        3.645     0.026    20.474     6.503
    12   6 C        2.913    -0.074    29.851     8.959
    13   6 C        2.921    -0.053    29.315     8.879
    14   6 C        3.813    -0.065    21.742     6.637
    15   6 C        3.802    -0.070    21.832     6.652
    16   6 C        2.843     0.009    27.815     8.643
    17   7 N        2.729     0.012    21.050     6.814
    18   6 C        3.755    -0.016    20.920     6.522
    19   6 C        3.809    -0.071    21.860     6.656
    20   6 C        2.954     0.003    27.956     8.672
    21   6 C        2.909    -0.049    29.227     8.865
    22   6 C        3.857    -0.036    21.183     6.546
    23   6 C        2.821     0.218    23.400     7.926
    24   8 O        0.857    -0.316    20.065     6.006
    25   6 C        3.756    -0.106    22.576     6.775
    26   6 C        2.847     0.124    25.279     8.240
    27   8 O        1.706    -0.206    17.421     5.635
    28   6 C        3.645     0.025    20.495     6.506
    29   6 C        2.909    -0.080    29.993     8.980
    30   6 C        3.700    -0.071    22.019     6.711
    31   6 C        3.853    -0.007    20.672     6.467
    32   6 C        3.756    -0.119    22.837     6.814
    33   6 C        3.755    -0.119    22.836     6.814
    34   1 H        0.926     0.053     2.281     2.362
    35   1 H        0.924     0.055     2.255     2.349
    36   1 H        0.925     0.083     1.949     2.183
    37   1 H        0.924     0.049     2.339     2.392
    38   1 H        0.924     0.057     2.237     2.339
    39   1 H        0.925     0.083     1.950     2.183
    40   1 H        0.924     0.049     2.329     2.387
    41   1 H        0.926     0.054     2.276     2.359
    42   1 H        0.926     0.040     2.451     2.448
    43   1 H        0.925     0.062     2.181     2.310
    44   1 H        0.924     0.055     2.260     2.351
    45   1 H        0.925     0.067     2.118     2.276
    46   1 H        0.923     0.082     1.957     2.188
    47   1 H        0.922     0.007     2.934     2.679
    48   1 H        0.926     0.071     2.071     2.250
    49   1 H        0.924     0.069     2.098     2.265
    50   1 H        0.924     0.068     2.111     2.272
    51   1 H        0.924     0.054     2.265     2.353
    52   1 H        0.924     0.059     2.210     2.325
    53   1 H        0.926     0.054     2.275     2.359
    54   1 H        0.925     0.056     2.242     2.341
    55   1 H        0.925     0.047     2.358     2.401
    56   1 H        0.925     0.079     1.990     2.206
    57   1 H        0.924     0.099     1.791     2.093
    58   1 H        0.925     0.088     1.899     2.155
    59   1 H        0.924     0.052     2.299     2.371
    60   1 H        0.924     0.055     2.263     2.353
    61   1 H        0.926     0.046     2.365     2.405
    62   1 H        0.924     0.077     2.008     2.216
    63   1 H        0.924     0.080     1.978     2.199
    64   1 H        0.925     0.080     1.977     2.199
    65   1 H        0.924     0.039     2.467     2.456
    66   1 H        0.925     0.070     2.085     2.258
    67   1 H        0.925     0.036     2.501     2.473
    68   1 H        0.925     0.053     2.284     2.363
    69   1 H        0.925     0.061     2.186     2.312
    70   1 H        0.925     0.036     2.508     2.477
    71   1 H        0.925     0.056     2.243     2.342
    72   1 H        0.860     0.160     1.337     1.811

 Mol. C6AA /au·bohr⁶  :      47069.013501
 Mol. C8AA /au·bohr⁸  :    1072885.276516
 Mol. α(0) /au        :        331.781869


Wiberg/Mayer (AO) data.
largest (>0.10) Wiberg bond orders for each atom

 ---------------------------------------------------------------------------
     #   Z sym  total        # sym  WBO       # sym  WBO       # sym  WBO
 ---------------------------------------------------------------------------
     1   7 N    3.044 --     2 C    1.960    72 H    0.940
     2   6 C    3.929 --     1 N    1.960     3 C    0.994    47 H    0.896
     3   6 C    3.974 --     2 C    0.994     4 C    0.970    14 C    0.957
                            31 C    0.941
     4   6 C    3.946 --    13 C    1.411     5 C    1.369     3 C    0.970
     5   6 C    3.960 --     6 C    1.399     4 C    1.369    34 H    0.958
     6   6 C    3.902 --     5 C    1.399     9 C    1.218     7 O    1.103
     7   8 O    2.255 --     6 C    1.103     8 C    0.977
     8   6 C    3.930 --     7 O    0.977    36 H    0.976    35 H    0.973
                            37 H    0.973
     9   6 C    3.898 --    12 C    1.390     6 C    1.218    10 O    1.106
    10   8 O    2.254 --     9 C    1.106    11 C    0.976
    11   6 C    3.929 --    39 H    0.977    10 O    0.976    40 H    0.973
                            38 H    0.973
    12   6 C    3.960 --    13 C    1.405     9 C    1.390    41 H    0.963
    13   6 C    3.951 --     4 C    1.411    12 C    1.405    42 H    0.962
    14   6 C    3.973 --    15 C    0.982    44 H    0.972    43 H    0.968
                             3 C    0.957
    15   6 C    3.986 --    16 C    1.060    14 C    0.982    45 H    0.961
                            46 H    0.925
    16   6 C    3.604 --    17 N    1.406    15 C    1.060    48 H    0.957
    17   7 N    3.484 --    16 C    1.406    30 C    0.998    18 C    0.987
    18   6 C    3.956 --    17 N    0.987    19 C    0.969    50 H    0.968
                            49 H    0.963
    19   6 C    3.976 --    20 C    1.003    51 H    0.974    18 C    0.969
                            52 H    0.968
    20   6 C    3.959 --    21 C    1.688    29 C    1.179    19 C    1.003
    21   6 C    3.895 --    20 C    1.688    22 C    1.040    53 H    0.963
    22   6 C    3.967 --    21 C    1.040    25 C    0.968    23 C    0.961
                            57 H    0.898
    23   6 C    3.900 --    24 O    1.803    26 C    1.019    22 C    0.961
    24   8 O    2.027 --    23 C    1.803
    25   6 C    3.973 --    55 H    0.987    54 H    0.983    56 H    0.978
                            22 C    0.968
    26   6 C    3.865 --    29 C    1.538    27 O    1.131    23 C    1.019
    27   8 O    2.291 --    26 C    1.131    28 C    0.975    29 C    0.104
    28   6 C    3.928 --    58 H    0.976    27 O    0.975    60 H    0.972
                            59 H    0.972
    29   6 C    3.909 --    26 C    1.538    20 C    1.179    61 H    0.960
                            27 O    0.104
    30   6 C    3.957 --    17 N    0.998    64 H    0.977    62 H    0.966
                            63 H    0.962
    31   6 C    3.970 --    33 C    1.009    32 C    1.008    65 H    0.959
                             3 C    0.941
    32   6 C    3.976 --    31 C    1.008    67 H    0.981    68 H    0.981
                            66 H    0.973
    33   6 C    3.981 --    31 C    1.009    70 H    0.983    71 H    0.979
                            69 H    0.976
    34   1 H    0.996 --     5 C    0.958
    35   1 H    0.993 --     8 C    0.973
    36   1 H    0.992 --     8 C    0.976
    37   1 H    0.993 --     8 C    0.973
    38   1 H    0.992 --    11 C    0.973
    39   1 H    0.992 --    11 C    0.977
    40   1 H    0.993 --    11 C    0.973
    41   1 H    0.995 --    12 C    0.963
    42   1 H    0.998 --    13 C    0.962
    43   1 H    0.995 --    14 C    0.968
    44   1 H    0.996 --    14 C    0.972
    45   1 H    0.995 --    15 C    0.961
    46   1 H    0.970 --    15 C    0.925
    47   1 H    0.985 --     2 C    0.896
    48   1 H    0.995 --    16 C    0.957
    49   1 H    0.991 --    18 C    0.963
    50   1 H    0.994 --    18 C    0.968
    51   1 H    0.996 --    19 C    0.974
    52   1 H    0.996 --    19 C    0.968
    53   1 H    0.994 --    21 C    0.963
    54   1 H    0.994 --    25 C    0.983
    55   1 H    0.996 --    25 C    0.987
    56   1 H    0.992 --    25 C    0.978
    57   1 H    0.978 --    22 C    0.898
    58   1 H    0.991 --    28 C    0.976
    59   1 H    0.993 --    28 C    0.972
    60   1 H    0.993 --    28 C    0.972
    61   1 H    0.995 --    29 C    0.960
    62   1 H    0.985 --    30 C    0.966
    63   1 H    0.987 --    30 C    0.962
    64   1 H    0.993 --    30 C    0.977
    65   1 H    0.991 --    31 C    0.959
    66   1 H    0.990 --    32 C    0.973
    67   1 H    0.996 --    32 C    0.981
    68   1 H    0.993 --    32 C    0.981
    69   1 H    0.993 --    33 C    0.976
    70   1 H    0.997 --    33 C    0.983
    71   1 H    0.993 --    33 C    0.979
    72   1 H    0.969 --     1 N    0.940
 ---------------------------------------------------------------------------

Topologies differ in total number of bonds
Writing topology from bond orders to xtbtopo.mol

molecular dipole:
                 x           y           z       tot (Debye)
 q only:       -1.098      -0.318      -1.192
   full:       -0.960      -0.531      -1.399       4.520
molecular quadrupole (traceless):
                xx          xy          yy          xz          yz          zz
 q only:        8.742      -4.274       6.615      -4.924     -13.021     -15.357
  q+dip:       -0.325      -2.913       8.976      -4.308     -16.950      -8.651
   full:       -1.078      -3.949       8.962      -6.718     -16.405      -7.884

           -------------------------------------------------
          |                Geometry Summary                 |
           -------------------------------------------------

      molecular mass/u    :      455.6105846
   center of mass at/Å    :        0.0579006      -0.0273959       0.0169528
  moments of inertia/u·Å² :        0.2569659E+04   0.1035826E+05   0.1164158E+05
rotational constants/cm⁻¹ :        0.6560261E-02   0.1627457E-02   0.1448054E-02

 * 64 selected distances

     #   Z          #   Z                                           value/Å
     1   7 N        2   6 C                                       1.2477092
     4   6 C        5   6 C                                       1.3963575
     5   6 C        6   6 C                                       1.3851478
     6   6 C        7   8 O                                       1.3476855
     7   8 O        8   6 C                                       1.4084725
     6   6 C        9   6 C                                       1.4221715
     9   6 C       10   8 O                                       1.3466112
    10   8 O       11   6 C                                       1.4088314
     9   6 C       12   6 C                                       1.3860000
     4   6 C       13   6 C                                       1.3866590
    12   6 C       13   6 C                                       1.3892014
    14   6 C       15   6 C                                       1.5388612
    15   6 C       16   6 C                                       1.4801397
    16   6 C       17   7 N                                       1.3269352
    17   7 N       18   6 C                                       1.4445998
    18   6 C       19   6 C                                       1.5404721 (max)
    20   6 C       21   6 C                                       1.3463463
    21   6 C       22   6 C                                       1.4866369
    23   6 C       24   8 O                                       1.2094054
    22   6 C       25   6 C                                       1.5392802
    26   6 C       27   8 O                                       1.3393171
    27   8 O       28   6 C                                       1.4077906
    20   6 C       29   6 C                                       1.4315582
    26   6 C       29   6 C                                       1.3619878
    17   7 N       30   6 C                                       1.4437013
    31   6 C       32   6 C                                       1.5267461
    31   6 C       33   6 C                                       1.5259327
     5   6 C       34   1 H                                       1.0773070 (min)
     8   6 C       35   1 H                                       1.0940546
     8   6 C       36   1 H                                       1.0881943
     8   6 C       37   1 H                                       1.0948474
    11   6 C       38   1 H                                       1.0938694
    11   6 C       39   1 H                                       1.0881565
    11   6 C       40   1 H                                       1.0946696
    12   6 C       41   1 H                                       1.0778838
    13   6 C       42   1 H                                       1.0790434
    14   6 C       43   1 H                                       1.0892959
    14   6 C       44   1 H                                       1.0905623
    15   6 C       45   1 H                                       1.0885779
    15   6 C       46   1 H                                       1.0980441
    16   6 C       48   1 H                                       1.0804248
    18   6 C       49   1 H                                       1.0932795
    18   6 C       50   1 H                                       1.0919545
    19   6 C       51   1 H                                       1.0909025
    19   6 C       52   1 H                                       1.0912794
    21   6 C       53   1 H                                       1.0805849
    25   6 C       54   1 H                                       1.0865954
    25   6 C       55   1 H                                       1.0887987
    25   6 C       56   1 H                                       1.0865421
    22   6 C       57   1 H                                       1.0944411
    28   6 C       58   1 H                                       1.0882264
    28   6 C       59   1 H                                       1.0948138
    28   6 C       60   1 H                                       1.0944882
    29   6 C       61   1 H                                       1.0802151
    30   6 C       62   1 H                                       1.0921168
    30   6 C       63   1 H                                       1.0926864
    30   6 C       64   1 H                                       1.0870199
    31   6 C       65   1 H                                       1.0960114
    32   6 C       66   1 H                                       1.0852562
    32   6 C       67   1 H                                       1.0872971
    32   6 C       68   1 H                                       1.0867323
    33   6 C       69   1 H                                       1.0856679
    33   6 C       70   1 H                                       1.0867851
    33   6 C       71   1 H                                       1.0867877

 * 4 distinct bonds (by element types)

   Z      Z             #   av. dist./Å        max./Å        min./Å
   1 H    6 C          37     1.0887409     1.0980441     1.0773070
   6 C    6 C          16     1.4464686     1.5404721     1.3463463
   6 C    7 N           4     1.3657364     1.4445998     1.2477092
   6 C    8 O           7     1.3525877     1.4088314     1.2094054


optimized geometry written to: xtbopt.xyz


           -------------------------------------------------
          | TOTAL ENERGY              -99.378271296978 Eh   |
          | GRADIENT NORM               0.007681168636 Eh/α |
          | HOMO-LUMO GAP               1.717848868009 eV   |
           -------------------------------------------------

------------------------------------------------------------------------
 * finished run on 2024/04/06 at 11:17:08.265     
------------------------------------------------------------------------
 total:
 * wall-time:     0 d,  0 h,  0 min,  1.118 sec
 *  cpu-time:     0 d,  0 h,  0 min,  1.080 sec
 * ratio c/w:     0.966 speedup
 SCF:
 * wall-time:     0 d,  0 h,  0 min,  0.122 sec
 *  cpu-time:     0 d,  0 h,  0 min,  0.122 sec
 * ratio c/w:     0.998 speedup
 ANC optimizer:
 * wall-time:     0 d,  0 h,  0 min,  0.953 sec
 *  cpu-time:     0 d,  0 h,  0 min,  0.934 sec
 * ratio c/w:     0.980 speedup

