      -----------------------------------------------------------      
     |                   =====================                   |     
     |                           x T B                           |     
     |                   =====================                   |     
     |                         S. Grimme                         |     
     |          Mulliken Center for Theoretical Chemistry        |     
     |                    University of Bonn                     |     
      -----------------------------------------------------------      

   * xtb version 6.6.1 (8d0f1dd) compiled by 'conda@1efc2f54142f' on 2023-08-01

   xtb is free software: you can redistribute it and/or modify it under
   the terms of the GNU Lesser General Public License as published by
   the Free Software Foundation, either version 3 of the License, or
   (at your option) any later version.
   
   xtb is distributed in the hope that it will be useful,
   but WITHOUT ANY WARRANTY; without even the implied warranty of
   MERCHANTABILITY or FITNESS FOR A PARTICULAR PURPOSE.  See the
   GNU Lesser General Public License for more details.
   
   Cite this work as:
   * C. Bannwarth, E. Caldeweyher, S. Ehlert, A. Hansen, P. Pracht,
     J. Seibert, S. Spicher, S. Grimme, WIREs Comput. Mol. Sci., 2020, 11,
     e01493. DOI: 10.1002/wcms.1493
   
   for GFN2-xTB:
   * C. Bannwarth, S. Ehlert and S. Grimme., J. Chem. Theory Comput., 2019,
     15, 1652-1671. DOI: 10.1021/acs.jctc.8b01176
   for GFN1-xTB:
   * S. Grimme, C. Bannwarth, P. Shushkov, J. Chem. Theory Comput., 2017,
     13, 1989-2009. DOI: 10.1021/acs.jctc.7b00118
   for GFN0-xTB:
   * P. Pracht, E. Caldeweyher, S. Ehlert, S. Grimme, ChemRxiv, 2019, preprint.
     DOI: 10.26434/chemrxiv.8326202.v1
   for GFN-FF:
   * S. Spicher and S. Grimme, Angew. Chem. Int. Ed., 2020, 59, 15665-15673.
     DOI: 10.1002/anie.202004239
   
   for ALPB and GBSA implicit solvation:
   * S. Ehlert, M. Stahn, S. Spicher, S. Grimme, J. Chem. Theory Comput.,
     2021, 17, 4250-4261. DOI: 10.1021/acs.jctc.1c00471
   
   for DFT-D4:
   * E. Caldeweyher, C. Bannwarth and S. Grimme, J. Chem. Phys., 2017,
     147, 034112. DOI: 10.1063/1.4993215
   * E. Caldeweyher, S. Ehlert, A. Hansen, H. Neugebauer, S. Spicher,
     C. Bannwarth and S. Grimme, J. Chem. Phys., 2019, 150, 154122.
     DOI: 10.1063/1.5090222
   * E. Caldeweyher, J.-M. Mewes, S. Ehlert and S. Grimme, Phys. Chem. Chem. Phys.
     2020, 22, 8499-8512. DOI: 10.1039/D0CP00502A
   
   for sTDA-xTB:
   * S. Grimme and C. Bannwarth, J. Chem. Phys., 2016, 145, 054103.
     DOI: 10.1063/1.4959605
   
   in the mass-spec context:
   * V. Asgeirsson, C. Bauer and S. Grimme, Chem. Sci., 2017, 8, 4879.
     DOI: 10.1039/c7sc00601b
   * J. Koopman and S. Grimme, ACS Omega 2019, 4, 12, 15120-15133.
     DOI: 10.1021/acsomega.9b02011
   
   for metadynamics refer to:
   * S. Grimme, J. Chem. Theory Comput., 2019, 155, 2847-2862
     DOI: 10.1021/acs.jctc.9b00143
   
   for SPH calculations refer to:
   * S. Spicher and S. Grimme, J. Chem. Theory Comput., 2021, 17, 1701-1714
     DOI: 10.1021/acs.jctc.0c01306
   
   with help from (in alphabetical order)
   P. Atkinson, C. Bannwarth, F. Bohle, G. Brandenburg, E. Caldeweyher
   M. Checinski, S. Dohm, S. Ehlert, S. Ehrlich, I. Gerasimov, C. Hölzer
   A. Katbashev, J. Koopman, C. Lavigne, S. Lehtola, F. März, M. Müller,
   F. Musil, H. Neugebauer, J. Pisarek, C. Plett, P. Pracht, F. Pultar,
   J. Seibert, P. Shushkov, S. Spicher, M. Stahn, M. Steiner, T. Strunk,
   J. Stückrath, T. Rose, and J. Unsleber
   
 * started run on 2024/06/05 at 19:58:06.688     

           -------------------------------------------------
          |                Calculation Setup                |
           -------------------------------------------------

          program call               : xtb xtbopt.xyz --opt crude --input .xc2 --gfn2
          hostname                   : n-62-21-68
          coordinate file            : xtbopt.xyz
          omp threads                :                     1

   ID    Z sym.   atoms
    1    6 C      1, 3, 5-7, 10, 11, 14
    2    7 N      2, 4, 9, 13
    3    8 O      8, 12
    4    1 H      15-25

molecular fragmentation (1/2 indicates fragments):
1111111111111111111112111
# atoms in fragment 1/2:    24     1
 fragment masses (1/2) :      194.19        1.01
CMA distance (Bohr)    :  10.364
constraining FC (au)   :  0.0500
########################################################################
[WARNING] Please study the warnings concerning your input carefully
-1- readin_getIntValue: could not parse ''
########################################################################

           -------------------------------------------------
          |                 G F N 2 - x T B                 |
           -------------------------------------------------

        Reference                      10.1021/acs.jctc.8b01176
      * Hamiltonian:
        H0-scaling (s, p, d)           1.850000    2.230000    2.230000
        zeta-weighting                 0.500000
      * Dispersion:
        s8                             2.700000
        a1                             0.520000
        a2                             5.000000
        s9                             5.000000
      * Repulsion:
        kExp                           1.500000    1.000000
        rExp                           1.000000
      * Coulomb:
        alpha                          2.000000
        third order                    shell-resolved
        anisotropic                    true
        a3                             3.000000
        a5                             4.000000
        cn-shift                       1.200000
        cn-exp                         4.000000
        max-rad                        5.000000

q/qsh data taken from xtbrestart
CAMM data taken from xtbrestart

          ...................................................
          :                      SETUP                      :
          :.................................................:
          :  # basis functions                  67          :
          :  # atomic orbitals                  67          :
          :  # shells                           39          :
          :  # electrons                        74          :
          :  max. iterations                   250          :
          :  Hamiltonian                  GFN2-xTB          :
          :  restarted?                       true          :
          :  GBSA solvation                  false          :
          :  PC potential                    false          :
          :  electronic temp.         5000.0000000     K    :
          :  accuracy                    1.0000000          :
          :  -> integral cutoff          0.2500000E+02      :
          :  -> integral neglect         0.1000000E-07      :
          :  -> SCF convergence          0.1000000E-05 Eh   :
          :  -> wf. convergence          0.1000000E-03 e    :
          :  Broyden damping             0.4000000          :
          ...................................................

 iter      E             dE          RMSdq      gap      omega  full diag
   1    -42.6268921 -0.426269E+02  0.251E-05    0.29       0.0  T
   2    -42.6268921  0.332108E-10  0.422E-05    0.29     474.1  T
   3    -42.6268921 -0.408278E-10  0.125E-05    0.29    1599.1  T

   *** convergence criteria satisfied after 3 iterations ***

         #    Occupation            Energy/Eh            Energy/eV
      -------------------------------------------------------------
         1        2.0000           -0.9211369             -25.0654
       ...           ...                  ...                  ...
        31        1.9996           -0.6230239             -16.9533
        32        1.9985           -0.6020233             -16.3819
        33        1.9975           -0.5938512             -16.1595
        34        1.9966           -0.5890021             -16.0276
        35        1.9874           -0.5681966             -15.4614
        36        1.9859           -0.5664395             -15.4136
        37        1.1330           -0.4922806             -13.3956 (HOMO)
        38        0.7990           -0.4815901             -13.1047 (LUMO)
        39        0.0919           -0.4400106             -11.9733
        40        0.0094           -0.4032054             -10.9718
        41        0.0018           -0.3774032             -10.2697
        42        0.0000           -0.2926915              -7.9645
       ...           ...                  ...                  ...
        67                          0.5539326              15.0733
      -------------------------------------------------------------
                  HL-Gap            0.0106905 Eh            0.2909 eV
             Fermi-level           -0.4880437 Eh          -13.2803 eV

 SCC (total)                   0 d,  0 h,  0 min,  0.026 sec
 SCC setup                      ...        0 min,  0.000 sec (  1.083%)
 Dispersion                     ...        0 min,  0.000 sec (  1.341%)
 classical contributions        ...        0 min,  0.000 sec (  0.344%)
 integral evaluation            ...        0 min,  0.006 sec ( 23.870%)
 iterations                     ...        0 min,  0.006 sec ( 21.993%)
 molecular gradient             ...        0 min,  0.013 sec ( 50.630%)
 printout                       ...        0 min,  0.000 sec (  0.685%)

         :::::::::::::::::::::::::::::::::::::::::::::::::::::
         ::                     SUMMARY                     ::
         :::::::::::::::::::::::::::::::::::::::::::::::::::::
         :: total energy             -42.103556096696 Eh    ::
         :: gradient norm              0.003558649833 Eh/a0 ::
         :: HOMO-LUMO gap              0.290903458829 eV    ::
         ::.................................................::
         :: SCC energy               -42.626892091629 Eh    ::
         :: -> isotropic ES            0.141308676279 Eh    ::
         :: -> anisotropic ES         -0.005527696171 Eh    ::
         :: -> anisotropic XC          0.013015482320 Eh    ::
         :: -> dispersion             -0.022713759880 Eh    ::
         :: repulsion energy           0.523241507872 Eh    ::
         :: add. restraining           0.000000000000 Eh    ::
         :: total charge               0.999999998908 e     ::
         :::::::::::::::::::::::::::::::::::::::::::::::::::::

      ----------------------------------------------------------- 
     |                   =====================                   |
     |                        A N C O P T                        |
     |                   =====================                   |
     |               Approximate Normal Coordinate               |
     |                Rational Function Optimizer                |
      ----------------------------------------------------------- 

          ...................................................
          :                      SETUP                      :
          :.................................................:
          :   optimization level             crude          :
          :   max. optcycles                   200          :
          :   ANC micro-cycles                  20          :
          :   degrees of freedom                69          :
          :.................................................:
          :   RF solver                   davidson          :
          :   write xtbopt.log                true          :
          :   linear?                        false          :
          :   energy convergence         0.5000000E-03 Eh   :
          :   grad. convergence          0.1000000E-01 Eh/α :
          :   maxmium RF displ.          1.0000000          :
          :   Hlow (freq-cutoff)         0.1000000E-01      :
          :   Hmax (freq-cutoff)         5.0000000          :
          :   S6 in model hess.         20.0000000          :
          ...................................................

generating ANC from model Hessian ...
Using Lindh-Hessian (1995)
 Shifting diagonal of input Hessian by    1.0115324162520851E-002
 Lowest  eigenvalues of input Hessian
    0.010000    0.010038    0.000000    0.000000    0.000000    0.000000
    0.000000    0.000000    0.011166    0.012923    0.014200    0.016272
    0.018646    0.020661    0.022964    0.024753    0.025384    0.028369
 Highest eigenvalues
    2.130050    2.147359    2.208146    2.293506    2.405152    2.547855


........................................................................
.............................. CYCLE    1 ..............................
........................................................................

 iter      E             dE          RMSdq      gap      omega  full diag
   1    -42.6268921 -0.426269E+02  0.839E-06    0.29       0.0  T
   2    -42.6268921  0.195399E-11  0.110E-05    0.29    1810.2  T
   3    -42.6268921 -0.298428E-11  0.543E-06    0.29    3685.1  T
     SCC iter.                  ...        0 min,  0.005 sec
     gradient                   ...        0 min,  0.013 sec
 * total energy  :   -42.1035561 Eh     change       -0.1335820E-11 Eh
   gradient norm :     0.0035587 Eh/α   predicted     0.0000000E+00 (-100.00%)
   displ. norm   :     0.1338907 α      lambda       -0.2257888E-03
   maximum displ.:     0.1190322 α      in ANC's #3, #1, #6, ...

   *** GEOMETRY OPTIMIZATION CONVERGED AFTER 1 ITERATIONS ***

------------------------------------------------------------------------
 total energy gain   :        -0.0000000 Eh       -0.0000 kcal/mol
 total RMSD          :         0.0000000 a0        0.0000 Å
 total power (kW/mol):        -0.0000000 (step)   -0.0000 (real)
------------------------------------------------------------------------

 ANCopt (total)                0 d,  0 h,  0 min,  0.040 sec
 optimizer setup                ...        0 min,  0.000 sec (  1.141%)
 model hessian                  ...        0 min,  0.011 sec ( 26.311%)
 ANC generation                 ...        0 min,  0.001 sec (  2.227%)
 coordinate transformation      ...        0 min,  0.000 sec (  0.027%)
 single point calculation       ...        0 min,  0.023 sec ( 58.184%)
 optimization log               ...        0 min,  0.005 sec ( 11.261%)
 hessian update                 ...        0 min,  0.000 sec (  0.004%)
 rational function              ...        0 min,  0.000 sec (  0.282%)

================
 final structure:
================
25
 xtb: 6.6.1 (8d0f1dd)
C            3.23083949960403        1.18707376729829        0.04540072922071
N            2.27577966808315        0.11211774318294       -0.02412329800343
C            2.54346025415440       -1.18760056966179       -0.07121920831993
N            1.39584878025658       -1.89568677253240       -0.12604825424758
C            0.35193406527063       -1.00433942336644       -0.10832561886811
C            0.91024821026009        0.26646271330802       -0.04354644614474
C            0.10274803907609        1.46741800588878       -0.02892467619438
O            0.52020483658459        2.60239594090232       -0.01556602378722
N           -1.26182562707844        1.15773237917862       -0.03500985545841
C           -2.19883813558812        2.27761009289578        0.00782953874731
C           -1.85875775530482       -0.07103237494791       -0.06847943285638
O           -3.04216398623712       -0.24203006955689       -0.04720395969150
N           -0.98227277828640       -1.23637454904784       -0.14618482333398
C           -1.56212276300628       -2.44072976913728       -0.24889834036296
H            3.71882770635733        1.19810354806680        1.02149464858559
H            3.99109380271823        1.06724142678933       -0.72558004837479
H            2.70686367584218        2.13187069679010       -0.09590669056744
H            3.52485737692400       -1.62118010818559       -0.06841969322635
H           -1.62216495875692        3.19875722967309        0.01427591858384
H           -2.85089413994358        2.24493832736570       -0.86369500923247
H           -2.81355046012904        2.20680825450484        0.90395629628249
H           -1.64252391066898       -4.89371893178361        1.48703228203991
H           -0.97246590135979       -3.33404628356614       -0.31651978130855
H           -2.63457962153423       -2.46991594244962       -0.25774466631487
H            1.32988563686244       -2.90363679000909       -0.15742196926671

 Bond Distances (Angstroems)
 ---------------------------
C1-N2=1.4396         C1-H15=1.0913        C1-H16=1.0894        C1-H17=1.0896        N2-C1=1.4396         N2-C3=1.3278         
N2-C6=1.3744         C3-N2=1.3278         C3-N4=1.3496         C3-H18=1.0729        N4-C3=1.3496         N4-C5=1.3728         
N4-H25=1.0106        C5-N4=1.3728         C5-C6=1.3896         C5-N13=1.3548        C6-N2=1.3744         C6-C5=1.3896         
C6-C7=1.4473         C7-C6=1.4473         C7-O8=1.2094         C7-N9=1.3993         O8-C7=1.2094         N9-C7=1.3993         
N9-C10=1.4608        N9-C11=1.3665        C10-N9=1.4608        C10-H19=1.0868       C10-H20=1.0889       C10-H21=1.0890       
C11-N9=1.3665        C11-O12=1.1959       C11-N13=1.4602       O12-C11=1.1959       N13-C5=1.3548        N13-C11=1.4602       
N13-C14=1.3406       C14-N13=1.3406       C14-H23=1.0725       C14-H24=1.0729       H15-C1=1.0913        H16-C1=1.0894        
H17-C1=1.0896        H18-C3=1.0729        H19-C10=1.0868       H20-C10=1.0889       H21-C10=1.0890       H23-C14=1.0725       
H24-C14=1.0729       H25-N4=1.0106        
 C  H  Rav=1.0837 sigma=0.0078  Rmin=1.0725  Rmax=1.0913     9
 C  C  Rav=1.4184 sigma=0.0289  Rmin=1.3896  Rmax=1.4473     2
 N  H  Rav=1.0106 sigma=0.0000  Rmin=1.0106  Rmax=1.0106     1
 N  C  Rav=1.3860 sigma=0.0453  Rmin=1.3278  Rmax=1.4608    11
 O  C  Rav=1.2026 sigma=0.0068  Rmin=1.1959  Rmax=1.2094     2

 selected bond angles (degree)
 --------------------
H15-C1-N2=110.33               H16-C1-N2=110.28               H16-C1-H15=108.79              H17-C1-N2=108.79               
H17-C1-H15=108.80              H17-C1-H16=109.83              C3-N2-C1=126.79                C6-N2-C1=125.17                
C6-N2-C3=108.04                N4-C3-N2=110.09                H18-C3-N2=125.44               H18-C3-N4=124.46               
C5-N4-C3=107.78                H25-N4-C3=125.45               H25-N4-C5=126.75               C6-C5-N4=106.79                
N13-C5-N4=129.59               N13-C5-C6=123.62               C5-C6-N2=107.29                C7-C6-N2=130.35                
C7-C6-C5=122.36                O8-C7-C6=125.89                N9-C7-C6=111.13                N9-C7-O8=122.98                
C10-N9-C7=117.11               C11-N9-C7=128.69               C11-N9-C10=114.20              H19-C10-N9=108.03              
H20-C10-N9=109.73              H20-C10-H19=110.36             H21-C10-N9=109.66              H21-C10-H19=110.47             
H21-C10-H20=108.58             

 selected dihedral angles (degree)
 ---------------------------------
C3-N2-C1-H15=289.98           C3-N2-C1-H16= 50.18           C3-N2-C1-H17=170.69           C6-N2-C1-H15=109.49           
C6-N2-C1-H16=229.69           C6-N2-C1-H17=350.20           N4-C3-N2-C1=179.80            N4-C3-N2-C6=  0.22            
H18-C3-N2-C1=359.69           H18-C3-N2-C6=180.12           C5-N4-C3-N2=359.79            C5-N4-C3-H18=179.89           
H25-N4-C3-N2=180.79           H25-N4-C3-H18=  0.89          C6-C5-N4-C3=  0.12            C6-C5-N4-H25=179.10           
N13-C5-N4-C3=179.99           N13-C5-N4-H25=358.98          C5-C6-N2-C1=180.27            C5-C6-N2-C3=359.86            
C7-C6-N2-C1=  1.37            C7-C6-N2-C3=180.95            N2-C6-C5-N4=  0.00            N2-C6-C5-N13=180.13           
C7-C6-C5-N4=179.03            C7-C6-C5-N13=359.14           O8-C7-C6-N2=  1.19            O8-C7-C6-C5=182.43            
N9-C7-C6-N2=181.06            N9-C7-C6-C5=  2.31            C10-N9-C7-C6=178.70           C10-N9-C7-O8=358.58           
C11-N9-C7-C6=359.12           C11-N9-C7-O8=178.99           H19-C10-N9-C7=  1.33          H19-C10-N9-C11=180.97         
H20-C10-N9-C7=121.69          H20-C10-N9-C11=301.34         H21-C10-N9-C7=240.88          H21-C10-N9-C11= 60.52         

 CMA Distance (Angstroems)
 ---------------------------
R(CMA):  5.4842
           -------------------------------------------------
          |                Final Singlepoint                |
           -------------------------------------------------

          ...................................................
          :                      SETUP                      :
          :.................................................:
          :  # basis functions                  67          :
          :  # atomic orbitals                  67          :
          :  # shells                           39          :
          :  # electrons                        74          :
          :  max. iterations                   250          :
          :  Hamiltonian                  GFN2-xTB          :
          :  restarted?                      false          :
          :  GBSA solvation                  false          :
          :  PC potential                    false          :
          :  electronic temp.         5000.0000000     K    :
          :  accuracy                    1.0000000          :
          :  -> integral cutoff          0.2500000E+02      :
          :  -> integral neglect         0.1000000E-07      :
          :  -> SCF convergence          0.1000000E-05 Eh   :
          :  -> wf. convergence          0.1000000E-03 e    :
          :  Broyden damping             0.4000000          :
          ...................................................

 iter      E             dE          RMSdq      gap      omega  full diag
   1    -42.6268921 -0.426269E+02  0.310E-06    0.29       0.0  T
   2    -42.6268921  0.120792E-12  0.367E-06    0.29    5454.7  T
   3    -42.6268921 -0.284217E-12  0.202E-06    0.29    9923.4  T

   *** convergence criteria satisfied after 3 iterations ***

         #    Occupation            Energy/Eh            Energy/eV
      -------------------------------------------------------------
         1        2.0000           -0.9211369             -25.0654
       ...           ...                  ...                  ...
        31        1.9996           -0.6230239             -16.9533
        32        1.9985           -0.6020232             -16.3819
        33        1.9975           -0.5938512             -16.1595
        34        1.9966           -0.5890021             -16.0276
        35        1.9874           -0.5681966             -15.4614
        36        1.9859           -0.5664395             -15.4136
        37        1.1330           -0.4922807             -13.3956 (HOMO)
        38        0.7990           -0.4815901             -13.1047 (LUMO)
        39        0.0919           -0.4400106             -11.9733
        40        0.0094           -0.4032053             -10.9718
        41        0.0018           -0.3774031             -10.2697
        42        0.0000           -0.2926915              -7.9645
       ...           ...                  ...                  ...
        67                          0.5539327              15.0733
      -------------------------------------------------------------
                  HL-Gap            0.0106906 Eh            0.2909 eV
             Fermi-level           -0.4880437 Eh          -13.2803 eV

 SCC (total)                   0 d,  0 h,  0 min,  0.025 sec
 SCC setup                      ...        0 min,  0.000 sec (  0.781%)
 Dispersion                     ...        0 min,  0.000 sec (  0.896%)
 classical contributions        ...        0 min,  0.000 sec (  0.392%)
 integral evaluation            ...        0 min,  0.006 sec ( 22.930%)
 iterations                     ...        0 min,  0.005 sec ( 22.303%)
 molecular gradient             ...        0 min,  0.013 sec ( 52.103%)
 printout                       ...        0 min,  0.000 sec (  0.537%)

         :::::::::::::::::::::::::::::::::::::::::::::::::::::
         ::                     SUMMARY                     ::
         :::::::::::::::::::::::::::::::::::::::::::::::::::::
         :: total energy             -42.103556096697 Eh    ::
         :: gradient norm              0.003558673107 Eh/a0 ::
         :: HOMO-LUMO gap              0.290904788778 eV    ::
         ::.................................................::
         :: SCC energy               -42.626892091631 Eh    ::
         :: -> isotropic ES            0.141308813765 Eh    ::
         :: -> anisotropic ES         -0.005527711086 Eh    ::
         :: -> anisotropic XC          0.013015488426 Eh    ::
         :: -> dispersion             -0.022713760617 Eh    ::
         :: repulsion energy           0.523241507872 Eh    ::
         :: add. restraining           0.000000000000 Eh    ::
         :: total charge               0.999999998908 e     ::
         :::::::::::::::::::::::::::::::::::::::::::::::::::::

           -------------------------------------------------
          |                Property Printout                |
           -------------------------------------------------

    * Orbital Energies and Occupations

         #    Occupation            Energy/Eh            Energy/eV
      -------------------------------------------------------------
         1        2.0000           -0.9211369             -25.0654
       ...           ...                  ...                  ...
        25        2.0000           -0.6724941             -18.2995
        26        2.0000           -0.6724080             -18.2972
        27        2.0000           -0.6632312             -18.0474
        28        1.9999           -0.6390874             -17.3905
        29        1.9998           -0.6352579             -17.2862
        30        1.9998           -0.6314656             -17.1831
        31        1.9996           -0.6230239             -16.9533
        32        1.9985           -0.6020232             -16.3819
        33        1.9975           -0.5938512             -16.1595
        34        1.9966           -0.5890021             -16.0276
        35        1.9874           -0.5681966             -15.4614
        36        1.9859           -0.5664395             -15.4136
        37        1.1330           -0.4922807             -13.3956 (HOMO)
        38        0.7990           -0.4815901             -13.1047 (LUMO)
        39        0.0919           -0.4400106             -11.9733
        40        0.0094           -0.4032053             -10.9718
        41        0.0018           -0.3774031             -10.2697
        42        0.0000           -0.2926915              -7.9645
        43                         -0.2173964              -5.9157
        44                         -0.2048733              -5.5749
        45                         -0.1546375              -4.2079
        46                         -0.1390898              -3.7848
        47                         -0.0716289              -1.9491
        48                         -0.0436253              -1.1871
       ...                                ...                  ...
        67                          0.5539327              15.0733
      -------------------------------------------------------------
                  HL-Gap            0.0106906 Eh            0.2909 eV
             Fermi-level           -0.4880437 Eh          -13.2803 eV

     #   Z          covCN         q      C6AA      α(0)
     1   6 C        3.691    -0.097    22.546     6.795
     2   7 N        2.831     0.087    19.736     6.598
     3   6 C        3.052     0.055    26.710     8.476
     4   7 N        2.789    -0.055    22.303     7.014
     5   6 C        3.039     0.094    25.886     8.345
     6   6 C        3.113    -0.015    28.237     8.705
     7   6 C        2.763     0.268    22.482     7.765
     8   8 O        0.858    -0.362    20.934     6.134
     9   7 N        2.744    -0.077    22.743     7.083
    10   6 C        3.714    -0.065    21.880     6.683
    11   6 C        2.734     0.311    21.711     7.629
    12   8 O        0.859    -0.334    20.396     6.055
    13   7 N        2.735     0.010    21.083     6.820
    14   6 C        2.798    -0.053    29.298     8.867
    15   1 H        0.924     0.112     1.682     2.028
    16   1 H        0.925     0.108     1.714     2.047
    17   1 H        0.925     0.140     1.463     1.891
    18   1 H        0.926     0.130     1.537     1.939
    19   1 H        0.925     0.117     1.637     2.001
    20   1 H        0.925     0.100     1.786     2.090
    21   1 H        0.925     0.100     1.784     2.089
    22   1 H        0.000    -0.036     9.406     5.608
    23   1 H        0.926     0.095     1.835     2.118
    24   1 H        0.926     0.137     1.480     1.903
    25   1 H        0.860     0.232     0.958     1.533

 Mol. C6AA /au·bohr⁶  :       6857.583425
 Mol. C8AA /au·bohr⁸  :     156213.645367
 Mol. α(0) /au        :        128.215959


Wiberg/Mayer (AO) data.
largest (>0.10) Wiberg bond orders for each atom

 ---------------------------------------------------------------------------
     #   Z sym  total        # sym  WBO       # sym  WBO       # sym  WBO
 ---------------------------------------------------------------------------
     1   6 C    3.911 --     2 N    0.984    16 H    0.962    17 H    0.959
                            15 H    0.954
     2   7 N    3.676 --     3 C    1.388     6 C    1.166     1 C    0.984
     3   6 C    3.847 --     2 N    1.388     4 N    1.290    18 H    0.951
     4   7 N    3.558 --     3 C    1.290     5 C    1.168    25 H    0.917
     5   6 C    3.888 --     6 C    1.342     4 N    1.168    13 N    1.162
     6   6 C    3.859 --     5 C    1.342     2 N    1.166     7 C    1.072
     7   6 C    3.917 --     8 O    1.678     9 N    1.082     6 C    1.072
     8   8 O    1.992 --     7 C    1.678     9 N    0.138
     9   7 N    3.569 --    11 C    1.171     7 C    1.082    10 C    0.962
                            12 O    0.151     8 O    0.138
    10   6 C    3.909 --    19 H    0.967    20 H    0.966    21 H    0.965
                             9 N    0.962
    11   6 C    3.925 --    12 O    1.732     9 N    1.171    13 N    0.929
    12   8 O    2.061 --    11 C    1.732     9 N    0.151
    13   7 N    3.624 --    14 C    1.308     5 C    1.162    11 C    0.929
    14   6 C    3.356 --    13 N    1.308    23 H    0.965    24 H    0.957
    15   1 H    0.984 --     1 C    0.954
    16   1 H    0.985 --     1 C    0.962
    17   1 H    0.980 --     1 C    0.959
    18   1 H    0.982 --     3 C    0.951
    19   1 H    0.985 --    10 C    0.967
    20   1 H    0.986 --    10 C    0.966
    21   1 H    0.986 --    10 C    0.965
    22   1 H    0.027
    23   1 H    0.990 --    14 C    0.965
    24   1 H    0.980 --    14 C    0.957
    25   1 H    0.946 --     4 N    0.917
 ---------------------------------------------------------------------------

Topologies differ in total number of bonds
Writing topology from bond orders to xtbtopo.mol

molecular dipole:
                 x           y           z       tot (Debye)
 q only:        2.637      -1.453      -0.271
   full:        2.899      -2.047      -0.273       9.047
molecular quadrupole (traceless):
                xx          xy          yy          xz          yz          zz
 q only:       15.151      -8.814       1.397       0.780       3.093     -16.548
  q+dip:       12.914     -11.668       1.472       0.684       3.060     -14.386
   full:       11.783     -11.552       0.441       0.685       2.964     -12.224

           -------------------------------------------------
          |                Geometry Summary                 |
           -------------------------------------------------

      molecular mass/u    :      195.1988581
   center of mass at/Å    :        0.0033436       0.0738974      -0.0558210
  moments of inertia/u·Å² :        0.4922459E+03   0.7191343E+03   0.1198667E+04
rotational constants/cm⁻¹ :        0.3424636E-01   0.2344156E-01   0.1406364E-01

 * 23 selected distances

     #   Z          #   Z                                           value/Å
     1   6 C        2   7 N                                       1.4396193
     2   7 N        3   6 C                                       1.3278324
     3   6 C        4   7 N                                       1.3495943
     4   7 N        5   6 C                                       1.3727973
     2   7 N        6   6 C                                       1.3743639
     5   6 C        6   6 C                                       1.3895501
     7   6 C        8   8 O                                       1.2093899
     7   6 C        9   7 N                                       1.3992869
     9   7 N       10   6 C                                       1.4608060 (max)
     9   7 N       11   6 C                                       1.3664960
    11   6 C       12   8 O                                       1.1958860
     5   6 C       13   7 N                                       1.3547627
    13   7 N       14   6 C                                       1.3406147
     1   6 C       15   1 H                                       1.0913357
     1   6 C       16   1 H                                       1.0893842
     1   6 C       17   1 H                                       1.0895687
     3   6 C       18   1 H                                       1.0729117
    10   6 C       19   1 H                                       1.0867869
    10   6 C       20   1 H                                       1.0889443
    10   6 C       21   1 H                                       1.0890030
    14   6 C       23   1 H                                       1.0725122
    14   6 C       24   1 H                                       1.0728905
     4   7 N       25   1 H                                       1.0105933 (min)

 * 5 distinct bonds (by element types)

   Z      Z             #   av. dist./Å        max./Å        min./Å
   1 H    6 C           9     1.0837041     1.0913357     1.0725122
   6 C    6 C           1     1.3895501     1.3895501     1.3895501
   1 H    7 N           1     1.0105933     1.0105933     1.0105933
   6 C    7 N          10     1.3786174     1.4608060     1.3278324
   6 C    8 O           2     1.2026379     1.2093899     1.1958860


optimized geometry written to: xtbopt.xyz


           -------------------------------------------------
          | TOTAL ENERGY              -42.103556096697 Eh   |
          | GRADIENT NORM               0.003558673107 Eh/α |
          | HOMO-LUMO GAP               0.290904788778 eV   |
           -------------------------------------------------

------------------------------------------------------------------------
 * finished run on 2024/06/05 at 19:58:06.815     
------------------------------------------------------------------------
 total:
 * wall-time:     0 d,  0 h,  0 min,  0.126 sec
 *  cpu-time:     0 d,  0 h,  0 min,  0.100 sec
 * ratio c/w:     0.792 speedup
 SCF:
 * wall-time:     0 d,  0 h,  0 min,  0.026 sec
 *  cpu-time:     0 d,  0 h,  0 min,  0.026 sec
 * ratio c/w:     0.988 speedup
 ANC optimizer:
 * wall-time:     0 d,  0 h,  0 min,  0.070 sec
 *  cpu-time:     0 d,  0 h,  0 min,  0.061 sec
 * ratio c/w:     0.881 speedup

