25
 energy: -43.834250576553 gnorm: 0.113981880213 xtb: 6.6.1 (8d0f1dd)
C            3.25256359629698        1.16804290610446        0.07224283675162
N            2.30407914817732        0.08318333970449        0.03545684607864
C            2.58606284685952       -1.22253617162089        0.03701026139254
N            1.43047610562734       -1.93555190825758        0.00816699389321
C            0.38894140168225       -1.05627967671358       -0.00322371576977
C            0.93124731616077        0.21968516368340        0.02081969013453
C            0.09172391680625        1.40146005551726       -0.00084162236178
O            0.48959499302270        2.55153411781603        0.00051758061185
N           -1.25777753426683        1.05841999375962       -0.03006489464930
C           -2.22724150506838        2.15005845494457       -0.04957426523480
C           -1.82256480920636       -0.20115589426174       -0.04784946097404
O           -3.00888449436767       -0.38100862298804       -0.07316729395007
N           -0.93052034908193       -1.30201773031047       -0.03650219901670
C           -1.47405747257692       -2.64603192471960       -0.06229936937763
H            3.74998408581870        1.19772764953864        1.03414286286948
H            4.04466382840010        1.05982455613993       -0.67613630478217
H            2.71239474753990        2.10035194158519       -0.06506039304862
H            3.56574470479076       -1.65053487547268        0.06053803517488
H           -1.67833937156966        3.08529979391588       -0.02613443463653
H           -2.83531996148291        2.08992654164660       -0.95251697341525
H           -2.88513257636731        2.07505200921030        0.81558878855136
H           -1.17757222428008       -3.19765892247474        0.82957533019215
H           -1.14824445966679       -3.17460830097408       -0.95965412641611
H           -2.56092361286955       -2.55653909777032       -0.08018709046588
H            1.36897893916200       -2.94263728742684       -0.00410042131692
25
 energy: -43.838743257133 gnorm: 0.040785953566 xtb: 6.6.1 (8d0f1dd)
C            3.25554681601109        1.17604955971529        0.08166820700399
N            2.31242877951716        0.09903813003902        0.03414155192029
C            2.60123802341134       -1.23631816518885        0.03475607890256
N            1.42262855796092       -1.93805385569831        0.00726397384402
C            0.39584544978328       -1.05261476571032       -0.00458483675558
C            0.92986976258179        0.22749300995416        0.01619851882444
C            0.09995137072988        1.39419690409959       -0.00355778204561
O            0.48961312271164        2.56444937576634       -0.00062162507598
N           -1.26516066527900        1.04864306005289       -0.03072814296313
C           -2.22676040427545        2.14328982274981       -0.04931177275002
C           -1.82617342200494       -0.20129138208674       -0.04834190658030
O           -3.02294977338533       -0.38553326518470       -0.07338638475611
N           -0.93601381476700       -1.29941924239108       -0.03657501095056
C           -1.47390886319218       -2.64144084556458       -0.06220503057320
H            3.75465831388811        1.20499203345336        1.05269178936104
H            4.02384586816283        1.05707860504298       -0.68813484076250
H            2.70882252523026        2.10392092019665       -0.06802716165468
H            3.57539260094413       -1.66827066757498        0.05975763385601
H           -1.66489154642756        3.07356715367770       -0.02620821263706
H           -2.83419663785734        2.08857256923829       -0.95287478574581
H           -2.88427422099797        2.07376188254508        0.81705268237969
H           -1.17368644098007       -3.19468936479214        0.82950423493172
H           -1.14441859577102       -3.17181666487099       -0.95825646825022
H           -2.55966218566230       -2.55020649598785       -0.07961743401404
H            1.35213263920795       -2.94139220090483       -0.00385661527426
25
 energy: -43.839424467339 gnorm: 0.016105992666 xtb: 6.6.1 (8d0f1dd)
C            3.26002269746276        1.17238739323740        0.07387274029146
N            2.31001907278241        0.10874051453714        0.02485666089423
C            2.60492504294922       -1.23809582337890        0.03488957579552
N            1.42028613469850       -1.93847268874937        0.01007548202178
C            0.39889387093571       -1.05580649293465       -0.00210645686807
C            0.92235437461594        0.22966134894710        0.01601338160775
C            0.10611783905147        1.38720375796454        0.00165010245924
O            0.48979150097324        2.56457850998057        0.00354894220168
N           -1.27112049914073        1.04911542681759       -0.02762900922877
C           -2.23053339251104        2.14729224812473       -0.04943367609086
C           -1.82038529392625       -0.19786438957306       -0.04642427777168
O           -3.01980986712857       -0.38474918422939       -0.07396049190217
N           -0.93969720516321       -1.30103081190297       -0.03438063831341
C           -1.47607508832971       -2.64343777238226       -0.06312424400735
H            3.75205936314251        1.19386324060777        1.04798515299400
H            4.04335390228597        1.05432815072720       -0.67976925745388
H            2.71999015092863        2.10423896343179       -0.07373905099663
H            3.57713858604623       -1.65682698449901        0.06225140676305
H           -1.68212809163526        3.08741415603982       -0.02579511535247
H           -2.83761446327979        2.09106809596829       -0.95279193504968
H           -2.89069194398833        2.07679997302733        0.81442924870997
H           -1.17870936263400       -3.20185698367262        0.82775368797929
H           -1.14821015758540       -3.17649104588889       -0.95916481804993
H           -2.56158843753403       -2.55695931631750       -0.08115269782111
H            1.36148852652391       -2.94109417530685       -0.00110805257726
25
 energy: -43.839531917104 gnorm: 0.012402858259 xtb: 6.6.1 (8d0f1dd)
C            3.25053145636819        1.17262277856308        0.07785613431337
N            2.30579238745199        0.10608249133867        0.03050017122057
C            2.60126370365894       -1.24137757601934        0.03707925480034
N            1.41721339572361       -1.93997749599026        0.00832021069561
C            0.39830196168383       -1.05910110285936       -0.00245466726249
C            0.91881183166861        0.22702949227961        0.01870237666594
C            0.10993284747847        1.38350191814126       -0.00346186219076
O            0.48870090159594        2.56044722322308       -0.00364967281950
N           -1.27077977698561        1.04804465468598       -0.03204791427524
C           -2.22395181074299        2.14736344814825       -0.04999352682482
C           -1.81728115677965       -0.19731961932061       -0.04918800852410
O           -3.01623343127628       -0.38511397148008       -0.07433314128944
N           -0.94042555937069       -1.30109821086399       -0.03634537976829
C           -1.47497639374673       -2.64199795440764       -0.06179617480073
H            3.75249889779328        1.20152646776222        1.04566635017330
H            4.02771572792259        1.06514773809788       -0.68345641432880
H            2.70214701563853        2.10138805521317       -0.05994283213301
H            3.57317353349232       -1.65693439209013        0.06034779762508
H           -1.66377153694765        3.08014720447061       -0.02723964734310
H           -2.83278389485196        2.09294056700373       -0.95237479013370
H           -2.87898766725673        2.07756733383278        0.81792704982402
H           -1.17458964431224       -3.19513959691326        0.83144156405555
H           -1.14596990921778       -3.17464021724632       -0.95771987978496
H           -2.56042584508853       -2.55390011746030       -0.07856655882158
H            1.36397022564071       -2.94320300753323       -0.00852377883856
25
 energy: -43.839645836603 gnorm: 0.006050315420 xtb: 6.6.1 (8d0f1dd)
C            3.25681987986280        1.16956848520502        0.07764193278297
N            2.30858978185242        0.10416896811419        0.03222845567380
C            2.59969179732901       -1.24125430374939        0.03840257038943
N            1.41617034453472       -1.93668329009876        0.01002250210220
C            0.39807764273011       -1.05542194071643       -0.00305049590342
C            0.92142554111769        0.23024657818611        0.01895492371170
C            0.10887139637123        1.38832238438271       -0.00169919679396
O            0.48389094282107        2.56423306036264        0.00113189226820
N           -1.27223958988585        1.04995748565420       -0.03024472751261
C           -2.23009352718811        2.14368054745672       -0.04920780827550
C           -1.81875573747304       -0.19657607854996       -0.04812879389589
O           -3.01697843057922       -0.38625078216972       -0.07287343490518
N           -0.93931894196010       -1.29780406060613       -0.03681249547523
C           -1.47335850633810       -2.63895495769880       -0.06368763517611
H            3.75737015297067        1.20387287226708        1.04667532877007
H            4.03207317258650        1.05206366263667       -0.68472998413197
H            2.71561372871297        2.10144951194581       -0.07028425125146
H            3.57208320568904       -1.66130961699790        0.06028899110602
H           -1.67058213229221        3.07576124089504       -0.02509879003419
H           -2.83633352963237        2.08667146492348       -0.95332647060709
H           -2.88792166510122        2.07134821679922        0.81664904236507
H           -1.17303669867100       -3.19342848901677        0.82834977326335
H           -1.14390629102530       -3.16926654126491       -0.96049921058701
H           -2.55903701819586       -2.54992211123242       -0.08077630010687
H            1.36076174130433       -2.94046619615188       -0.00317915754163
25
 energy: -43.839685879480 gnorm: 0.005061913347 xtb: 6.6.1 (8d0f1dd)
C            3.25630540623702        1.17193824876800        0.07865154509193
N            2.31043984468985        0.10389518657277        0.02737168260076
C            2.60198323493572       -1.24045920748972        0.03374109166079
N            1.41876708633892       -1.93687741154710        0.00700709624917
C            0.39843971532250       -1.05702424630948       -0.00508274563674
C            0.92277878418552        0.22915197136264        0.01519556953867
C            0.11025375162965        1.38833282859587       -0.00163132793444
O            0.48642996740071        2.56363115624060        0.00130730573247
N           -1.27183105476120        1.05013041546362       -0.02959247800129
C           -2.22839369075377        2.14662753745131       -0.04976685202461
C           -1.81977034233420       -0.19750130829363       -0.04708138951601
O           -3.01844887801803       -0.38619725806754       -0.07259688439403
N           -0.93968401918331       -1.30005257936634       -0.03590470482114
C           -1.47539914493706       -2.64259925821867       -0.06140908966371
H            3.75050601617382        1.19963969610234        1.05157295449899
H            4.03543778291068        1.05897450848992       -0.68070282459713
H            2.71441214420821        2.10405292325238       -0.06865318422186
H            3.57604706054271       -1.65995107341325        0.05807866440062
H           -1.67200974111112        3.08078384670957       -0.02689618564107
H           -2.83571702011649        2.09149744306746       -0.95313433662374
H           -2.88736676515249        2.07800781715361        0.81534404397036
H           -1.17747857701707       -3.19930940450686        0.82998390538150
H           -1.14790007173119       -3.17630351501579       -0.95687654941177
H           -2.56136336171224       -2.55538359653937       -0.07892985751502
H            1.36343913179304       -2.94099860988656       -0.00324878888797
25
 energy: -43.839708770388 gnorm: 0.002906828728 xtb: 6.6.1 (8d0f1dd)
C            3.25497731526852        1.17166795235211        0.07561702848263
N            2.30937976653296        0.10404626410530        0.02958899634084
C            2.60114991970579       -1.24091979869434        0.03847998717766
N            1.41783787354831       -1.93743519292047        0.01043842648074
C            0.39806824502076       -1.05768296833542       -0.00186653562644
C            0.92148584271890        0.22883367203956        0.01859484445704
C            0.11137910380430        1.38732714721800       -0.00078883946371
O            0.48721640857014        2.56301279209288        0.00023207930819
N           -1.27186464651866        1.04968892654532       -0.02981680610267
C           -2.22742225301918        2.14656756398165       -0.04907180676680
C           -1.81934913524346       -0.19719364755938       -0.04794193486960
O           -3.01812784486347       -0.38558780029293       -0.07530629015589
N           -0.94017688426106       -1.29998500121742       -0.03546865606192
C           -1.47486514042173       -2.64209052959215       -0.06361631383094
H            3.75452321223915        1.19986386197326        1.04529470973977
H            4.03177327051057        1.05901198159459       -0.68621926746425
H            2.71054760898194        2.10270385917481       -0.06824047325579
H            3.57495917041310       -1.65873104969207        0.06353791060935
H           -1.67202660440176        3.08162998777255       -0.02554454724889
H           -2.83545025397089        2.09147420202690       -0.95200580534943
H           -2.88491175872736        2.07590779311066        0.81694365215459
H           -1.17630224393232       -3.19820996144063        0.82801976950664
H           -1.14545317016307       -3.17358030526007       -0.95987493886767
H           -2.56070938158176       -2.55473851208354       -0.08187722384934
H            1.36323883933046       -2.94157512632338       -0.00236130510942
25
 energy: -43.839708243641 gnorm: 0.003209746785 xtb: 6.6.1 (8d0f1dd)
C            3.25555603349703        1.17063919549486        0.07845687881228
N            2.30883523439256        0.10427044396244        0.03028010025116
C            2.60000714893628       -1.24100822764653        0.03645379925579
N            1.41684997000831       -1.93700253637143        0.00748283173651
C            0.39790657666511       -1.05709142593306       -0.00328007448086
C            0.92074234872164        0.22960824989330        0.01807841326225
C            0.11124936449947        1.38740133985030       -0.00209893914143
O            0.48532538354591        2.56354573235526       -0.00093779668461
N           -1.27252366637251        1.04922398511196       -0.03074228837012
C           -2.22821656405712        2.14493506966028       -0.05013040080407
C           -1.81907264075882       -0.19708555568506       -0.04802625404734
O           -3.01762974711017       -0.38611270685468       -0.07293489524894
N           -0.94005135340119       -1.29908901247447       -0.03604690191846
C           -1.47423254730294       -2.64052660723475       -0.06184054773043
H            3.75435880492549        1.20021638117122        1.04826328983062
H            4.03399326955745        1.05658013510232       -0.68124688224140
H            2.71238178828098        2.10198160029312       -0.06620920154276
H            3.57329401281443       -1.65866404590188        0.05871148124936
H           -1.67109706958344        3.07896465602204       -0.02673636322110
H           -2.83562344004720        2.08864751469166       -0.95353769813010
H           -2.88553933757030        2.07369732956709        0.81611613873809
H           -1.17329187169173       -3.19402568158563        0.83064637475421
H           -1.14582463648849       -3.17217495091360       -0.95838316760847
H           -2.55992918756301       -2.55179665771910       -0.07799384914050
H            1.36240938564244       -2.94112811427985       -0.00759738734499
25
 energy: -43.839726006026 gnorm: 0.001274713224 xtb: 6.6.1 (8d0f1dd)
C            3.25545226381346        1.17146366140052        0.07743837136251
N            2.30950637695990        0.10388897330845        0.02920164565896
C            2.60061592389350       -1.24086983565035        0.03632556338359
N            1.41772756370519       -1.93702351015269        0.00912943710841
C            0.39809966494869       -1.05739295277098       -0.00364296858761
C            0.92139680272845        0.22932085186188        0.01714473677496
C            0.11124583688661        1.38767185795372       -0.00153884988897
O            0.48544855922294        2.56349367744723        0.00103188567348
N           -1.27239492773133        1.04935409473514       -0.02996513808559
C           -2.22787921128518        2.14568191859008       -0.04930191454441
C           -1.81924617221219       -0.19741040399721       -0.04789884054258
O           -3.01773779533610       -0.38634137209109       -0.07298051128014
N           -0.93984020791322       -1.29968488704222       -0.03627119459782
C           -1.47479527809806       -2.64159294118369       -0.06280894909364
H            3.75276573120360        1.20207651968493        1.04824812942340
H            4.03374236097631        1.05743116752087       -0.68249226083667
H            2.71257334480963        2.10274316676764       -0.06922372146537
H            3.57427891845660       -1.65920499317329        0.05934809514822
H           -1.66982373051476        3.07903334717337       -0.02584839742831
H           -2.83514788709009        2.09071787745929       -0.95286869528635
H           -2.88620650666818        2.07614578042754        0.81637521385794
H           -1.17615461075047       -3.19706125493333        0.82914755394979
H           -1.14618879955770       -3.17382573478729       -0.95882417130856
H           -2.56056136018559       -2.55338114056800       -0.08053358714149
H            1.36300039927819       -2.94122775740474       -0.00244477201908
25
 energy: -43.839711132373 gnorm: 0.002537448469 xtb: 6.6.1 (8d0f1dd)
C            3.25603492386151        1.17115119500521        0.07740805157439
N            2.31017115314453        0.10353834207655        0.02945144741087
C            2.60105818124145       -1.24101063276726        0.03704608050237
N            1.41809716781417       -1.93697037401956        0.00808372362161
C            0.39815603612950       -1.05722717445428       -0.00303787031936
C            0.92191456219379        0.22942753472032        0.01781314661335
C            0.11197032803371        1.38829638410787       -0.00138425715859
O            0.48704841812525        2.56382431183473       -0.00033164449751
N           -1.27214070836048        1.05029941206632       -0.03010436587024
C           -2.22867369002310        2.14630014904353       -0.04987937868138
C           -1.81939363885071       -0.19669508003701       -0.04754824086972
O           -3.01800098173264       -0.38525835479399       -0.07471497139427
N           -0.93988212984232       -1.29941150979236       -0.03543396507410
C           -1.47463652825685       -2.64180993528234       -0.06219568205732
H            3.75563476260291        1.19739994433555        1.04727083667619
H            4.03189339638690        1.05914038973636       -0.68555477079660
H            2.71263164395678        2.10287543148602       -0.06505643199174
H            3.57496394661245       -1.65967788122597        0.06241303217391
H           -1.67443048680846        3.08196058108150       -0.02700313824193
H           -2.83693097389560        2.09017087870814       -0.95266107987497
H           -2.88641913091240        2.07568374629940        0.81603097445308
H           -1.17535669083963       -3.19797772159481        0.82912902728752
H           -1.14607975270641       -3.17381472416019       -0.95834680200673
H           -2.56056988097289       -2.55506141206378       -0.07938480746149
H            1.36281733263874       -2.94114738973417       -0.00526225378264
25
 energy: -43.835746462709 gnorm: 0.086037112502 xtb: 6.6.1 (8d0f1dd)
C            3.26800718673757        1.16945519805290        0.06024999703142
N            2.30939177255416        0.09086873342332        0.03089057513286
C            2.59006549313957       -1.22974560902105        0.04465844002075
N            1.42305528927812       -1.93657996487867        0.01549182751476
C            0.38762133346565       -1.05348827813413        0.00130562930269
C            0.92815346674885        0.22624139130263        0.02272273288208
C            0.08885643838343        1.39786371042474        0.00228197659912
O            0.48146784908680        2.55958276474326        0.00461449170791
N           -1.26483454073998        1.05422292582805       -0.02928414224681
C           -2.23548121606785        2.14504120350892       -0.04911374519077
C           -1.82770310357105       -0.20220578218620       -0.04883018980742
O           -3.01765583037861       -0.38367160520896       -0.07641740555777
N           -0.93483771342444       -1.30191631325813       -0.03615434406406
C           -1.47821927365092       -2.64558895600662       -0.06437312485088
H            3.78773482775198        1.17963720395372        1.00479021891032
H            4.08110790498227        1.08556688400681       -0.67899087632511
H            2.72691242050588        2.10270949675549       -0.03960580670522
H            3.56452193008520       -1.66202931343873        0.07947623290069
H           -1.68603358301284        3.07815113270110       -0.02680571986447
H           -2.84627337689235        2.08543633022731       -0.95174014356519
H           -2.89380696867400        2.07258857488454        0.81667013018776
H           -1.18453056220009       -3.19944454739445        0.82672866902121
H           -1.15062582531615       -3.17396437074158       -0.96252061435319
H           -2.56608485584758       -2.55645234077424       -0.08593504368401
H            1.35715927598036       -2.94197873190780        0.00603464049099
25
 energy: -43.838551918825 gnorm: 0.034791751823 xtb: 6.6.1 (8d0f1dd)
C            3.26706133206518        1.17422856519878        0.07747536664028
N            2.31665161536926        0.10255213398215        0.03076882065862
C            2.60214813448472       -1.23933200857725        0.04002831172300
N            1.41832528019850       -1.93606453461871        0.01388334871359
C            0.39548611919366       -1.04928923819112       -0.00131832942788
C            0.92968313192979        0.23239765925781        0.01568384489190
C            0.09813293900512        1.39261135639531       -0.00215380324115
O            0.48114958319876        2.56673841892799        0.00361807482131
N           -1.26985286578589        1.04685905763066       -0.03041002653589
C           -2.23295151441502        2.14002388130710       -0.04875315048904
C           -1.82845163240666       -0.20191587502717       -0.04948673023764
O           -3.02540614550145       -0.38815049516220       -0.07647489695644
N           -0.93760960177179       -1.29818721875923       -0.03628372468989
C           -1.47583613303167       -2.64011149455269       -0.06432054523615
H            3.78642955345529        1.18564389162947        1.03756442705504
H            4.03451640264606        1.07091401751013       -0.70111814132612
H            2.72134863975056        2.10536335905254       -0.04735757289861
H            3.57304775743987       -1.67524990353325        0.07719251459472
H           -1.67164534643665        3.07000275695071       -0.02709708599103
H           -2.84233122848993        2.08364185607364       -0.95143332238631
H           -2.89029143267120        2.07069688426288        0.81811025357619
H           -1.17912387913209       -3.19545436110208        0.82706872992225
H           -1.14547534329828       -3.17027060116436       -0.96063235511638
H           -2.56194805762693       -2.54831336818109       -0.08479780085448
H            1.34491103075477       -2.93903500244779        0.00638819827778
25
 energy: -43.839194170860 gnorm: 0.015101699306 xtb: 6.6.1 (8d0f1dd)
C            3.27866382641732        1.17186079044907        0.06743863020280
N            2.31879242116539        0.11061448879018        0.01724235301033
C            2.60479251790752       -1.24120742048210        0.03873237231393
N            1.41519058071919       -1.93537987641684        0.01744227075752
C            0.39747092004195       -1.05027008857162        0.00125990337735
C            0.92635474830088        0.23504424237072        0.01390899344802
C            0.10224304327902        1.38865080183910        0.00327094313962
O            0.47796501511719        2.56811398697155        0.00701630314048
N           -1.27688410790584        1.04599891480251       -0.02661224707576
C           -2.23955065621246        2.14038493327425       -0.04879461014185
C           -1.82719615614463       -0.20026622893924       -0.04695565884702
O           -3.02663254158710       -0.38882284736273       -0.07691338552497
N           -0.94237604656104       -1.29899630041431       -0.03325870595099
C           -1.47989061952831       -2.64155806253098       -0.06549287932946
H            3.79074982318598        1.17610084236957        1.03194650593984
H            4.06504636207559        1.07856463075047       -0.68892878248145
H            2.73907836881425        2.10827589325489       -0.05221519707166
H            3.57369251747504       -1.67099041450354        0.08173659332661
H           -1.68694171023042        3.07738145411275       -0.02647000003933
H           -2.84811925985454        2.08372305309194       -0.95153705026585
H           -2.89964173392247        2.07164167215037        0.81570402318784
H           -1.18595385493950       -3.20224632349152        0.82494012580216
H           -1.15050098369947       -3.17371966917310       -0.96149281766795
H           -2.56580378544383       -2.55439193116368       -0.08680130410581
H            1.34741965045428       -2.93820680431550        0.01097802634327
25
 energy: -43.839286315702 gnorm: 0.011531085090 xtb: 6.6.1 (8d0f1dd)
C            3.26605273128255        1.17218598948932        0.06613395154679
N            2.31252687588532        0.10758479148034        0.02263080142529
C            2.60107893087247       -1.24395237041593        0.04287872961304
N            1.41360701522301       -1.93896956932921        0.01699583924982
C            0.39646331663931       -1.05605963509462        0.00312318520496
C            0.92111719969536        0.23045776494079        0.02007004480014
C            0.10695270373710        1.38492737418544        0.00143094960941
O            0.48069621458071        2.56331909062885        0.00265325386904
N           -1.27588137792279        1.04609878075795       -0.03020181265279
C           -2.23160142420731        2.14407128282754       -0.04981357684600
C           -1.82337008560972       -0.19925817640906       -0.04992484907105
O           -3.02257533014201       -0.38704342963289       -0.07878134432023
N           -0.94367517805747       -1.30096231309771       -0.03464309814209
C           -1.47864380577819       -2.64300853644101       -0.06447676094723
H            3.78651466186127        1.18301850114938        1.02245974359020
H            4.05483314118258        1.08959251104568       -0.68905821945677
H            2.71550928270297        2.10418931513854       -0.03911356563892
H            3.57083732839028       -1.66714115966184        0.08049992755644
H           -1.67257247818305        3.07714104437855       -0.02792372479401
H           -2.84205135895877        2.09030207882073       -0.95147267080965
H           -2.88731241380602        2.07696974374643        0.81800010967216
H           -1.18165285310632       -3.19885053860632        0.82827487982440
H           -1.14784925706390       -3.17532255799978       -0.96013593719220
H           -2.56461578160568       -2.55638936157552       -0.08458492013162
H            1.35358028131228       -2.94260088346345        0.00112346952855
25
 energy: -43.839435027872 gnorm: 0.005809342324 xtb: 6.6.1 (8d0f1dd)
C            3.27008903102327        1.16814422717990        0.06861677895294
N            2.31324985002784        0.10664924682974        0.02699691381261
C            2.59951502583637       -1.24257015904853        0.04439872970627
N            1.41345381302018       -1.93563246571891        0.01790797685952
C            0.39672492375909       -1.05261432552586        0.00140114976998
C            0.92210554871691        0.23389973472615        0.02012918436919
C            0.10618471084605        1.38947813569359       -0.00020875225366
O            0.47681949866518        2.56718096063981        0.00377159174217
N           -1.27658047635511        1.04817144073112       -0.03023316998331
C           -2.23728454985353        2.14021932204311       -0.04889373096135
C           -1.82286286287462       -0.19818550965149       -0.04951346973505
O           -3.02117183396795       -0.38806913787489       -0.07583177416024
N           -0.94151911089270       -1.29761454574856       -0.03628854378010
C           -1.47650714451288       -2.63903984350813       -0.06601823399640
H            3.79049889929222        1.18251788869447        1.02494595745806
H            4.05424823936349        1.07019051691708       -0.69113896093005
H            2.72777276856990        2.10365441231830       -0.04579375055484
H            3.56982920460599       -1.66753117544667        0.07878670961283
H           -1.68087071416955        3.07373137066850       -0.02632090305354
H           -2.84639073239234        2.08219786296521       -0.95141425209191