25
 energy: -42.572799943050 xtb: 6.6.1 (8d0f1dd)
C            3.43869201426449        1.15267994304694       -0.01646144260050
N            2.35918794246876        0.15239887998225       -0.06521811597591
C            2.59190409546889       -1.22048280386195        0.02365160080427
N            1.38921185702044       -1.89047191756314        0.10350147745999
C            0.38287718699195       -1.00555054420172        0.02445940319110
C            0.92845020659263        0.28450573030408       -0.03110852574009
C            0.06043484849481        1.40579525793328        0.00403191697502
O            0.36568275671243        2.59512956117358        0.05035558349242
N           -1.33731960205466        1.03183774579691       -0.02376677765845
C           -2.32237950789880        2.10505150707755       -0.04478894649776
C           -1.86970826298818       -0.21704647030596       -0.07195620750855
O           -3.06347379620992       -0.43112888933181       -0.14405331462929
N           -0.95972949909912       -1.28579337247661       -0.02076564912902
C           -1.49521923347948       -2.63271734667888       -0.08875182182158
H            4.12328616301570        0.86766765822415        0.78224983082289
H            4.24109453933751        1.33242838900419       -0.82817692873946
H            2.93779634522767        2.09601053301356        0.20155924691678
H            3.52115763083570       -1.65706425241756        0.31256856300395
H           -1.78397849678837        3.04896823532021       -0.04266847470624
H           -2.94668341051316        2.02398759508954       -0.93624845890472
H           -2.97156913696233        2.03799795635236        0.82957123868005
H           -1.24785314436073       -3.20866978720208        0.80481756193706
H           -1.14071085558225       -3.16008136600004       -0.97725421503250
H           -2.58204664824556       -2.54095968814165       -0.15157668312732
H            1.30265024771326       -2.89318324975098        0.14007521777965
