25
 energy: -42.159835987681 gnorm: 0.007951786851 xtb: 6.6.1 (8d0f1dd)
C            2.86685707151486        0.73334540315832        0.43817198846557
N            1.84367234850392       -0.21851837726984        0.06657133677801
C            2.13078419341764       -1.39022553163326       -0.44705875950353
N            1.17263752306990       -2.26015140059955       -0.87771378388272
C           -0.19427473187551       -2.09946096628963       -0.52851403695286
C            0.52660240477251        0.16136935698664        0.29207165332076
C           -0.03502175881451        1.44955302822823        0.12606485251779
O            0.45615504251080        2.55150716020021        0.14151808143330
N           -1.44682379106755        1.22374425004828       -0.06398199615801
C           -2.37474417123776        2.32177441659398       -0.22845410006705
C           -1.78283939881767       -0.05439525773625       -0.15965966739977
O           -2.79008364871262       -0.64988117365912       -0.36983383975796
N           -0.49288490914031       -0.82757089989732        0.10607685922773
C           -0.58709266285027       -2.05124809766094        0.90117521284493
H            3.03090931405926        0.70518475231815        1.51649995788748
H            3.79624348394242        0.50679237175961       -0.07715204103409
H            2.52919179593379        1.73719419765639        0.17640379139397
H            3.15982719729668       -1.67007014760808       -0.59434072425821
H           -1.78017531157225        3.22136391612626       -0.38282012621161
H           -3.02220337046890        2.13895311941833       -1.08396424636441
H           -2.98425297108795        2.43776855103891        0.66771295003805
H            0.16846553143771       -2.18600441663906        1.66429989144961
H           -0.89973888218568       -2.45196617051203       -1.26666499852854
H           -1.59592479833345       -2.33011848030651        1.18481671109402
H            1.46514601380297       -3.18070106211943       -1.17005334843199
