25
 energy: -43.447846583429 gnorm: 0.123667052270 xtb: 6.6.1 (8d0f1dd)
C            3.25840791610039        1.20200551104678        0.09131674283901
N            2.31646800240447        0.10498011171022        0.03617282676273
C            2.61920096277540       -1.24171745062686        0.03047051522045
N            1.44461853424064       -1.92322949094668        0.01285877213386
C            0.43428429309562       -1.05655996903938       -0.01411610053404
C            0.94854639799267        0.24156496943788       -0.00033152496834
C            0.11448132796504        1.37703079665493       -0.01094582539906
O            0.47690184124067        2.56389854985792       -0.01312974299032
N           -1.26779049889938        1.02566116946686       -0.03333790680745
C           -2.21546803271553        2.12343450341428       -0.04966064479881
C           -1.81770570315717       -0.23747099849956       -0.05193066417178
O           -3.02277702298997       -0.42695845690659       -0.07179074950171
N           -0.91567548895129       -1.34635474115938       -0.04472855909486
C           -1.60986465809130       -2.61538814242630       -0.06018014976407
H            3.75620369504156        1.25551717415745        1.06656325727794
H            4.02850299895463        1.13226413185442       -0.68772916235817
H            2.69614605754064        2.14767025365335       -0.03155096392385
H            3.59824630589262       -1.68642230423995        0.04605575112604
H           -1.64207168021580        3.05800627085906       -0.02521600764447
H           -2.80365496112797        2.05941278538553       -0.95136743974776
H           -2.84425855851255        2.04584535061972        0.82591037297101
H           -1.33567899556297       -3.21878832405901        0.83343688996496
H           -1.31024417847619       -3.20569215946269       -0.95595047768387
H           -2.61173152735579       -2.46179017060072       -0.07571585636363
H            1.32082127221224       -2.92797402636957        0.00039582973406
25
 energy: -43.455283058888 gnorm: 0.034867253680 xtb: 6.6.1 (8d0f1dd)
C            3.25222398389872        1.19902435756547        0.09510899316013
N            2.32090854694828        0.10641876554248        0.03449305461580
C            2.62071579907167       -1.24412755114897        0.03236739889583
N            1.43574262180979       -1.93061965888023        0.01002100554067
C            0.41673312057536       -1.05908587351827       -0.01389360881675
C            0.93898715951959        0.23457084259311       -0.00016504936337
C            0.11571289690762        1.37684617127003       -0.01296840730662
O            0.47583367901505        2.56230100466209       -0.01275132402285
N           -1.26636679572432        1.02771387534367       -0.03393819844685
C           -2.21710149320652        2.12454385221494       -0.04842952431666
C           -1.81503451550401       -0.22060307597392       -0.05094141242762
O           -3.01585672009753       -0.40261044930618       -0.07162642242526
N           -0.92734678361195       -1.32902647678600       -0.04395266043508
C           -1.56687745778328       -2.62726075610453       -0.06035538459116
H            3.75409660322229        1.23983044537839        1.06764989420697
H            4.01151572033195        1.11939497794355       -0.68743688172021
H            2.68702959796460        2.12804915051606       -0.03669029948569
H            3.59357890248889       -1.68116927858605        0.04929505486492
H           -1.63945254981088        3.04968678425427       -0.02648098821395
H           -2.81782647428528        2.07064953983792       -0.95148602023248
H           -2.85894682774794        2.05690938163076        0.82602379102332
H           -1.30503725256605       -3.21529554908867        0.83258721317438
H           -1.27996491833992       -3.20344842017446       -0.95404276395667
H           -2.62157875873906       -2.46173525012571       -0.07538209473292
H            1.32422021506361       -2.93201146527805       -0.00150618270999
25
 energy: -43.455825960661 gnorm: 0.012239032009 xtb: 6.6.1 (8d0f1dd)
C            3.25547055708514        1.20945499718785        0.09446220844482
N            2.33023372037929        0.11293073006315        0.02989993508015
C            2.62809975321349       -1.24149361344725        0.03150397966446
N            1.43855777893165       -1.93404781594584        0.01091141575652
C            0.41266359654092       -1.06486325281685       -0.01290311156397
C            0.93812901036273        0.22801966388034        0.00053499283958
C            0.11902267640180        1.37249028968913       -0.01253493006510
O            0.47207048888121        2.55831685590559       -0.01277357163223
N           -1.26354329505149        1.01778281443286       -0.03420223902435
C           -2.21010276912080        2.11633554042846       -0.04806699156408
C           -1.81175743098082       -0.22443708353357       -0.05134659286722
O           -3.01137814297267       -0.41482442371668       -0.07223579368760
N           -0.93102281242490       -1.32673082066406       -0.04300552604180
C           -1.56624770157080       -2.62833050001714       -0.06041783455100
H            3.75760003963564        1.25231828829793        1.06605979526529
H            4.02110209064150        1.13419355364569       -0.68273741163867
H            2.69739852896815        2.13745630555113       -0.03443872400544
H            3.59810652191434       -1.67670342277034        0.04449870228329
H           -1.63938834344651        3.04375268656900       -0.02585474390436
H           -2.81286161082204        2.05860860570474       -0.95283382364384
H           -2.85473159923979        2.04354598962850        0.82609359263216
H           -1.33926600170227       -3.21324280682193        0.83403808489821
H           -1.31287799655306       -3.20024957643562       -0.95614315717487
H           -2.63847536265816       -2.43731842177761       -0.07567364687679
H            1.33910660298815       -2.93401923925579        0.00266457365473
25
 energy: -43.456146961376 gnorm: 0.005401576859 xtb: 6.6.1 (8d0f1dd)
C            3.25393691680712        1.20461512034391        0.09401731942382
N            2.32723258234950        0.11132473554789        0.03012284895482
C            2.62249417083440       -1.24393638077186        0.03358876815043
N            1.43201586195885       -1.93299587312815        0.01027035730202
C            0.40941981694758       -1.06179757138880       -0.01337948373942
C            0.93525280424047        0.22981516126322        0.00123567298059
C            0.11819189751839        1.37623677998301       -0.01266499487768
O            0.47154629753396        2.56128321241018       -0.01267557205328
N           -1.26683328011537        1.02177512762423       -0.03426428582869
C           -2.21086925625886        2.12349777037713       -0.04798628195883
C           -1.81535271110466       -0.22201533332779       -0.05133695958514
O           -3.01611108742148       -0.41470401086988       -0.07178336602243
N           -0.93336368402064       -1.32382086478668       -0.04364440911342
C           -1.55646305005846       -2.63194029171202       -0.06052047391846
H            3.75611178945873        1.24624794022160        1.06626836025824
H            4.01887884205789        1.12538909746115       -0.68502281268764
H            2.69535022744410        2.13364894326210       -0.03463672489509
H            3.59151522799208       -1.68349948804149        0.04694957128358
H           -1.64048628833302        3.05163102847366       -0.02630044583644
H           -2.81416494033887        2.06686522757754       -0.95193616262820
H           -2.85489886063641        2.05262034054274        0.82619154512635
H           -1.31805137472015       -3.21219961663531        0.83278682409760
H           -1.29236870704379       -3.19951427535057       -0.95473815105211
H           -2.62840526730669       -2.45672884385487       -0.07556987759917
H            1.33133037161600       -2.93285259143926        0.00052791649644
25
 energy: -43.456170305428 gnorm: 0.002739644177 xtb: 6.6.1 (8d0f1dd)
C            3.25237508247518        1.20387195056743        0.09500926425406
N            2.32752782516324        0.11035446519080        0.03057383560110
C            2.62411619783288       -1.24397476273353        0.03383834650542
N            1.43432216268456       -1.93327808712521        0.00987925785050
C            0.41194086098475       -1.06251675515560       -0.01355396946511
C            0.93651157310094        0.22924337925744        0.00140283369661
C            0.12065860536147        1.37644354876771       -0.01295333514603
O            0.47436295009291        2.56084274547953       -0.01269368835389
N           -1.26554024377686        1.02254942216174       -0.03432748289825
C           -2.21259511585319        2.12181236077077       -0.04821368212346
C           -1.81361782731453       -0.22117337899888       -0.05122152153237
O           -3.01481844547749       -0.41174353576172       -0.07180362978589
N           -0.93185675799468       -1.32394798605440       -0.04367958414059
C           -1.55968937454894       -2.62940099638646       -0.06026434673250
H            3.75506926834944        1.24548526427790        1.06745663906004
H            4.01552399453924        1.12579157605093       -0.68588973920518
H            2.68975778587181        2.13125530833552       -0.03492602163920
H            3.59447572198641       -1.68222580089206        0.04630985251209
H           -1.64091596418000        3.04890967699285       -0.02635156459850
H           -2.81573386404365        2.06534079322769       -0.95203706915005
H           -2.85699622421323        2.05109683774756        0.82566856500351
H           -1.31985819247949       -3.21099962391205        0.83299891953698
H           -1.29426154050155       -3.19888312448238       -0.95418150377728
H           -2.62945342553330       -2.45228812537109       -0.07530638956307
H            1.33460324687475       -2.93361980817280       -0.00023480363106
25
 energy: -43.456179345988 gnorm: 0.001534321874 xtb: 6.6.1 (8d0f1dd)
C            3.25341015561080        1.20409062268998        0.09465484773657
N            2.32740192757030        0.11117564978896        0.02994322077468
C            2.62347115938517       -1.24330706944280        0.03415673581762
N            1.43364751305231       -1.93279693520154        0.01035818092744
C            0.41136920372444       -1.06237546954467       -0.01345454482405
C            0.93584604080286        0.22952002333445        0.00130217227823
C            0.12016429844515        1.37657572431556       -0.01303280343112
O            0.47227176461888        2.56117540368484       -0.01278261626589
N           -1.26631247317515        1.02186930265200       -0.03426429426418
C           -2.21240237086124        2.12175651073138       -0.04798462164664
C           -1.81410972856901       -0.22179635368014       -0.05122651041277
O           -3.01527194692332       -0.41247030102939       -0.07186485415700
N           -0.93246153306382       -1.32434872475294       -0.04363214444752
C           -1.56004914354370       -2.63028992206581       -0.06055066192039
H            3.75627333092872        1.24582180473391        1.06693593855150
H            4.01773273768208        1.12565728284578       -0.68510263155592
H            2.69387506166296        2.13312640913236       -0.03552127935050
H            3.59376301310275       -1.68145634220891        0.04622236158868
H           -1.63976143627637        3.04831487555309       -0.02611767360653
H           -2.81543614166553        2.06576763322786       -0.95190633120740
H           -2.85651447730479        2.05137757163678        0.82612711581659
H           -1.32062223252675       -3.21249450415796        0.83254415918119
H           -1.29484982946263       -3.19981564680376       -0.95464039678522
H           -2.63000901381775       -2.45293819226909       -0.07567345362958
H            1.33448242000433       -2.93319400938824        0.00100926711009
25
 energy: -43.456179458701 gnorm: 0.000985388528 xtb: 6.6.1 (8d0f1dd)
C            3.25280064469856        1.20426969520727        0.09482162052714
N            2.32760611377088        0.11083563554079        0.02950092572021
C            2.62313776003809       -1.24401955382321        0.03413602369877
N            1.43296106453644       -1.93323150919760        0.00957041731064
C            0.41105371258989       -1.06266040729172       -0.01363544548783
C            0.93556822188324        0.22906397787019        0.00148603481965
C            0.12101933464939        1.37656158122458       -0.01273650858178
O            0.47259509298251        2.56104052664924       -0.01246458286817
N           -1.26625213305906        1.02172403206728       -0.03427375212375
C           -2.21154356939348        2.12225806145405       -0.04834659309612
C           -1.81392242541453       -0.22190738919783       -0.05125305551389
O           -3.01505734301153       -0.41305218673485       -0.07181442052003
N           -0.93264638388215       -1.32422783139301       -0.04352349738486
C           -1.55937699493817       -2.63060426323695       -0.06007516568613
H            3.75555461156125        1.24660693291277        1.06703371885366
H            4.01738136500458        1.12743537289263       -0.68501053565640
H            2.69259633090633        2.13293218859398       -0.03408439559538
H            3.59311817884587       -1.68264904466916        0.04551782372484
H           -1.64046004687293        3.04991679705857       -0.02655164243651
H           -2.81431782601521        2.06555376347189       -0.95237550706715
H           -2.85562343008861        2.05140120307145        0.82567924669522
H           -1.32015833394161       -3.21184585738069        0.83348664277418
H           -1.29457437277720       -3.19970665278731       -0.95430115613689
H           -2.62959968351729       -2.45318503339409       -0.07510977465868
H            1.33404841084543       -2.93356469512657       -0.00017723903285
25
 energy: -43.413738544930 gnorm: 0.272347198094 xtb: 6.6.1 (8d0f1dd)
C            3.27802933907864        1.23838557228970        0.09897651277428
N            2.34411097515537        0.12643330694128        0.02854411542140
C            2.66049436603386       -1.26687405448267        0.03158865553039
N            1.49278971803228       -1.93469096170312        0.01462312121967
C            0.47479746186873       -1.07303192468228       -0.01874589548346
C            0.98375670070445        0.24091851528907       -0.01487215077181
C            0.12992903245037        1.34816599151683       -0.02441994470569
O            0.42407463755480        2.56233681390979       -0.02964304189653
N           -1.28121477405817        0.98642811098003       -0.03865612386299
C           -2.20370545214870        2.09341375811639       -0.04955092409516
C           -1.80809515267995       -0.27652605041340       -0.05748711461001
O           -3.01888689726901       -0.48942882651191       -0.07377248205308
N           -0.90014857553661       -1.40068014106220       -0.04962218517528
C           -1.74972630009799       -2.58220575650558       -0.06083941878548
H            3.80264314767776        1.29365643863641        1.06119556584320
H            4.03880308701449        1.23203817762978       -0.70246644209262
H            2.68833409018096        2.18976474496829        0.03495714375956
H            3.62101838850613       -1.74522108005842        0.05392914005598
H           -1.61104102885517        3.02443801757287       -0.02507364420175
H           -2.79935568574046        2.01682295463768       -0.95035304843924
H           -2.82782310580530        2.00376989322838        0.83107515770336
H           -1.50149631495790       -3.23291354923158        0.83817150420368
H           -1.47617840975010       -3.22549450982007       -0.95895456866241
H           -2.66512699157922       -2.36506602645141       -0.07716553691243
H            1.32992868428967       -2.92189135561989        0.02625163698952
25
 energy: -43.444053631601 gnorm: 0.062691896347 xtb: 6.6.1 (8d0f1dd)
C            3.26588645252477        1.23105261300411        0.10276397259014
N            2.34750528945707        0.11825391087930        0.02762490087408
C            2.65521658409777       -1.25419736530750        0.03392858909821
N            1.47461544549582       -1.93510674768552        0.01297205136785
C            0.44400040785091       -1.07647130795651       -0.01827199814379
C            0.96575972811790        0.22759975411922       -0.01322061252920
C            0.12971925598360        1.35164622555562       -0.02525516247582
O            0.44175067743903        2.55227533693990       -0.02811004469913
N           -1.26770339376899        0.99225183491066       -0.03937277480637
C           -2.20643126904969        2.09195070307802       -0.04845632066623
C           -1.80213231038604       -0.25189513767465       -0.05602150548592
O           -3.00619985774108       -0.44095962569536       -0.07398800911576
N           -0.91295407011417       -1.37260529766422       -0.04882602217886
C           -1.67311726676206       -2.61621873074107       -0.06082378756696
H            3.79562482512742        1.26924805661887        1.06129739667519
H            4.01437101090444        1.21440337441329       -0.69890360218857
H            2.68071723845342        2.16191861226503        0.02364837411600
H            3.61657365895137       -1.71832763761535        0.05586023053923
H           -1.61928751448260        3.01404924089817       -0.02740301565724
H           -2.81123952752275        2.03119553564752       -0.94942530902512
H           -2.84154371215707        2.01704545541464        0.83074874925151
H           -1.46517892131952       -3.23511912226964        0.83675930297487
H           -1.44038632188586       -3.22941841346263       -0.95678171585862
H           -2.69442099999500       -2.36981277402428       -0.07697027058089
H            1.33476553085026       -2.93021043447364        0.02391661524450
25
 energy: -43.446368005682 gnorm: 0.012910881602 xtb: 6.6.1 (8d0f1dd)
C            3.26449690249745        1.23613431520405        0.10188904207259
N            2.35494763263681        0.11580966248677        0.02397015799504
C            2.65678802227545       -1.24851259034779        0.03396454838653
N            1.47096785304074       -1.93858473876872        0.01322370969955
C            0.43342940592900       -1.08357040557863       -0.01816211763224
C            0.95901927195994        0.21797712710060       -0.01252688240101
C            0.12628748391981        1.35031814448236       -0.02605990895638
O            0.43915272613815        2.54696589642051       -0.02920232237032
N           -1.26260768713029        0.98353493425787       -0.04066172917588
C           -2.20205601366333        2.08454144062703       -0.04827022920174
C           -1.80265185517853       -0.25533682521643       -0.05647040575748
O           -3.00464396770409       -0.44874713817067       -0.07366224327924
N           -0.91764998803127       -1.36287498887742       -0.04810898430208
C           -1.65232821257333       -2.61897950389594       -0.06048242840311
H            3.79631858317610        1.27403939484085        1.05900239297203
H            4.01714911292978        1.22152311847561       -0.69552429473679
H            2.68520368879059        2.16233154674912        0.02788972976064
H            3.61629282062106       -1.71441959657340        0.05351200395646
H           -1.61897292249474        3.00694063391287       -0.02723321343018
H           -2.80908826916846        2.02351418215247       -0.94950052273967
H           -2.83924589198534        2.00803718588191        0.83044896236064
H           -1.48473304310838       -3.22061328993622        0.83712202399993
H           -1.45818454784557       -3.21397872185198       -0.95695201193608
H           -2.69338116875951       -2.34636079731857       -0.07649477425663
H            1.35140100379689       -2.93714092688228        0.02597952912852
25
 energy: -43.446465886839 gnorm: 0.008110023806 xtb: 6.6.1 (8d0f1dd)
C            3.26346635107656        1.23292733650713        0.10181212744812
N            2.35461937825723        0.11442022683135        0.02424744718466
C            2.65200676185331       -1.24920920065002        0.03655043028537
N            1.46290317550448       -1.93773974112328        0.01262992634496
C            0.42772397832205       -1.08071570595433       -0.01851322369830
C            0.95491844178317        0.21934488280976       -0.01119155870035
C            0.12472284258066        1.35617154268357       -0.02528922004714
O            0.44047861499528        2.55121108272296       -0.02686724955518
N           -1.26381469919167        0.98837417487975       -0.04013967940318
C           -2.20288359603256        2.09301202913167       -0.04795947424516
C           -1.80577279296693       -0.25236078342083       -0.05594948190419
O           -3.00825507146983       -0.44802693340743       -0.07389087447445
N           -0.92255320014730       -1.35790246879409       -0.04851233773133
C           -1.63931598486291       -2.62722600829160       -0.06108951518307
H            3.79523649998104        1.26892965350131        1.06011213048769
H            4.01532499202642        1.21113515384782       -0.69754641154165
H            2.68272985866594        2.15777023716635        0.02288645386668
H            3.60884158409196       -1.72217801251118        0.05572936122335
H           -1.62050603019864        3.01619757056841       -0.02749307583929
H           -2.81132082297217        2.03375150256239       -0.94870220793179
H           -2.84148925003434        2.01934870159501        0.83016981312626
H           -1.46376856108319       -3.22643391378325        0.83215822164917
H           -1.43819242860261       -3.22038517182959       -0.95279876525475
H           -2.68726986507233       -2.36208239476006       -0.07675365730669
H            1.34808076356533       -2.93578570110786        0.02409085295336
25
 energy: -43.446591585972 gnorm: 0.002840514080 xtb: 6.6.1 (8d0f1dd)
C            3.26337433778145        1.23468641924958        0.10297691659097
N            2.35615377376921        0.11503521647791        0.02379129062709
C            2.65520318510936       -1.24860644058636        0.03538720687097
N            1.46649101433442       -1.93826581276310        0.01248590093896
C            0.43099937038271       -1.08205540816708       -0.01863458153449
C            0.95708951854756        0.21847125943864       -0.01178826581113
C            0.12713104437083        1.35473240369024       -0.02625277574981
O            0.44301212447382        2.54960126401977       -0.02851963617670
N           -1.26156088721091        0.98730331287423       -0.04055659403779
C           -2.20324081249000        2.08934498766610       -0.04827228453640
C           -1.80359359757696       -0.25306877042202       -0.05611715784965
O           -3.00672470114201       -0.44549102871481       -0.07376393624693
N           -0.92160726709944       -1.35999999420047       -0.04822629307370
C           -1.64678978743051       -2.62420662199498       -0.06049276197711
H            3.79544555629183        1.27023828755323        1.06116819799500
H            4.01457487789072        1.21696559648899       -0.69699517373531
H            2.68079284235187        2.15922733402399        0.02560036674737
H            3.61313766369476       -1.71990898182643        0.05354405685083
H           -1.62088824273096        3.01232115320775       -0.02764736055197
H           -2.81106573261818        2.02826552775038       -0.94918312070227
H           -2.84110980583604        2.01352005785160        0.83015140157318
H           -1.47293011055196       -3.22483279668760        0.83515066771479
H           -1.44718338586932       -3.21911535553644       -0.95441377228403
H           -2.69382693284221       -2.35537631179594       -0.07634916173083
H            1.35302689446891       -2.93623723842322        0.02464690184206
25
 energy: -43.446594395453 gnorm: 0.001651737616 xtb: 6.6.1 (8d0f1dd)
C            3.26420891976692        1.23438812343830        0.10182862665897
N            2.35574985597479        0.11560677580455        0.02352603967299
C            2.65457952357848       -1.24819358657019        0.03657633592539
N            1.46576611309841       -1.93806041219542        0.01331375276700
C            0.43124355799966       -1.08160585323584       -0.01825763839660
C            0.95646576052995        0.21885057987580       -0.01142021890390
C            0.12586095042017        1.35451218986622       -0.02566690754688
O            0.44035550682175        2.54949923902066       -0.02769898350268
N           -1.26237671156849        0.98651294806990       -0.04015826710573
C           -2.20354242993726        2.08890158642396       -0.04788727027225
C           -1.80379022834141       -0.25426938841918       -0.05618477179030
O           -3.00689882699372       -0.44664103918235       -0.07401628476723
N           -0.92148903811041       -1.36024532949180       -0.04820511064351
C           -1.64705191557638       -2.62384934498917       -0.06115641464343
H            3.79641910653514        1.27097135557355        1.05962285344987
H            4.01640124226052        1.21539358110239       -0.69722583350935
H            2.68440707361287        2.16056377288785        0.02391483832633
H            3.61246771134610       -1.71937248723683        0.05484814623143
H           -1.61985278840276        3.01098935563315       -0.02695910693150
H           -2.81076378868534        2.02844252832285       -0.94910744888634
H           -2.84118089689249        2.01331976972142        0.83059475638675
H           -1.47312837942223       -3.22461809933426        0.83492579923790
H           -1.44683694364893       -3.21784634394554       -0.95612726543834
H           -2.69413355537086       -2.35466759101005       -0.07722327649311
H            1.35303112107446       -2.93603427095600        0.02583368192762
25
 energy: -43.446596819718 gnorm: 0.000824665342 xtb: 6.6.1 (8d0f1dd)
C            3.26323034632528        1.23427091037339        0.10312782048951
N            2.35575573024239        0.11514101742276        0.02317889132899
C            2.65449963841748       -1.24873984249273        0.03546412604991
N            1.46526522355443       -1.93856755513295        0.01192528150834
C            0.43151552869192       -1.08163811025906       -0.01892616801840
C            0.95636206829224        0.21852286365407       -0.01187979082436
C            0.12623993351081        1.35460167282387       -0.02633989064618
O            0.44131613475149        2.54934127935228       -0.02855317376026
N           -1.26197950732788        0.98691389012982       -0.04057961416246
C           -2.20312907038509        2.08957643081941       -0.04849526340283
C           -1.80332660961767       -0.25429546471146       -0.05612633901892
O           -3.00655850695441       -0.44627170465285       -0.07353210521555
N           -0.92140464495577       -1.36001697838148       -0.04811709479422
C           -1.64647222029816       -2.62386573460271       -0.06012200533034
H            3.79515444195933        1.27049020411671        1.06111720142239
H            4.01527701453466        1.21738865670599       -0.69616114008136
H            2.68182895974206        2.15958415982568        0.02661368411013
H            3.61231994961563       -1.72013649628429        0.05283374411831
H           -1.61984986759534        3.01201026328143       -0.02802099809052
H           -2.81052149775780        2.02874172167199       -0.94946924367796
H           -2.84048890262511        2.01420423064679        0.83009797003591
H           -1.47215488713887       -3.22445312732235        0.83583164766641
H           -1.44659226481248       -3.21890748761629       -0.95429132881476
H           -2.69367107874573       -2.35480658717310       -0.07597506420592
H            1.35329502864554       -2.93654015302096        0.02408888506726
25
 energy: -43.358647765599 gnorm: 0.471954844049 xtb: 6.6.1 (8d0f1dd)
C            3.29554927069180        1.27590286768849        0.10674714665343
N            2.37360258294240        0.14376520862943        0.01882853994371
C            2.70447088457467       -1.28256532777785        0.03170115759611
N            1.54022176738842       -1.94353337957141        0.01446317309961
C            0.50786965828275       -1.10317662037999       -0.02044069142305
C            1.01533158241560        0.21640599582429       -0.01658553753946
C            0.14616455935664        1.32113415188030       -0.04018957023458
O            0.38955986689257        2.55663102703595       -0.04882334630646
N           -1.29035853943865        0.94731477165415       -0.04536828651975
C           -2.18987460443563        2.06417665125335       -0.04950547107044
C           -1.77142659449286       -0.28700884110943       -0.06303521938605
O           -2.98837432455668       -0.47841301140935       -0.07567751144313
N           -0.91233026186964       -1.45612236857235       -0.05202123865807
C           -1.89141986105092       -2.55909741807243       -0.06217261955323
H            3.85049732140991        1.32969003926750        1.05325758013065
H            4.04474372105192        1.33220463760441       -0.71729763106088
H            2.67264237272500        2.22976939506268        0.10104345270071
H            3.66170016705011       -1.77599952832940        0.06174217659433
H           -1.57743689946300        2.99264562222241       -0.02511906681761
H           -2.80061627076729        1.97410326285736       -0.94861161167211