25
 energy: 0.000000000000 xtb: 6.6.1 (8d0f1dd)
C            3.23720132972391        1.16630909158653        0.08434468864950
N            2.29877796055224        0.07527476373246        0.03981602671198
C            2.58028186251803       -1.21425391179017        0.03006175752192
N            1.43813944744728       -1.93419254010258        0.00098261751768
C            0.39035684826767       -1.05887462812143       -0.00790371763344
C            0.93510047688824        0.21347817468824        0.01709077332874
C            0.09450143016486        1.40504290868848       -0.00410946993748
O            0.49712746915594        2.54126690785742       -0.00342325656480
N           -1.25076628431515        1.06271869620815       -0.03085477937476
C           -2.21907191394203        2.15522079838987       -0.05001256521996
C           -1.81739470187490       -0.20012724136556       -0.04692818139228
O           -2.99983858926755       -0.37846413507442       -0.07008877579474
N           -0.92618577614240       -1.30210203518959       -0.03682761236648
C           -1.46982251276835       -2.64643077634382       -0.06029819901142
H            3.71247229913541        1.21471443890471        1.06488839270555
H            4.00791460421487        1.03430799217987       -0.67357688121503
H            2.69909982127087        2.09770098766290       -0.09130154035862
H            3.56654087521359       -1.63682977417947        0.04233139674524
H           -1.67107945562430        3.09322822573871       -0.02552706696334
H           -2.82428927394145        2.09428605349656       -0.95318074103337
H           -2.87644002486466        2.07745706351925        0.81450059976605
H           -1.17061985538665       -3.19584861009707        0.83242224714061
H           -1.14560246782873       -3.17511580834413       -0.95688266944647
H           -2.55549768731684       -2.55659960601237       -0.07459039105944
H            1.38130842369251       -2.94313824728853       -0.01389874052104
25
 energy: -5.642018209167 xtb: 6.6.1 (8d0f1dd)
C            3.25280064469856        1.20426969520727        0.09482162052714
N            2.32760611377088        0.11083563554079        0.02950092572021
C            2.62313776003809       -1.24401955382321        0.03413602369877
N            1.43296106453644       -1.93323150919760        0.00957041731064
C            0.41105371258989       -1.06266040729172       -0.01363544548783
C            0.93556822188324        0.22906397787019        0.00148603481965
C            0.12101933464939        1.37656158122458       -0.01273650858178
O            0.47259509298251        2.56104052664924       -0.01246458286817
N           -1.26625213305906        1.02172403206728       -0.03427375212375
C           -2.21154356939348        2.12225806145405       -0.04834659309612
C           -1.81392242541453       -0.22190738919783       -0.05125305551389
O           -3.01505734301153       -0.41305218673485       -0.07181442052003
N           -0.93264638388215       -1.32422783139301       -0.04352349738486
C           -1.55937699493817       -2.63060426323695       -0.06007516568613
H            3.75555461156125        1.24660693291277        1.06703371885366
H            4.01738136500458        1.12743537289263       -0.68501053565640
H            2.69259633090633        2.13293218859398       -0.03408439559538
H            3.59311817884587       -1.68264904466916        0.04551782372484
H           -1.64046004687293        3.04991679705857       -0.02655164243651
H           -2.81431782601521        2.06555376347189       -0.95237550706715
H           -2.85562343008861        2.05140120307145        0.82567924669522
H           -1.32015833394161       -3.21184585738069        0.83348664277418
H           -1.29457437277720       -3.19970665278731       -0.95430115613689
H           -2.62959968351729       -2.45318503339409       -0.07510977465868
H            1.33404841084543       -2.93356469512657       -0.00017723903285
25
 energy: -1.912386731665 xtb: 6.6.1 (8d0f1dd)
C            3.26323034632528        1.23427091037339        0.10312782048951
N            2.35575573024239        0.11514101742276        0.02317889132899
C            2.65449963841748       -1.24873984249273        0.03546412604991
N            1.46526522355443       -1.93856755513295        0.01192528150834
C            0.43151552869192       -1.08163811025906       -0.01892616801840
C            0.95636206829224        0.21852286365407       -0.01187979082436
C            0.12623993351081        1.35460167282387       -0.02633989064618
O            0.44131613475149        2.54934127935228       -0.02855317376026
N           -1.26197950732788        0.98691389012982       -0.04057961416246
C           -2.20312907038509        2.08957643081941       -0.04849526340283
C           -1.80332660961767       -0.25429546471146       -0.05612633901892
O           -3.00655850695441       -0.44627170465285       -0.07353210521555
N           -0.92140464495577       -1.36001697838148       -0.04811709479422
C           -1.64647222029816       -2.62386573460271       -0.06012200533034
H            3.79515444195933        1.27049020411671        1.06111720142239
H            4.01527701453466        1.21738865670599       -0.69616114008136
H            2.68182895974206        2.15958415982568        0.02661368411013
H            3.61231994961563       -1.72013649628429        0.05283374411831
H           -1.61984986759534        3.01201026328143       -0.02802099809052
H           -2.81052149775780        2.02874172167199       -0.94946924367796
H           -2.84048890262511        2.01420423064679        0.83009797003591
H           -1.47215488713887       -3.22445312732235        0.83583164766641
H           -1.44659226481248       -3.21890748761629       -0.95429132881476
H           -2.69367107874573       -2.35480658717310       -0.07597506420592
H            1.35329502864554       -2.93654015302096        0.02408888506726
25
 energy: 3.965059428181 xtb: 6.6.1 (8d0f1dd)
C            3.27149267932357        1.26584044420726        0.11017072939424
N            2.38298456472678        0.12001723043936        0.01730310850289
C            2.68937724136051       -1.24945118098478        0.03517532854339
N            1.50338809338212       -1.94698155884959        0.01306058039541
C            0.45042281788624       -1.10916988208980       -0.02049283997520
C            0.97571929272205        0.19984684158695       -0.01586875951353
C            0.13894078834659        1.33353504338785       -0.03904723216808
O            0.42993776249063        2.53505327987276       -0.04656340864307
N           -1.24570274922604        0.96282661395944       -0.04695479378282
C           -2.19150970704685        2.06020699778959       -0.04860793976885
C           -1.78075776249389       -0.27174480836896       -0.06074303171511
O           -2.99004532301817       -0.43251061585806       -0.07634429911901
N           -0.91889998377695       -1.39545423921399       -0.05029560459968
C           -1.73906229872252       -2.61473360235536       -0.06169108060579
H            3.83586161711690        1.29498666704777        1.05120238208049
H            4.00735380326625        1.30664526756281       -0.70798897515821
H            2.66732623250788        2.18410716310462        0.08552942561918
H            3.64376121285493       -1.73603212379527        0.06085747228742
H           -1.60004052786070        2.97930630739143       -0.02775766828748
H           -2.80591786840821        1.99124964076818       -0.94581518431776
H           -2.82972535991546        1.97106000154920        0.82998443338770
H           -1.62651565676666       -3.22654261949549        0.83516348728410
H           -1.60190286116044       -3.22149094504764       -0.95862365436689
H           -2.75460377890103       -2.25574401038636       -0.07621449931743
H            1.41285633388875       -2.94738031425529        0.03007185421087
25
 energy: 11.777661359352 xtb: 6.6.1 (8d0f1dd)
C            3.27491037659090        1.30142860995093        0.11332730039461
N            2.40883578333779        0.12746706362799        0.01365205293273
C            2.72664039566947       -1.24234869767388        0.03255151590428
N            1.54652271245004       -1.95384661912466        0.01342713476797
C            0.47148563666816       -1.13837913184237       -0.02011127503677
C            0.99580602458051        0.17891229534399       -0.01578162911376
C            0.16330191267830        1.31528630005463       -0.05205235108238
O            0.45669719733550        2.51706512820017       -0.07104316616896
N           -1.21630818315410        0.94625060261213       -0.05456421022242
C           -2.17507828779524        2.03348905521042       -0.04907753692098
C           -1.75129808291624       -0.28167415056731       -0.06506796928743
O           -2.96827756983697       -0.39392484013449       -0.07867660454296
N           -0.91665476978583       -1.43275416307657       -0.05349806709711
C           -1.83500070582757       -2.61132028657784       -0.06335779439969
H            3.86927544921638        1.32853238096792        1.03845965836054
H            3.99595681513084        1.39440433198235       -0.71830246699994
H            2.63683928199878        2.20422139026502        0.11676677612422
H            3.68892414807566       -1.71790121807191        0.06542230483926
H           -1.57676694329817        2.95039203380317       -0.02797694140709
H           -2.79837504591561        1.95437113545204       -0.94143563208388
H           -2.81600083190310        1.92846328719218        0.82849513917606
H           -1.78039881018313       -3.22732572837476        0.83296042122757
H           -1.75801483215224       -3.21912128662376       -0.96409093100498
H           -2.81256079163057       -2.16213602217638       -0.07426497254545
H            1.47555182069772       -2.95625507695636        0.03248049620210
25
 energy: 22.023244630254 xtb: 6.6.1 (8d0f1dd)
C            3.27694918382443        1.33464367317107        0.12572019445590
N            2.43165773976288        0.13596566778085        0.01485232032092
C            2.76098569811949       -1.23174420249599        0.03104087122028
N            1.58815607227304       -1.96021416335517        0.01163817801329
C            0.48924303644832       -1.16889975469229       -0.02037348408285
C            1.01275050622581        0.15718545998662       -0.01470745588994
C            0.19192705010690        1.30150940396105       -0.06003749630129
O            0.49358774210666        2.50227519622450       -0.08157090052365
N           -1.18224433375920        0.93553838138615       -0.06182577272039
C           -2.15865998748951        2.00872307958079       -0.04974364954096
C           -1.72023270926252       -0.28902894021353       -0.06971218680714
O           -2.94328828989498       -0.35420952872832       -0.08181194600742
N           -0.91710588700288       -1.46943804377336       -0.05770962429152
C           -1.93314079856470       -2.61107130166503       -0.06539225829443
H            3.90354872535981        1.35869734982360        1.03085966026544
H            3.97631771513760        1.48405422123233       -0.71863718031633
H            2.61358028095122        2.21996975838561        0.18059910707120
H            3.73226314417655       -1.69065179612465        0.06963769028179
H           -1.55519573152755        2.92411740081794       -0.02836744604356
H           -2.79036194104023        1.91775993484806       -0.93730711348123
H           -2.80227474173942        1.88666297992920        0.82649653671687
H           -1.93208727736180       -3.22398363487518        0.82929005332947
H           -1.91310248800643       -3.21054749727928       -0.97000462399813
H           -2.87101987873388       -2.07982678550977       -0.06997286493201
H            1.53897376679287       -2.96405277844812        0.03188564894124
25
 energy: 34.201160980460 xtb: 6.6.1 (8d0f1dd)
C            3.27095576950419        1.36229162203404        0.14061116453433
N            2.45023919462880        0.14263510288027        0.02480076151176
C            2.79288528054479       -1.22007472197335        0.03400005334746
N            1.62829996272900       -1.96444703823407        0.01251961530789
C            0.50751193320330       -1.19611913314861       -0.02451638744453
C            1.02974143055597        0.13847610310242       -0.02154555362616
C            0.22006223912950        1.29022302054537       -0.06677752472624
O            0.53014069359468        2.48994463465790       -0.08695413392067
N           -1.15002389694524        0.92703569876584       -0.06864239934038
C           -2.14368785142911        1.98555837235166       -0.04974245855717
C           -1.69501161829479       -0.29435546505507       -0.07397888071906
O           -2.92347004248586       -0.31112376475698       -0.08164275712882
N           -0.92275997957849       -1.50407592008336       -0.06519507552776
C           -2.03425466200520       -2.62100868035555       -0.06532427166912
H            3.92807550687730        1.39993674482037        1.02346239545734
H            3.92509803020698        1.53884122862893       -0.72591144611991
H            2.58954332665699        2.22730367030834        0.24483918409338
H            3.77324585910437       -1.65988383764822        0.07546205175610
H           -1.53829235196286        2.89956591829950       -0.02800915338152
H           -2.78295305097972        1.88274032668396       -0.93275725036733
H           -2.78946812077432        1.84625190254607        0.82494473532315
H           -2.08098183466271       -3.22845086591038        0.82789857104801
H           -2.06620711080813       -3.20989240398258       -0.97143212449204
H           -2.93360121480851       -2.02147184507857       -0.06258886004833
H            1.60027922361307       -2.96991866712819        0.03205444242235
25
 energy: 49.369120320645 xtb: 6.6.1 (8d0f1dd)
C            3.25477629739750        1.39311782473449        0.14895341635340
N            2.46358573979332        0.15397027231130        0.03465488774044
C            2.82178830056440       -1.20096724653617        0.03270301413468
N            1.66856025291120       -1.96523237683654        0.01491751318893
C            0.53097640007685       -1.21757292258530       -0.02971107859961
C            1.04546646260585        0.12535549775556       -0.03353367140060
C            0.24399304419386        1.28415945491054       -0.07480807254426
O            0.56309396167691        2.48218715879923       -0.09191346690121
N           -1.12083521092878        0.91450654787691       -0.07500816587938
C           -2.13097592725769        1.95766342024261       -0.04990480643221
C           -1.66818508162582       -0.31133201608910       -0.07862161221150
O           -2.90071270685798       -0.28682704369278       -0.08206605800324
N           -0.91963292896393       -1.53786224919169       -0.07407634868411
C           -2.13756317257898       -2.64052610430767       -0.06647575954792
H            3.92447966286987        1.43472460268369        1.01813440647306
H            3.87129757850226        1.62239535408234       -0.73562470534041
H            2.55799364186071        2.23430837677764        0.30927857024008
H            3.80979453765756       -1.62146973165639        0.08028046286165
H           -1.52543818345986        2.86907895624543       -0.02793617032045
H           -2.77535736865537        1.84527115776463       -0.92944226321067
H           -2.77758981587686        1.80458066813470        0.82369398655708
H           -2.22909781329497       -3.24008258414122        0.82668912150104
H           -2.21949801606716       -3.23111569958329       -0.96632055795468
H           -2.98549440646953       -1.96818948915713       -0.05980988596415
H            1.66108476391604       -2.97298867011333        0.03415010443339
25
 energy: 65.919939338835 xtb: 6.6.1 (8d0f1dd)
C            3.26069649885233        1.43155981240288        0.15970308576970
N            2.50274945658622        0.16816870457554        0.03294293429190
C            2.86640193177864       -1.14825821555159        0.03626024198538
N            1.73672179862452       -1.93952007803685        0.01070677844822
C            0.59561116514624       -1.16168880363704       -0.04570755846796
C            1.11495116378400        0.15518955935938       -0.05752985459180
C            0.26168481573645        1.30835448993375       -0.09122338512755
O            0.60217150028459        2.49007894479800       -0.10309124265352
N           -1.06420461042790        0.93029646401653       -0.08054397471347
C           -2.12109381514108        1.92895144397353       -0.04992331760072
C           -1.57505218889732       -0.35541376848620       -0.08498676675628
O           -2.80446550973298       -0.31202336609034       -0.08416413683249
N           -0.73190905783646       -1.47712023384229       -0.08222652552563
C           -2.56267334604116       -2.83943389792979       -0.06474567071890
H            3.97338509681657        1.45470364036533        0.99043860978982
H            3.81176352522837        1.70128955301086       -0.75123819954588
H            2.54562290243349        2.24679837181814        0.38331127996966
H            3.85722786984789       -1.56531364718854        0.08549552518092
H           -1.55187447193089        2.85884186662266       -0.02588246915542
H           -2.76887092808824        1.79848195774372       -0.92602131414157
H           -2.76620485410222        1.75163644524091        0.82188168540136
H           -2.45676855671681       -3.32657713121101        0.86066348197339
H           -2.43405708202763       -3.31834600560851       -0.99087152123357
H           -3.06090966447032       -1.91140640986511       -0.06018761910938
H            1.71750249509867       -2.95138945526433        0.03399251027070
25
 energy: 64.539770661762 xtb: 6.6.1 (8d0f1dd)
C            3.26011119140285        1.45934426868664        0.16434712869921
N            2.52173467692527        0.18859380440761        0.02332840182656
C            2.89749444708950       -1.11619422791978        0.03487028639550
N            1.78634391295716       -1.92620769404113        0.01329832209319
C            0.63477850779201       -1.15707299294453       -0.05436511348931
C            1.14107346550179        0.16390235249246       -0.07468251315074
C            0.26711188887770        1.30628380168668       -0.11589731193117
O            0.61094533994739        2.48511111759406       -0.13630372011746
N           -1.04636954132850        0.91844893065808       -0.08991009966368
C           -2.11980605418685        1.89759552078556       -0.04984179368275
C           -1.54100105120836       -0.38892636105423       -0.08602706608046
O           -2.76713590157601       -0.36259942622367       -0.07607855590381
N           -0.67705628711387       -1.48935931611031       -0.08384683324471
C           -2.73715449031136       -2.90026814934969       -0.06892267996714
H            4.01842432435514        1.43730470457294        0.95104581975804
H            3.75255881994424        1.77981871977188       -0.76555720338029
H            2.55016021315543        2.25209766047439        0.46163272585957
H            3.89565144911563       -1.52359971153270        0.09736728806553
H           -1.58716442011239        2.84734139733072       -0.02261954087901
H           -2.77200686534600        1.75612369062075       -0.92182103888076
H           -2.76163473931324        1.70178915455567        0.82148997635746
H           -2.61633338031547       -3.37795511343650        0.85725113481155
H           -2.59073263586720       -3.37425448580363       -0.99168736021205
H           -3.16212904387555       -1.93881915846623       -0.06898134866988
H            1.77858659717828       -2.94076858746886        0.04310992277932
25
 energy: 63.228756569597 xtb: 6.6.1 (8d0f1dd)
C            3.26077776348691        1.49185308196234        0.17294094257385
N            2.54376395063172        0.21292645609858        0.01940907079450
C            2.92908855219899       -1.08403543300997        0.04003614990075
N            1.83202502893846       -1.90923686239024        0.01901994815514
C            0.67285238793266       -1.14849848035641       -0.05737087868243
C            1.16945355688003        0.17484087734973       -0.08397819947466
C            0.28450957192821        1.30325034780948       -0.13370640364740
O            0.61809108514086        2.48199083099602       -0.17233585552722
N           -1.02332543213448        0.90874349479126       -0.10382371484650
C           -2.10990138357136        1.87602814652240       -0.05130736729024
C           -1.50724634651246       -0.40586398646360       -0.09113937452283
O           -2.73190611875913       -0.38224774999981       -0.07409406335758
N           -0.62911334218989       -1.49468896522615       -0.08342476712788
C           -2.88824896845988       -2.94258778370802       -0.07275596494857
H            4.06519989704226        1.44873425098108        0.91189981250804
H            3.69306459408585        1.85873594521596       -0.77116366343514
H            2.55918707303796        2.25844218644327        0.54056115340407
H            3.92677387333259       -1.47848036221935        0.11784523756313
H           -1.61724113187546        2.84435705119149       -0.01928770291738
H           -2.76984670698305        1.71965495648809       -0.91679010549820
H           -2.75020971297873        1.65677751286953        0.81888275291575
H           -2.77987418820226       -3.42463907018795        0.85267606409534
H           -2.74838327482054       -3.43651447265057       -0.98552994273236
H           -3.25509944131777       -1.95519418334219       -0.08109132636777
H            1.83637404408275       -2.92579189689767        0.05994373238753
25
 energy: 60.924583186114 xtb: 6.6.1 (8d0f1dd)
C            3.26633861489301        1.52068031447184        0.18133049904631
N            2.56545041570870        0.23766100336958        0.01814716879948
C            2.96021316345888       -1.05114498874963        0.04607981040763
N            1.87743766099147       -1.89167589373508        0.02412520651625
C            0.71184865268862       -1.13917323224762       -0.05756340072574
C            1.19690153267484        0.18611471154925       -0.08983947680403
C            0.30358323483841        1.30127829540027       -0.15272946541163
O            0.63880398130913        2.47827984386111       -0.20420920973941
N           -1.00039398655046        0.89923726640926       -0.11901888302834
C           -2.09478020750970        1.86104290195671       -0.05171052833773
C           -1.47383323056691       -0.42484305485873       -0.08533730279320
O           -2.69473102954379       -0.41130230833077       -0.04470263568581
N           -0.58156756858265       -1.49939780840934       -0.07689536923147
C           -3.02549374528065       -2.98764632718278       -0.07872289183314
H            4.11122159643305        1.44542871010883        0.86583337239586
H            3.62482106520758        1.92880071172128       -0.77219396323877
H            2.58379142816192        2.26406792415642        0.61708239363121
H            3.96252117507509       -1.43248620690437        0.13035960166689
H           -1.64307411225245        2.84634226024767       -0.01444001724628
H           -2.75579556379314        1.69529463497052       -0.91213125700545
H           -2.73153567855977        1.61707543500782        0.81719787005555
H           -2.94049209452461       -3.47763496181184        0.84562428430310
H           -2.90560684743092       -3.49951981687006       -0.98484372550068
H           -3.34637703908679       -1.98265735730863       -0.09249305932142
H            1.89392388094495       -2.90921553966264        0.07478388046882
25
 energy: 57.783912482725 xtb: 6.6.1 (8d0f1dd)
C            3.28571077268009        1.55038186427986        0.17942535508519
N            2.58982229991021        0.26645194487166        0.01622979555285
C            2.99141921915790       -1.01582302965083        0.05150263776386
N            1.92268494704960       -1.87035056129660        0.02724626732724
C            0.75225291132856       -1.12496943504607       -0.05595556937699
C            1.22502170545249        0.20381074858030       -0.09241960570334
C            0.32341740822284        1.30733672639989       -0.17083447007355
O            0.65486646635674        2.48302925175016       -0.24605157239891
N           -0.97639913019365        0.89289287260353       -0.12569749736946
C           -2.07650005949821        1.85025703547341       -0.05071932865436
C           -1.43685878813028       -0.43955095304832       -0.07864291686073
O           -2.65345605232792       -0.44753222002796       -0.02482854733184
N           -0.53183944376937       -1.50022993951424       -0.07128109469096
C           -3.15543174817932       -3.03801263296080       -0.08415691322945
H            4.16181753300385        1.45364572122092        0.81616396159315
H            3.57070159959730        2.00057528562197       -0.77686909326126
H            2.63287283010413        2.27823239433953        0.67086086617542
H            3.99372751763311       -1.38283942379809        0.14285131035456
H           -1.66955643701757        2.85744099430009       -0.00927272857588
H           -2.73667631762682        1.70406806682601       -0.91054576800985
H           -2.70243774085640        1.60132151894984        0.82109389830133
H           -3.09915641892940       -3.53688382774316        0.83869337401042
H           -3.06174306379288       -3.56757313060359       -0.98427992429452
H           -3.43656539595686       -2.01932068130651       -0.10281611464965
H            1.95244101015049       -2.88909405109541        0.08171659255062
25
 energy: 55.130003443156 xtb: 6.6.1 (8d0f1dd)
C            3.31176776750531        1.58340495356055        0.17282265746397
N            2.61646942114015        0.29877716597471        0.01500114255282
C            3.02536078617270       -0.97862445433124        0.05744390272178
N            1.96809341733999       -1.84436461676156        0.02935257436018
C            0.79332520372789       -1.10596440204689       -0.05357372516878
C            1.25376059974105        0.22724127966480       -0.09137435272105
C            0.34372148697596        1.32290870013667       -0.17065506632781
O            0.67477658689088        2.49776255056224       -0.25450690543922
N           -0.95207221471402        0.88768157653279       -0.12350692595316
C           -2.05607087481268        1.84108939047480       -0.05229920923267
C           -1.39917331758865       -0.45181988049875       -0.07075304172114
O           -2.61187999664737       -0.48445540994589       -0.01152032299467
N           -0.48091627047122       -1.49827518396066       -0.06703632182738
C           -3.27285730593400       -3.09635317501563       -0.08875474883747
H            4.20897822487036        1.47339193601065        0.77248546200856
H            3.54009462298638        2.07578628466285       -0.77533249078813
H            2.68813008987930        2.31096125980110        0.69073679148976
H            4.02856229067917       -1.33422490620335        0.15192485302040
H           -1.68382571852784        2.86527905964344       -0.01581331330940
H           -2.71247475078710        1.68042119544733       -0.90984777400242
H           -2.67196541165454        1.61336579799373        0.82771147792416
H           -3.25373662218340       -3.60247404679771        0.83313262248136
H           -3.21407960442773       -3.64010718286587       -0.98503991549680
H           -3.52299904308019       -2.06551652199702       -0.11132137941489
H            2.00694625392427       -2.86313472626754        0.09107822691836
25
 energy: 52.565990419913 xtb: 6.6.1 (8d0f1dd)
C            3.34275891934487        1.61981917113213        0.15821892783078
N            2.64740402611915        0.33234480846601        0.00928924381840
C            3.06203320180904       -0.94134110196368        0.06145689039180
N            2.01420225850057       -1.81585214542825        0.03164528892981
C            0.83556190343240       -1.08392862971291       -0.05027300846189
C            1.28532360521968        0.25385188997171       -0.09045585862187
C            0.36498180323692        1.34095435532034       -0.15949088342228
O            0.68529015460351        2.52098868056738       -0.22880758369402
N           -0.92308449038240        0.88066700030814       -0.12689685387231
C           -2.02813605317794        1.82919568693816       -0.05188440884150
C           -1.36036285282218       -0.46437142135741       -0.06735786823647
O           -2.56955909213110       -0.52382771262766       -0.00622856298421
N           -0.42880188535484       -1.49473601737119       -0.06151980266243
C           -3.38221771814801       -3.16389677542822       -0.09348781612457
H            4.24284342844818        1.50698847143325        0.75032535491144
H            3.58660144419132        2.13676017906685       -0.77579169032265
H            2.70688620504043        2.35059200039169        0.65383721747841
H            4.06760331975087       -1.28750424231436        0.15476573965954
H           -1.65217117778895        2.85212169988215       -0.01407302789919
H           -2.68126030267255        1.68605282916758       -0.91294307846908
H           -2.63696418902630        1.59219210743883        0.82962375413112
H           -3.40451261147581       -3.67366274976828        0.82815431904373
H           -3.36276883891385       -3.71655687515835       -0.98838987383897
H           -3.60735604120895       -2.12176301617657       -0.11858535345686
H            2.06045373271496       -2.83402287924482        0.10186124224305
25