      -----------------------------------------------------------      
     |                   =====================                   |     
     |                           x T B                           |     
     |                   =====================                   |     
     |                         S. Grimme                         |     
     |          Mulliken Center for Theoretical Chemistry        |     
     |                    University of Bonn                     |     
      -----------------------------------------------------------      

   * xtb version 6.6.1 (8d0f1dd) compiled by 'conda@1efc2f54142f' on 2023-08-01

   xtb is free software: you can redistribute it and/or modify it under
   the terms of the GNU Lesser General Public License as published by
   the Free Software Foundation, either version 3 of the License, or
   (at your option) any later version.
   
   xtb is distributed in the hope that it will be useful,
   but WITHOUT ANY WARRANTY; without even the implied warranty of
   MERCHANTABILITY or FITNESS FOR A PARTICULAR PURPOSE.  See the
   GNU Lesser General Public License for more details.
   
   Cite this work as:
   * C. Bannwarth, E. Caldeweyher, S. Ehlert, A. Hansen, P. Pracht,
     J. Seibert, S. Spicher, S. Grimme, WIREs Comput. Mol. Sci., 2020, 11,
     e01493. DOI: 10.1002/wcms.1493
   
   for GFN2-xTB:
   * C. Bannwarth, S. Ehlert and S. Grimme., J. Chem. Theory Comput., 2019,
     15, 1652-1671. DOI: 10.1021/acs.jctc.8b01176
   for GFN1-xTB:
   * S. Grimme, C. Bannwarth, P. Shushkov, J. Chem. Theory Comput., 2017,
     13, 1989-2009. DOI: 10.1021/acs.jctc.7b00118
   for GFN0-xTB:
   * P. Pracht, E. Caldeweyher, S. Ehlert, S. Grimme, ChemRxiv, 2019, preprint.
     DOI: 10.26434/chemrxiv.8326202.v1
   for GFN-FF:
   * S. Spicher and S. Grimme, Angew. Chem. Int. Ed., 2020, 59, 15665-15673.
     DOI: 10.1002/anie.202004239
   
   for ALPB and GBSA implicit solvation:
   * S. Ehlert, M. Stahn, S. Spicher, S. Grimme, J. Chem. Theory Comput.,
     2021, 17, 4250-4261. DOI: 10.1021/acs.jctc.1c00471
   
   for DFT-D4:
   * E. Caldeweyher, C. Bannwarth and S. Grimme, J. Chem. Phys., 2017,
     147, 034112. DOI: 10.1063/1.4993215
   * E. Caldeweyher, S. Ehlert, A. Hansen, H. Neugebauer, S. Spicher,
     C. Bannwarth and S. Grimme, J. Chem. Phys., 2019, 150, 154122.
     DOI: 10.1063/1.5090222
   * E. Caldeweyher, J.-M. Mewes, S. Ehlert and S. Grimme, Phys. Chem. Chem. Phys.
     2020, 22, 8499-8512. DOI: 10.1039/D0CP00502A
   
   for sTDA-xTB:
   * S. Grimme and C. Bannwarth, J. Chem. Phys., 2016, 145, 054103.
     DOI: 10.1063/1.4959605
   
   in the mass-spec context:
   * V. Asgeirsson, C. Bauer and S. Grimme, Chem. Sci., 2017, 8, 4879.
     DOI: 10.1039/c7sc00601b
   * J. Koopman and S. Grimme, ACS Omega 2019, 4, 12, 15120-15133.
     DOI: 10.1021/acsomega.9b02011
   
   for metadynamics refer to:
   * S. Grimme, J. Chem. Theory Comput., 2019, 155, 2847-2862
     DOI: 10.1021/acs.jctc.9b00143
   
   for SPH calculations refer to:
   * S. Spicher and S. Grimme, J. Chem. Theory Comput., 2021, 17, 1701-1714
     DOI: 10.1021/acs.jctc.0c01306
   
   with help from (in alphabetical order)
   P. Atkinson, C. Bannwarth, F. Bohle, G. Brandenburg, E. Caldeweyher
   M. Checinski, S. Dohm, S. Ehlert, S. Ehrlich, I. Gerasimov, C. Hölzer
   A. Katbashev, J. Koopman, C. Lavigne, S. Lehtola, F. März, M. Müller,
   F. Musil, H. Neugebauer, J. Pisarek, C. Plett, P. Pracht, F. Pultar,
   J. Seibert, P. Shushkov, S. Spicher, M. Stahn, M. Steiner, T. Strunk,
   J. Stückrath, T. Rose, and J. Unsleber
   
 * started run on 2024/06/05 at 19:59:21.586     

           -------------------------------------------------
          |                Calculation Setup                |
           -------------------------------------------------

          program call               : xtb struc.xyz --opt loose --input .xc1 --gfn2
          hostname                   : n-62-31-11
          coordinate file            : struc.xyz
          omp threads                :                     1

   ID    Z sym.   atoms
    1    6 C      1, 3, 5-7, 10, 11, 14
    2    7 N      2, 4, 9, 13
    3    8 O      8, 12
    4    1 H      15-25
constraining bond 3 16 to    3.7133300 Å, actual value:    2.7548643 Å

           -------------------------------------------------
          |                 G F N 2 - x T B                 |
           -------------------------------------------------

        Reference                      10.1021/acs.jctc.8b01176
      * Hamiltonian:
        H0-scaling (s, p, d)           1.850000    2.230000    2.230000
        zeta-weighting                 0.500000
      * Dispersion:
        s8                             2.700000
        a1                             0.520000
        a2                             5.000000
        s9                             5.000000
      * Repulsion:
        kExp                           1.500000    1.000000
        rExp                           1.000000
      * Coulomb:
        alpha                          2.000000
        third order                    shell-resolved
        anisotropic                    true
        a3                             3.000000
        a5                             4.000000
        cn-shift                       1.200000
        cn-exp                         4.000000
        max-rad                        5.000000


          ...................................................
          :                      SETUP                      :
          :.................................................:
          :  # basis functions                  67          :
          :  # atomic orbitals                  67          :
          :  # shells                           39          :
          :  # electrons                        74          :
          :  max. iterations                   250          :
          :  Hamiltonian                  GFN2-xTB          :
          :  restarted?                      false          :
          :  GBSA solvation                  false          :
          :  PC potential                    false          :
          :  electronic temp.         5000.0000000     K    :
          :  accuracy                    1.0000000          :
          :  -> integral cutoff          0.2500000E+02      :
          :  -> integral neglect         0.1000000E-07      :
          :  -> SCF convergence          0.1000000E-05 Eh   :
          :  -> wf. convergence          0.1000000E-03 e    :
          :  Broyden damping             0.4000000          :
          ...................................................

 iter      E             dE          RMSdq      gap      omega  full diag
   1    -42.5894031 -0.425894E+02  0.445E+00    3.52       0.0  T
   2    -42.7683054 -0.178902E+00  0.251E+00    3.36       1.0  T
   3    -42.7759211 -0.761567E-02  0.147E+00    3.35       1.0  T
   4    -42.7728404  0.308066E-02  0.553E-01    3.33       1.0  T
   5    -42.7789548 -0.611444E-02  0.112E-01    3.35       1.0  T
   6    -42.7790473 -0.924914E-04  0.614E-02    3.33       1.0  T
   7    -42.7790721 -0.247928E-04  0.258E-02    3.34       1.0  T
   8    -42.7790772 -0.508996E-05  0.938E-03    3.34       2.1  T
   9    -42.7790779 -0.669422E-06  0.448E-03    3.34       4.5  T
  10    -42.7790780 -0.821510E-07  0.115E-03    3.34      17.4  T
  11    -42.7790780 -0.322663E-08  0.553E-04    3.34      36.2  T
  12    -42.7790780 -0.287051E-08  0.180E-04    3.34     111.1  T

   *** convergence criteria satisfied after 12 iterations ***

         #    Occupation            Energy/Eh            Energy/eV
      -------------------------------------------------------------
         1        2.0000           -0.9185990             -24.9964
       ...           ...                  ...                  ...
        31        1.9996           -0.6230278             -16.9534
        32        1.9995           -0.6194601             -16.8564
        33        1.9979           -0.5974976             -16.2587
        34        1.9932           -0.5789629             -15.7544
        35        1.9817           -0.5631863             -15.3251
        36        1.9779           -0.5602245             -15.2445
        37        1.9748           -0.5581234             -15.1873 (HOMO)
        38        0.0652           -0.4353579             -11.8467 (LUMO)
        39        0.0099           -0.4050467             -11.0219
        40        0.0013           -0.3732218             -10.1559
        41        0.0000           -0.2886859              -7.8555
        42                         -0.2065804              -5.6213
       ...                                ...                  ...
        67                          0.5625656              15.3082
      -------------------------------------------------------------
                  HL-Gap            0.1227656 Eh            3.3406 eV
             Fermi-level           -0.4890455 Eh          -13.3076 eV

 SCC (total)                   0 d,  0 h,  0 min,  0.036 sec
 SCC setup                      ...        0 min,  0.000 sec (  0.643%)
 Dispersion                     ...        0 min,  0.000 sec (  0.779%)
 classical contributions        ...        0 min,  0.000 sec (  0.209%)
 integral evaluation            ...        0 min,  0.005 sec ( 13.600%)
 iterations                     ...        0 min,  0.017 sec ( 46.879%)
 molecular gradient             ...        0 min,  0.014 sec ( 37.444%)
 printout                       ...        0 min,  0.000 sec (  0.416%)

         :::::::::::::::::::::::::::::::::::::::::::::::::::::
         ::                     SUMMARY                     ::
         :::::::::::::::::::::::::::::::::::::::::::::::::::::
         :: total energy             -43.888149110200 Eh    ::
         :: gradient norm              2.560657438115 Eh/a0 ::
         :: HOMO-LUMO gap              3.340621582928 eV    ::
         ::.................................................::
         :: SCC energy               -42.779077977399 Eh    ::
         :: -> isotropic ES            0.141123876439 Eh    ::
         :: -> anisotropic ES         -0.005230418907 Eh    ::
         :: -> anisotropic XC          0.011966818540 Eh    ::
         :: -> dispersion             -0.022657731803 Eh    ::
         :: repulsion energy           0.531105277918 Eh    ::
         :: add. restraining          -1.640290569729 Eh    ::
         :: total charge               1.000000000002 e     ::
         :::::::::::::::::::::::::::::::::::::::::::::::::::::

      ----------------------------------------------------------- 
     |                   =====================                   |
     |                        A N C O P T                        |
     |                   =====================                   |
     |               Approximate Normal Coordinate               |
     |                Rational Function Optimizer                |
      ----------------------------------------------------------- 

          ...................................................
          :                      SETUP                      :
          :.................................................:
          :   optimization level             loose          :
          :   max. optcycles                   200          :
          :   ANC micro-cycles                  20          :
          :   degrees of freedom                69          :
          :.................................................:
          :   RF solver                   davidson          :
          :   write xtbopt.log                true          :
          :   linear?                        false          :
          :   energy convergence         0.5000000E-04 Eh   :
          :   grad. convergence          0.4000000E-02 Eh/α :
          :   maxmium RF displ.          1.0000000          :
          :   Hlow (freq-cutoff)         0.1000000E-01      :
          :   Hmax (freq-cutoff)         5.0000000          :
          :   S6 in model hess.         20.0000000          :
          ...................................................

generating ANC from model Hessian ...
Using Lindh-Hessian (1995)
 Shifting diagonal of input Hessian by    1.5707592689403072     
 Lowest  eigenvalues of input Hessian
    0.010000    0.000000    0.000000    0.000000    0.000000    0.000000
    0.000000    1.575081    1.576340    1.578679    1.580777    1.582040
    1.583697    1.586025    1.589964    1.595192    1.605221    1.611927
 Highest eigenvalues
    3.618912    3.700637    3.827701    3.931380    3.982595    4.112717


........................................................................
.............................. CYCLE    1 ..............................
........................................................................

 iter      E             dE          RMSdq      gap      omega  full diag
   1    -42.7790780 -0.427791E+02  0.626E-05    3.34       0.0  T
   2    -42.7790780 -0.124416E-10  0.329E-05    3.34     607.4  T
   3    -42.7790780  0.127898E-12  0.193E-05    3.34    1034.2  T
     SCC iter.                  ...        0 min,  0.005 sec
     gradient                   ...        0 min,  0.014 sec
 * total energy  :   -43.8881491 Eh     change       -0.6650680E-10 Eh
   gradient norm :     2.5606572 Eh/α   predicted     0.0000000E+00 (-100.00%)
   displ. norm   :     0.9888293 α      lambda       -0.2504703E+01
   maximum displ.:     0.9809688 α      in ANC's #1, #64, #62, ...

........................................................................
.............................. CYCLE    2 ..............................
........................................................................

 iter      E             dE          RMSdq      gap      omega  full diag
   1    -42.7208340 -0.427208E+02  0.131E+00    3.73       0.0  T
   2    -42.7350215 -0.141875E-01  0.702E-01    3.47       1.0  T
   3    -42.7363804 -0.135894E-02  0.397E-01    3.63       1.0  T
   4    -42.7364492 -0.688138E-04  0.185E-01    3.47       1.0  T
   5    -42.7370701 -0.620880E-03  0.290E-02    3.55       1.0  T
   6    -42.7370784 -0.828490E-05  0.130E-02    3.54       1.5  T
   7    -42.7370789 -0.476242E-06  0.496E-03    3.54       4.0  T
   8    -42.7370791 -0.236167E-06  0.129E-03    3.54      15.5  T
   9    -42.7370791 -0.737959E-08  0.599E-04    3.54      33.4  T
  10    -42.7370791 -0.218677E-08  0.189E-04    3.54     105.8  T
     SCC iter.                  ...        0 min,  0.014 sec
     gradient                   ...        0 min,  0.014 sec
 * total energy  :   -47.2467150 Eh     change       -0.3358566E+01 Eh
   gradient norm :     4.2985140 Eh/α   predicted    -0.2476880E+01 ( -26.25%)
   displ. norm   :     0.9928193 α      lambda       -0.4249153E+01
   maximum displ.:     0.9842654 α      in ANC's #1, #64, #62, ...

........................................................................
.............................. CYCLE    3 ..............................
........................................................................

 iter      E             dE          RMSdq      gap      omega  full diag
   1    -42.5386677 -0.425387E+02  0.120E+00    2.99       0.0  T
   2    -42.5505778 -0.119101E-01  0.103E+00    2.93       1.0  T
   3    -42.5647325 -0.141547E-01  0.436E-01    3.09       1.0  T
   4    -42.5632467  0.148585E-02  0.310E-01    2.88       1.0  T
   5    -42.5653604 -0.211369E-02  0.716E-02    3.02       1.0  T
   6    -42.5654435 -0.831113E-04  0.220E-02    3.00       1.0  T
   7    -42.5654466 -0.310752E-05  0.887E-03    3.00       2.3  T
   8    -42.5654476 -0.106855E-05  0.239E-03    3.01       8.4  T
   9    -42.5654477 -0.194085E-07  0.825E-04    3.01      24.2  T
  10    -42.5654477 -0.445281E-08  0.306E-04    3.01      65.4  T
     SCC iter.                  ...        0 min,  0.013 sec
     gradient                   ...        0 min,  0.014 sec
 * total energy  :   -52.4173028 Eh     change       -0.5170588E+01 Eh
   gradient norm :     6.2213156 Eh/α   predicted    -0.4218811E+01 ( -18.41%)
   displ. norm   :     0.9920392 α      lambda       -0.6149395E+01
   maximum displ.:     0.9777573 α      in ANC's #1, #64, #62, ...

........................................................................
.............................. CYCLE    4 ..............................
........................................................................

 iter      E             dE          RMSdq      gap      omega  full diag
   1    -42.3941302 -0.423941E+02  0.229E+00    1.38       0.0  T
   2    -42.3621223  0.320079E-01  0.197E+00    1.28       1.0  T
   3    -42.4754233 -0.113301E+00  0.785E-01    1.72       1.0  T
   4    -42.4762269 -0.803558E-03  0.641E-01    1.37       1.0  T
   5    -42.4846522 -0.842528E-02  0.124E-01    1.58       1.0  T
   6    -42.4849406 -0.288434E-03  0.727E-02    1.54       1.0  T
   7    -42.4850679 -0.127245E-03  0.204E-02    1.56       1.0  T
   8    -42.4850684 -0.541498E-06  0.786E-03    1.56       2.5  T
   9    -42.4850691 -0.660182E-06  0.276E-03    1.56       7.2  T
  10    -42.4850692 -0.999133E-07  0.117E-03    1.56      17.0  T
  11    -42.4850692 -0.260522E-07  0.519E-04    1.56      38.5  T
  12    -42.4850692 -0.163568E-08  0.175E-04    1.56     114.0  T
     SCC iter.                  ...        0 min,  0.016 sec
     gradient                   ...        0 min,  0.013 sec
 * total energy  :   -58.9498017 Eh     change       -0.6532499E+01 Eh
   gradient norm :     4.7492865 Eh/α   predicted    -0.6100690E+01 (  -6.61%)
   displ. norm   :     0.8607883 α      lambda       -0.4083998E+01
   maximum displ.:     0.8157708 α      in ANC's #1, #64, #62, ...

........................................................................
.............................. CYCLE    5 ..............................
........................................................................

 iter      E             dE          RMSdq      gap      omega  full diag
   1    -42.4550772 -0.424551E+02  0.145E+00    1.45       0.0  T
   2    -42.4500608  0.501637E-02  0.993E-01    1.47       1.0  T
   3    -42.4686374 -0.185766E-01  0.665E-01    1.48       1.0  T
   4    -42.4760553 -0.741791E-02  0.196E-01    1.48       1.0  T
   5    -42.4763752 -0.319880E-03  0.524E-02    1.48       1.0  T
   6    -42.4764390 -0.637655E-04  0.243E-02    1.48       1.0  T
   7    -42.4764471 -0.813291E-05  0.122E-02    1.48       1.6  T
   8    -42.4764489 -0.179347E-05  0.237E-03    1.48       8.4  T
   9    -42.4764490 -0.798261E-07  0.113E-03    1.48      17.8  T
  10    -42.4764490 -0.115368E-07  0.433E-04    1.48      46.1  T
  11    -42.4764490 -0.975504E-10  0.161E-04    1.48     123.8  T
     SCC iter.                  ...        0 min,  0.015 sec
     gradient                   ...        0 min,  0.014 sec
 * total energy  :   -38.3852116 Eh     change        0.2056459E+02 Eh
   gradient norm :   273.6289503 Eh/α   predicted    -0.3555036E+01 (-117.29%)
   displ. norm   :     0.9971046 α      lambda       -0.2711911E+03
   maximum displ.:     0.9223130 α      in ANC's #1, #62, #64, ...

........................................................................
.............................. CYCLE    6 ..............................
........................................................................

 iter      E             dE          RMSdq      gap      omega  full diag
   1    -42.2882815 -0.422883E+02  0.240E+00    0.60       0.0  T
   2    -42.0823326  0.205949E+00  0.284E+00    1.13       1.0  T
   3    -42.3536218 -0.271289E+00  0.127E+00    0.71       1.0  T
   4    -42.3930296 -0.394078E-01  0.444E-01    0.70       1.0  T
   5    -42.3932597 -0.230104E-03  0.237E-01    0.72       1.0  T
   6    -42.3948025 -0.154276E-02  0.736E-02    0.74       1.0  T
   7    -42.3949123 -0.109836E-03  0.260E-02    0.73       1.0  T
   8    -42.3949216 -0.929673E-05  0.110E-02    0.73       1.8  T
   9    -42.3949223 -0.662949E-06  0.323E-03    0.73       6.2  T
  10    -42.3949224 -0.120288E-06  0.157E-03    0.73      12.8  T
  11    -42.3949224 -0.245373E-07  0.462E-04    0.73      43.3  T
  12    -42.3949225 -0.549529E-08  0.205E-04    0.73      97.4  T
     SCC iter.                  ...        0 min,  0.016 sec
     gradient                   ...        0 min,  0.014 sec
 * total energy  :   -56.6012428 Eh     change       -0.1821603E+02 Eh
   gradient norm :     7.1963489 Eh/α   predicted    -0.2720475E+03 (1393.45%)
   displ. norm   :     0.1419162 α      lambda       -0.2218948E+00
   maximum displ.:     0.0526745 α      in ANC's #50, #51, #57, ...

........................................................................
.............................. CYCLE    7 ..............................
........................................................................

 iter      E             dE          RMSdq      gap      omega  full diag
   1    -42.3985208 -0.423985E+02  0.402E-01    0.94       0.0  T
   2    -42.3809614  0.175594E-01  0.773E-01    0.76       1.0  T
   3    -42.4027373 -0.217759E-01  0.120E-01    0.86       1.0  T
   4    -42.4028357 -0.984035E-04  0.628E-02    0.84       1.0  T
   5    -42.4028679 -0.322177E-04  0.376E-02    0.84       1.0  T
   6    -42.4028925 -0.246106E-04  0.153E-02    0.84       1.3  T
   7    -42.4028973 -0.481866E-05  0.676E-03    0.84       3.0  T
   8    -42.4028981 -0.755409E-06  0.179E-03    0.84      11.2  T
   9    -42.4028982 -0.585799E-07  0.724E-04    0.84      27.6  T
  10    -42.4028982 -0.774237E-08  0.242E-04    0.84      82.7  T
     SCC iter.                  ...        0 min,  0.014 sec
     gradient                   ...        0 min,  0.014 sec
 * total energy  :   -56.8136209 Eh     change       -0.2123781E+00 Eh
   gradient norm :     7.1486889 Eh/α   predicted    -0.1131801E+00 ( -46.71%)
   displ. norm   :     0.5990228 α      lambda       -0.1930639E+01
   maximum displ.:     0.2115355 α      in ANC's #50, #1, #51, ...

........................................................................
.............................. CYCLE    8 ..............................
........................................................................

 iter      E             dE          RMSdq      gap      omega  full diag
   1    -42.4032101 -0.424032E+02  0.134E+00    1.37       0.0  T
   2    -42.2926010  0.110609E+00  0.194E+00    1.00       1.0  T
   3    -42.4363479 -0.143747E+00  0.609E-01    1.46       1.0  T
   4    -42.4407680 -0.442009E-02  0.270E-01    1.29       1.0  T
   5    -42.4424276 -0.165964E-02  0.717E-02    1.30       1.0  T
   6    -42.4424736 -0.459638E-04  0.349E-02    1.30       1.0  T
   7    -42.4424990 -0.254207E-04  0.159E-02    1.30       1.3  T
   8    -42.4425032 -0.420375E-05  0.505E-03    1.30       4.0  T
   9    -42.4425037 -0.446233E-06  0.201E-03    1.30      10.0  T
  10    -42.4425037 -0.377813E-07  0.104E-03    1.30      19.2  T
  11    -42.4425037 -0.192737E-07  0.470E-04    1.30      42.6  T
  12    -42.4425037 -0.396000E-08  0.754E-05    1.30     265.2  T
     SCC iter.                  ...        0 min,  0.016 sec
     gradient                   ...        0 min,  0.013 sec
 * total energy  :   -58.5365817 Eh     change       -0.1722961E+01 Eh
   gradient norm :     5.9305208 Eh/α   predicted    -0.1311704E+01 ( -23.87%)
   displ. norm   :     0.6167165 α      lambda       -0.2972020E+01
   maximum displ.:     0.3779522 α      in ANC's #1, #50, #43, ...

........................................................................
.............................. CYCLE    9 ..............................
........................................................................

 iter      E             dE          RMSdq      gap      omega  full diag
   1    -42.4616575 -0.424617E+02  0.109E+00    1.43       0.0  T
   2    -42.4348440  0.268134E-01  0.109E+00    1.24       1.0  T
   3    -42.4695670 -0.347230E-01  0.664E-01    1.55       1.0  T
   4    -42.4774831 -0.791613E-02  0.282E-01    1.53       1.0  T
   5    -42.4789818 -0.149872E-02  0.556E-02    1.57       1.0  T
   6    -42.4790652 -0.833507E-04  0.205E-02    1.58       1.0  T
   7    -42.4790728 -0.759804E-05  0.906E-03    1.58       2.2  T
   8    -42.4790729 -0.154464E-06  0.325E-03    1.58       6.1  T
   9    -42.4790732 -0.292333E-06  0.855E-04    1.58      23.4  T
  10    -42.4790732 -0.101844E-07  0.435E-04    1.58      46.0  T
     SCC iter.                  ...        0 min,  0.014 sec
     gradient                   ...        0 min,  0.013 sec
 * total energy  :   -57.8401670 Eh     change        0.6964146E+00 Eh
   gradient norm :    19.7283750 Eh/α   predicted    -0.2051197E+01 (-394.54%)
   displ. norm   :     0.3350998 α      lambda       -0.6279173E+01
   maximum displ.:     0.3073533 α      in ANC's #1, #57, #48, ...

........................................................................
.............................. CYCLE   10 ..............................
........................................................................

 iter      E             dE          RMSdq      gap      omega  full diag
   1    -42.4463291 -0.424463E+02  0.650E-01    1.22       0.0  T
   2    -42.4366308  0.969832E-02  0.637E-01    1.49       1.0  T
   3    -42.4476855 -0.110546E-01  0.429E-01    1.29       1.0  T
   4    -42.4512177 -0.353225E-02  0.154E-01    1.36       1.0  T
   5    -42.4515002 -0.282475E-03  0.684E-02    1.38       1.0  T
   6    -42.4516046 -0.104447E-03  0.232E-02    1.38       1.0  T
   7    -42.4516151 -0.105035E-04  0.102E-02    1.39       2.0  T
   8    -42.4516158 -0.658196E-06  0.399E-03    1.38       5.0  T
   9    -42.4516161 -0.321502E-06  0.829E-04    1.39      24.1  T
  10    -42.4516161  0.395552E-09  0.363E-04    1.39      55.1  T
     SCC iter.                  ...        0 min,  0.014 sec
     gradient                   ...        0 min,  0.014 sec
 * total energy  :   -59.2945184 Eh     change       -0.1454351E+01 Eh
   gradient norm :     3.3988699 Eh/α   predicted    -0.3492150E+01 ( 140.12%)
   displ. norm   :     0.1738040 α      lambda       -0.2303614E+00
   maximum displ.:     0.0848422 α      in ANC's #50, #47, #1, ...

........................................................................
.............................. CYCLE   11 ..............................
........................................................................

 iter      E             dE          RMSdq      gap      omega  full diag
   1    -42.4537593 -0.424538E+02  0.287E-01    1.47       0.0  T
   2    -42.4533776  0.381784E-03  0.220E-01    1.37       1.0  T
   3    -42.4535869 -0.209371E-03  0.197E-01    1.47       1.0  T
   4    -42.4543936 -0.806623E-03  0.677E-02    1.42       1.0  T
   5    -42.4544576 -0.640408E-04  0.410E-02    1.43       1.0  T
   6    -42.4544984 -0.408533E-04  0.121E-02    1.43       1.7  T
   7    -42.4545012 -0.278873E-05  0.410E-03    1.43       4.9  T
   8    -42.4545013 -0.651116E-07  0.168E-03    1.42      11.9  T
   9    -42.4545014 -0.828559E-07  0.362E-04    1.42      55.2  T
  10    -42.4545014 -0.921624E-09  0.186E-04    1.42     107.4  T
     SCC iter.                  ...        0 min,  0.014 sec
     gradient                   ...        0 min,  0.014 sec
 * total energy  :   -59.4438372 Eh     change       -0.1493188E+00 Eh
   gradient norm :     2.1074223 Eh/α   predicted    -0.1186624E+00 ( -20.53%)
   displ. norm   :     0.2579182 α      lambda       -0.1915426E+00
   maximum displ.:     0.1455555 α      in ANC's #64, #62, #67, ...

........................................................................
.............................. CYCLE   12 ..............................
........................................................................

 iter      E             dE          RMSdq      gap      omega  full diag
   1    -42.4649401 -0.424649E+02  0.498E-01    1.60       0.0  T
   2    -42.4647108  0.229358E-03  0.343E-01    1.48       1.0  T
   3    -42.4662751 -0.156434E-02  0.262E-01    1.53       1.0  T
   4    -42.4672637 -0.988558E-03  0.108E-01    1.53       1.0  T
   5    -42.4674782 -0.214510E-03  0.591E-02    1.52       1.0  T
   6    -42.4675757 -0.975089E-04  0.106E-02    1.53       1.9  T
   7    -42.4675770 -0.128182E-05  0.506E-03    1.53       4.0  T
   8    -42.4675773 -0.320714E-06  0.159E-03    1.53      12.6  T
   9    -42.4675774 -0.664822E-07  0.627E-04    1.53      31.9  T
  10    -42.4675774 -0.381078E-08  0.251E-04    1.53      79.8  T
     SCC iter.                  ...        0 min,  0.014 sec
     gradient                   ...        0 min,  0.014 sec
 * total energy  :   -59.5271238 Eh     change       -0.8328663E-01 Eh
   gradient norm :     0.6424407 Eh/α   predicted    -0.1021429E+00 (  22.64%)
   displ. norm   :     0.0920818 α      lambda       -0.2061249E-01
   maximum displ.:     0.0318644 α      in ANC's #1, #48, #47, ...

........................................................................
.............................. CYCLE   13 ..............................
........................................................................

 iter      E             dE          RMSdq      gap      omega  full diag
   1    -42.4769688 -0.424770E+02  0.117E-01    1.59       0.0  T
   2    -42.4770256 -0.568637E-04  0.806E-02    1.54       1.0  T
   3    -42.4771416 -0.116000E-03  0.452E-02    1.57       1.0  T
   4    -42.4771193  0.223562E-04  0.310E-02    1.56       1.0  T
   5    -42.4771545 -0.351933E-04  0.105E-02    1.56       1.9  T
   6    -42.4771578 -0.337972E-05  0.247E-03    1.56       8.1  T
   7    -42.4771579 -0.438193E-07  0.126E-03    1.56      15.8  T
   8    -42.4771579 -0.277051E-07  0.369E-04    1.56      54.2  T
   9    -42.4771579 -0.251148E-08  0.144E-04    1.56     139.1  T
     SCC iter.                  ...        0 min,  0.012 sec
     gradient                   ...        0 min,  0.013 sec
 * total energy  :   -59.5418134 Eh     change       -0.1468963E-01 Eh
   gradient norm :     0.2539249 Eh/α   predicted    -0.1039370E-01 ( -29.24%)
   displ. norm   :     0.1600640 α      lambda       -0.2008370E-01
   maximum displ.:     0.0532963 α      in ANC's #48, #46, #58, ...

........................................................................
.............................. CYCLE   14 ..............................
........................................................................

 iter      E             dE          RMSdq      gap      omega  full diag
   1    -42.4974845 -0.424975E+02  0.219E-01    1.69       0.0  T
   2    -42.4976900 -0.205437E-03  0.159E-01    1.60       1.0  T
   3    -42.4979999 -0.309934E-03  0.931E-02    1.64       1.0  T
   4    -42.4979303  0.695836E-04  0.614E-02    1.64       1.0  T
   5    -42.4980668 -0.136457E-03  0.184E-02    1.63       1.1  T
   6    -42.4980767 -0.990350E-05  0.476E-03    1.63       4.2  T
   7    -42.4980769 -0.188073E-06  0.244E-03    1.63       8.2  T
   8    -42.4980770 -0.105462E-06  0.979E-04    1.63      20.4  T
   9    -42.4980770 -0.109622E-07  0.292E-04    1.63      68.5  T
     SCC iter.                  ...        0 min,  0.012 sec
     gradient                   ...        0 min,  0.014 sec
 * total energy  :   -59.5482453 Eh     change       -0.6431884E-02 Eh
   gradient norm :     1.0964149 Eh/α   predicted    -0.1029987E-01 (  60.14%)
   displ. norm   :     0.0845704 α      lambda       -0.2040456E-01
   maximum displ.:     0.0323456 α      in ANC's #57, #1, #64, ...

........................................................................
.............................. CYCLE   15 ..............................
........................................................................

 iter      E             dE          RMSdq      gap      omega  full diag
   1    -42.5025380 -0.425025E+02  0.133E-01    1.66       0.0  T
   2    -42.5025482 -0.101753E-04  0.846E-02    1.66       1.0  T
   3    -42.5025938 -0.456435E-04  0.604E-02    1.66       1.0  T
   4    -42.5026390 -0.451757E-04  0.322E-02    1.66       1.0  T
   5    -42.5026650 -0.260268E-04  0.566E-03    1.66       3.5  T
   6    -42.5026658 -0.728598E-06  0.180E-03    1.66      11.1  T
   7    -42.5026658 -0.395297E-07  0.974E-04    1.66      20.5  T
   8    -42.5026658 -0.158200E-08  0.513E-04    1.66      39.0  T
     SCC iter.                  ...        0 min,  0.011 sec
     gradient                   ...        0 min,  0.014 sec
 * total energy  :   -59.5635065 Eh     change       -0.1526119E-01 Eh
   gradient norm :     0.5474585 Eh/α   predicted    -0.1027519E-01 ( -32.67%)
   displ. norm   :     0.2551844 α      lambda       -0.3321759E-01
   maximum displ.:     0.0845714 α      in ANC's #29, #27, #11, ...

........................................................................
.............................. CYCLE   16 ..............................
........................................................................

 iter      E             dE          RMSdq      gap      omega  full diag
   1    -42.5310443 -0.425310E+02  0.360E-01    1.79       0.0  T
   2    -42.5312767 -0.232453E-03  0.229E-01    1.70       1.0  T
   3    -42.5312747  0.202944E-05  0.159E-01    1.78       1.0  T
   4    -42.5316530 -0.378286E-03  0.461E-02    1.75       1.0  T
   5    -42.5317085 -0.555396E-04  0.197E-02    1.75       1.0  T
   6    -42.5317190 -0.104911E-04  0.431E-03    1.75       4.6  T
   7    -42.5317191 -0.135496E-06  0.223E-03    1.75       9.0  T
   8    -42.5317192 -0.172086E-07  0.750E-04    1.75      26.7  T
   9    -42.5317192 -0.127709E-07  0.305E-04    1.75      65.6  T
     SCC iter.                  ...        0 min,  0.012 sec
     gradient                   ...        0 min,  0.014 sec
 * total energy  :   -59.5886647 Eh     change       -0.2515822E-01 Eh
   gradient norm :     0.2414974 Eh/α   predicted    -0.1769016E-01 ( -29.68%)
   displ. norm   :     0.3793633 α      lambda       -0.3553783E-01
   maximum displ.:     0.1381907 α      in ANC's #29, #27, #11, ...

........................................................................
.............................. CYCLE   17 ..............................
........................................................................

 iter      E             dE          RMSdq      gap      omega  full diag
   1    -42.5704598 -0.425705E+02  0.429E-01    1.81       0.0  T
   2    -42.5707932 -0.333389E-03  0.263E-01    1.72       1.0  T
   3    -42.5704835  0.309739E-03  0.158E-01    1.84       1.0  T
   4    -42.5709537 -0.470205E-03  0.433E-02    1.75       1.0  T
   5    -42.5709934 -0.397717E-04  0.215E-02    1.77       1.0  T
   6    -42.5710050 -0.116012E-04  0.534E-03    1.76       3.7  T
   7    -42.5710053 -0.254434E-06  0.254E-03    1.77       7.9  T
   8    -42.5710053 -0.323394E-07  0.110E-03    1.76      18.1  T
   9    -42.5710054 -0.189767E-07  0.277E-04    1.77      72.2  T
  10    -42.5710054 -0.410509E-09  0.136E-04    1.77     147.5  T
     SCC iter.                  ...        0 min,  0.013 sec
     gradient                   ...        0 min,  0.013 sec
 * total energy  :   -59.6100988 Eh     change       -0.2143402E-01 Eh
   gradient norm :     0.8194274 Eh/α   predicted    -0.2032588E-01 (  -5.17%)
   displ. norm   :     0.2401950 α      lambda       -0.3101777E-01
   maximum displ.:     0.0947035 α      in ANC's #27, #29, #11, ...

........................................................................
.............................. CYCLE   18 ..............................
........................................................................

 iter      E             dE          RMSdq      gap      omega  full diag
   1    -42.5856988 -0.425857E+02  0.249E-01    1.67       0.0  T
   2    -42.5857644 -0.655221E-04  0.154E-01    1.75       1.0  T
   3    -42.5856354  0.128963E-03  0.118E-01    1.66       1.0  T
   4    -42.5858773 -0.241931E-03  0.310E-02    1.72       1.0  T
   5    -42.5859025 -0.251292E-04  0.741E-03    1.72       2.7  T
   6    -42.5859035 -0.104714E-05  0.312E-03    1.71       6.4  T
   7    -42.5859036 -0.126201E-06  0.120E-03    1.71      16.7  T
   8    -42.5859036 -0.138847E-07  0.518E-04    1.71      38.6  T
   9    -42.5859037 -0.384659E-08  0.129E-04    1.71     155.5  T
     SCC iter.                  ...        0 min,  0.012 sec
     gradient                   ...        0 min,  0.013 sec
 * total energy  :   -59.6344507 Eh     change       -0.2435193E-01 Eh
   gradient norm :     0.3801696 Eh/α   predicted    -0.1640416E-01 ( -32.64%)
   displ. norm   :     0.4215924 α      lambda       -0.3641309E-01
   maximum displ.:     0.1691187 α      in ANC's #27, #29, #23, ...

........................................................................
.............................. CYCLE   19 ..............................
........................................................................

 iter      E             dE          RMSdq      gap      omega  full diag
   1    -42.6056386 -0.426056E+02  0.457E-01    1.50       0.0  T
   2    -42.6060088 -0.370235E-03  0.304E-01    1.73       1.0  T
   3    -42.6064460 -0.437145E-03  0.201E-01    1.54       1.0  T
   4    -42.6067906 -0.344570E-03  0.792E-02    1.64       1.0  T
   5    -42.6069712 -0.180668E-03  0.141E-02    1.62       1.4  T
   6    -42.6069764 -0.514293E-05  0.575E-03    1.62       3.5  T
   7    -42.6069766 -0.230758E-06  0.226E-03    1.62       8.9  T
   8    -42.6069767 -0.759580E-07  0.899E-04    1.62      22.3  T
   9    -42.6069767 -0.914256E-08  0.294E-04    1.62      68.0  T
     SCC iter.                  ...        0 min,  0.012 sec
     gradient                   ...        0 min,  0.013 sec
 * total energy  :   -59.6605341 Eh     change       -0.2608338E-01 Eh
   gradient norm :     0.4800826 Eh/α   predicted    -0.2144271E-01 ( -17.79%)
   displ. norm   :     0.3387251 α      lambda       -0.4240853E-01
   maximum displ.:     0.1207922 α      in ANC's #27, #29, #23, ...

........................................................................
.............................. CYCLE   20 ..............................
........................................................................

 iter      E             dE          RMSdq      gap      omega  full diag
   1    -42.6098155 -0.426098E+02  0.454E-01    1.34       0.0  T
   2    -42.6107236 -0.908088E-03  0.395E-01    1.71       1.0  T
   3    -42.6134677 -0.274414E-02  0.172E-01    1.52       1.0  T
   4    -42.6132983  0.169373E-03  0.832E-02    1.55       1.0  T
   5    -42.6135068 -0.208509E-03  0.169E-02    1.53       1.2  T
   6    -42.6135164 -0.959649E-05  0.530E-03    1.53       3.8  T
   7    -42.6135166 -0.145842E-06  0.274E-03    1.53       7.3  T
   8    -42.6135167 -0.746221E-07  0.103E-03    1.53      19.3  T
   9    -42.6135167 -0.289162E-07  0.329E-04    1.53      60.8  T
  10    -42.6135167 -0.130950E-08  0.152E-04    1.53     131.9  T
     SCC iter.                  ...        0 min,  0.013 sec
     gradient                   ...        0 min,  0.013 sec
 * total energy  :   -59.6694589 Eh     change       -0.8924870E-02 Eh
   gradient norm :     0.9508289 Eh/α   predicted    -0.2363716E-01 ( 164.85%)
   displ. norm   :     0.2757523 α      lambda       -0.3656811E-01
   maximum displ.:     0.1110564 α      in ANC's #27, #29, #23, ...
 * RMSD in coord.:     0.9457438 α      energy gain  -0.1578131E+02 Eh

generating ANC from model Hessian ...
Using Lindh-Hessian (1995)
 Shifting diagonal of input Hessian by    6.1944465907875501E-003
 Lowest  eigenvalues of input Hessian
    0.000000    0.000000    0.000000    0.000000    0.000000    0.000000
    0.010000    0.010809    0.012103    0.012978    0.017103    0.017395
    0.018731    0.020843    0.027139    0.030307    0.030637    0.032608
 Highest eigenvalues
    2.177480    2.321076    2.477726    2.549611   17.172235   19.879816


........................................................................
.............................. CYCLE   21 ..............................
........................................................................

 iter      E             dE          RMSdq      gap      omega  full diag
   1    -42.6220603 -0.426221E+02  0.267E-01    1.44       0.0  T
   2    -42.6222014 -0.141086E-03  0.170E-01    1.53       1.0  T
   3    -42.6223025 -0.101089E-03  0.108E-01    1.45       1.0  T
   4    -42.6223740 -0.715425E-04  0.424E-02    1.50       1.0  T
   5    -42.6224342 -0.601795E-04  0.714E-03    1.48       2.8  T
   6    -42.6224352 -0.104242E-05  0.334E-03    1.48       6.0  T
   7    -42.6224353 -0.490252E-07  0.124E-03    1.48      16.1  T
   8    -42.6224353 -0.235303E-07  0.392E-04    1.48      51.0  T
   9    -42.6224353 -0.207039E-08  0.211E-04    1.48      94.8  T
     SCC iter.                  ...        0 min,  0.012 sec
     gradient                   ...        0 min,  0.013 sec
 * total energy  :   -59.6854159 Eh     change       -0.1595693E-01 Eh
   gradient norm :     0.4194154 Eh/α   predicted     0.0000000E+00 (-100.00%)
   displ. norm   :     0.3973225 α      lambda       -0.1196414E+00
   maximum displ.:     0.1867451 α      in ANC's #38, #62, #43, ...

........................................................................
.............................. CYCLE   22 ..............................
........................................................................

 iter      E             dE          RMSdq      gap      omega  full diag
   1    -42.6227579 -0.426228E+02  0.466E-01    1.57       0.0  T
   2    -42.6233167 -0.558744E-03  0.249E-01    1.47       1.0  T
   3    -42.6231287  0.187968E-03  0.186E-01    1.59       1.0  T
   4    -42.6236075 -0.478782E-03  0.688E-02    1.49       1.0  T
   5    -42.6236991 -0.916181E-04  0.207E-02    1.52       1.0  T
   6    -42.6237077 -0.863769E-05  0.103E-02    1.52       1.9  T
   7    -42.6237088 -0.105921E-05  0.348E-03    1.52       5.7  T
   8    -42.6237090 -0.231631E-06  0.775E-04    1.52      25.8  T
   9    -42.6237090 -0.105108E-08  0.471E-04    1.52      42.4  T
     SCC iter.                  ...        0 min,  0.012 sec
     gradient                   ...        0 min,  0.013 sec
 * total energy  :   -57.9871982 Eh     change        0.1698218E+01 Eh
   gradient norm :    20.3090163 Eh/α   predicted    -0.6933288E-01 (-104.08%)
   displ. norm   :     0.2168691 α      lambda       -0.4393214E+01
   maximum displ.:     0.1830579 α      in ANC's #62, #60, #64, ...

........................................................................
.............................. CYCLE   23 ..............................
........................................................................

 iter      E             dE          RMSdq      gap      omega  full diag
   1    -42.6573983 -0.426574E+02  0.250E-01    1.59       0.0  T
   2    -42.6575713 -0.173078E-03  0.154E-01    1.50       1.0  T
   3    -42.6575055  0.657992E-04  0.106E-01    1.59       1.0  T
   4    -42.6576738 -0.168282E-03  0.363E-02    1.53       1.0  T
   5    -42.6577073 -0.334977E-04  0.121E-02    1.54       1.7  T
   6    -42.6577102 -0.288184E-05  0.454E-03    1.54       4.4  T
   7    -42.6577102  0.410871E-08  0.200E-03    1.54      10.0  T
   8    -42.6577103 -0.684165E-07  0.706E-04    1.54      28.3  T
   9    -42.6577103 -0.670192E-08  0.305E-04    1.54      65.6  T
     SCC iter.                  ...        0 min,  0.012 sec
     gradient                   ...        0 min,  0.014 sec
 * total energy  :   -59.7083959 Eh     change       -0.1721198E+01 Eh
   gradient norm :     0.3013037 Eh/α   predicted    -0.2299918E+01 (  33.62%)
   displ. norm   :     0.4292504 α      lambda       -0.1555813E-01
   maximum displ.:     0.1890783 α      in ANC's #4, #9, #10, ...

........................................................................
.............................. CYCLE   24 ..............................
........................................................................

 iter      E             dE          RMSdq      gap      omega  full diag
   1    -42.6668902 -0.426669E+02  0.354E-01    1.57       0.0  T
   2    -42.6669777 -0.875419E-04  0.201E-01    1.53       1.0  T
   3    -42.6666883  0.289342E-03  0.130E-01    1.60       1.0  T
   4    -42.6670548 -0.366488E-03  0.303E-02    1.53       1.0  T
   5    -42.6670791 -0.242607E-04  0.779E-03    1.55       2.6  T
   6    -42.6670801 -0.973971E-06  0.416E-03    1.55       4.8  T
   7    -42.6670803 -0.274281E-06  0.116E-03    1.55      17.3  T
   8    -42.6670804 -0.176460E-07  0.463E-04    1.55      43.2  T
   9    -42.6670804 -0.221151E-08  0.229E-04    1.55      87.4  T
     SCC iter.                  ...        0 min,  0.012 sec
     gradient                   ...        0 min,  0.013 sec
 * total energy  :   -59.7199300 Eh     change       -0.1153414E-01 Eh
   gradient norm :     0.1625018 Eh/α   predicted    -0.9212473E-02 ( -20.13%)
   displ. norm   :     0.4794402 α      lambda       -0.1108580E-01
   maximum displ.:     0.2208577 α      in ANC's #7, #9, #4, ...

........................................................................
.............................. CYCLE   25 ..............................
........................................................................

 iter      E             dE          RMSdq      gap      omega  full diag
   1    -42.6756715 -0.426757E+02  0.297E-01    1.60       0.0  T
   2    -42.6757234 -0.519542E-04  0.166E-01    1.54       1.0  T
   3    -42.6754990  0.224416E-03  0.116E-01    1.62       1.0  T
   4    -42.6758050 -0.306041E-03  0.204E-02    1.56       1.0  T
   5    -42.6758137 -0.865223E-05  0.766E-03    1.57       2.6  T
   6    -42.6758145 -0.753845E-06  0.428E-03    1.56       4.7  T
   7    -42.6758148 -0.360066E-06  0.111E-03    1.57      18.0  T
   8    -42.6758148 -0.198246E-07  0.506E-04    1.57      39.5  T
   9    -42.6758148 -0.206363E-08  0.225E-04    1.57      88.9  T
     SCC iter.                  ...        0 min,  0.012 sec
     gradient                   ...        0 min,  0.014 sec
 * total energy  :   -59.7275195 Eh     change       -0.7589519E-02 Eh
   gradient norm :     0.1258168 Eh/α   predicted    -0.6817084E-02 ( -10.18%)
   displ. norm   :     0.4563861 α      lambda       -0.4728091E-02
   maximum displ.:     0.2659102 α      in ANC's #4, #7, #9, ...

........................................................................
.............................. CYCLE   26 ..............................
........................................................................

 iter      E             dE          RMSdq      gap      omega  full diag
   1    -42.6751467 -0.426751E+02  0.200E-01    1.58       0.0  T
   2    -42.6751609 -0.141416E-04  0.114E-01    1.57       1.0  T
   3    -42.6751005  0.603649E-04  0.529E-02    1.59       1.0  T
   4    -42.6751723 -0.717856E-04  0.890E-03    1.57       2.2  T
   5    -42.6751736 -0.126911E-05  0.439E-03    1.57       4.6  T
   6    -42.6751736 -0.315768E-07  0.238E-03    1.57       8.4  T
   7    -42.6751738 -0.167168E-06  0.623E-04    1.57      32.1  T
   8    -42.6751738 -0.228456E-08  0.292E-04    1.57      68.5  T
     SCC iter.                  ...        0 min,  0.011 sec
     gradient                   ...        0 min,  0.014 sec
 * total energy  :   -59.7307531 Eh     change       -0.3233564E-02 Eh
   gradient norm :     0.2476405 Eh/α   predicted    -0.2856474E-02 ( -11.66%)
   displ. norm   :     0.3761829 α      lambda       -0.3361401E-02
   maximum displ.:     0.2000252 α      in ANC's #4, #7, #1, ...

........................................................................
.............................. CYCLE   27 ..............................
........................................................................

 iter      E             dE          RMSdq      gap      omega  full diag
   1    -42.6783708 -0.426784E+02  0.151E-01    1.58       0.0  T
   2    -42.6783819 -0.110964E-04  0.866E-02    1.58       1.0  T
   3    -42.6783453  0.365769E-04  0.417E-02    1.57       1.0  T
   4    -42.6783849 -0.396090E-04  0.117E-02    1.58       1.7  T
   5    -42.6783890 -0.409265E-05  0.326E-03    1.58       6.1  T
   6    -42.6783890 -0.230687E-07  0.156E-03    1.58      12.8  T
   7    -42.6783891 -0.408918E-07  0.486E-04    1.58      41.1  T
   8    -42.6783891 -0.199059E-08  0.268E-04    1.58      74.6  T
     SCC iter.                  ...        0 min,  0.011 sec
     gradient                   ...        0 min,  0.013 sec
 * total energy  :   -59.7331249 Eh     change       -0.2371862E-02 Eh
   gradient norm :     0.2592095 Eh/α   predicted    -0.1918564E-02 ( -19.11%)
   displ. norm   :     0.4427293 α      lambda       -0.3466146E-02
   maximum displ.:     0.2715879 α      in ANC's #7, #4, #5, ...

........................................................................
.............................. CYCLE   28 ..............................
........................................................................

 iter      E             dE          RMSdq      gap      omega  full diag
   1    -42.6791141 -0.426791E+02  0.188E-01    1.58       0.0  T
   2    -42.6791195 -0.541471E-05  0.110E-01    1.59       1.0  T
   3    -42.6790514  0.680848E-04  0.482E-02    1.56       1.0  T
   4    -42.6791249 -0.734571E-04  0.867E-03    1.59       2.3  T
   5    -42.6791268 -0.195820E-05  0.310E-03    1.58       6.4  T
   6    -42.6791269 -0.459346E-07  0.120E-03    1.58      16.7  T
   7    -42.6791269 -0.168805E-07  0.444E-04    1.58      45.1  T
   8    -42.6791269 -0.117196E-08  0.176E-04    1.58     113.6  T
     SCC iter.                  ...        0 min,  0.011 sec
     gradient                   ...        0 min,  0.013 sec
 * total energy  :   -59.7353060 Eh     change       -0.2181068E-02 Eh
   gradient norm :     0.1214270 Eh/α   predicted    -0.2072786E-02 (  -4.96%)
   displ. norm   :     0.2290610 α      lambda       -0.1899393E-02
   maximum displ.:     0.1108127 α      in ANC's #1, #7, #38, ...

........................................................................
.............................. CYCLE   29 ..............................
........................................................................

 iter      E             dE          RMSdq      gap      omega  full diag
   1    -42.6877916 -0.426878E+02  0.107E-01    1.60       0.0  T
   2    -42.6878055 -0.139209E-04  0.653E-02    1.59       1.0  T
   3    -42.6877846  0.209692E-04  0.371E-02    1.60       1.0  T
   4    -42.6878126 -0.280089E-04  0.114E-02    1.60       1.8  T
   5    -42.6878163 -0.371530E-05  0.296E-03    1.59       6.8  T
   6    -42.6878164 -0.767160E-07  0.194E-03    1.60      10.3  T
   7    -42.6878164 -0.577206E-07  0.556E-04    1.60      36.0  T
   8    -42.6878164 -0.465643E-08  0.178E-04    1.60     112.2  T
     SCC iter.                  ...        0 min,  0.011 sec
     gradient                   ...        0 min,  0.014 sec
 * total energy  :   -59.7364778 Eh     change       -0.1171769E-02 Eh
   gradient norm :     0.0384755 Eh/α   predicted    -0.9995578E-03 ( -14.70%)
   displ. norm   :     0.3269987 α      lambda       -0.1310047E-02
   maximum displ.:     0.1966362 α      in ANC's #7, #5, #1, ...

........................................................................
.............................. CYCLE   30 ..............................
........................................................................

 iter      E             dE          RMSdq      gap      omega  full diag
   1    -42.6888164 -0.426888E+02  0.128E-01    1.62       0.0  T
   2    -42.6888313 -0.149106E-04  0.782E-02    1.61       1.0  T
   3    -42.6887958  0.355127E-04  0.485E-02    1.62       1.0  T
   4    -42.6888510 -0.551698E-04  0.992E-03    1.61       2.0  T
   5    -42.6888535 -0.247794E-05  0.304E-03    1.61       6.6  T
   6    -42.6888536 -0.137955E-06  0.175E-03    1.61      11.4  T
   7    -42.6888537 -0.482854E-07  0.552E-04    1.61      36.2  T
   8    -42.6888537 -0.346361E-08  0.240E-04    1.61      83.4  T
     SCC iter.                  ...        0 min,  0.011 sec
     gradient                   ...        0 min,  0.013 sec
 * total energy  :   -59.7373845 Eh     change       -0.9067053E-03 Eh
   gradient norm :     0.0844103 Eh/α   predicted    -0.7250738E-03 ( -20.03%)
   displ. norm   :     0.2686986 α      lambda       -0.1121250E-02
   maximum displ.:     0.1346395 α      in ANC's #7, #1, #5, ...

........................................................................
.............................. CYCLE   31 ..............................
........................................................................

 iter      E             dE          RMSdq      gap      omega  full diag
   1    -42.6913168 -0.426913E+02  0.112E-01    1.63       0.0  T
   2    -42.6913323 -0.155473E-04  0.681E-02    1.62       1.0  T
   3    -42.6913121  0.202215E-04  0.444E-02    1.63       1.0  T
   4    -42.6913520 -0.399032E-04  0.125E-02    1.63       1.6  T
   5    -42.6913558 -0.379953E-05  0.286E-03    1.62       7.0  T
   6    -42.6913560 -0.188759E-06  0.150E-03    1.62      13.3  T
   7    -42.6913560 -0.237755E-07  0.463E-04    1.62      43.2  T
   8    -42.6913560 -0.243698E-08  0.169E-04    1.62     118.3  T
     SCC iter.                  ...        0 min,  0.011 sec
     gradient                   ...        0 min,  0.014 sec
 * total energy  :   -59.7382268 Eh     change       -0.8423581E-03 Eh
   gradient norm :     0.0841153 Eh/α   predicted    -0.6011203E-03 ( -28.64%)
   displ. norm   :     0.2870410 α      lambda       -0.1187317E-02
   maximum displ.:     0.1267156 α      in ANC's #7, #1, #4, ...

........................................................................
.............................. CYCLE   32 ..............................
........................................................................

 iter      E             dE          RMSdq      gap      omega  full diag
   1    -42.6915795 -0.426916E+02  0.127E-01    1.63       0.0  T
   2    -42.6915960 -0.164344E-04  0.761E-02    1.63       1.0  T
   3    -42.6915482  0.477652E-04  0.547E-02    1.62       1.0  T
   4    -42.6916202 -0.720498E-04  0.157E-02    1.64       1.3  T
   5    -42.6916258 -0.553235E-05  0.297E-03    1.63       6.7  T
   6    -42.6916260 -0.187902E-06  0.165E-03    1.63      12.1  T
   7    -42.6916260 -0.263682E-07  0.369E-04    1.63      54.3  T
   8    -42.6916260 -0.194830E-08  0.136E-04    1.63     146.6  T
     SCC iter.                  ...        0 min,  0.011 sec
     gradient                   ...        0 min,  0.013 sec
 * total energy  :   -59.7390919 Eh     change       -0.8650164E-03 Eh
   gradient norm :     0.0600277 Eh/α   predicted    -0.6425798E-03 ( -25.71%)
   displ. norm   :     0.2647505 α      lambda       -0.8614816E-03
   maximum displ.:     0.1097639 α      in ANC's #4, #7, #2, ...

........................................................................
.............................. CYCLE   33 ..............................
........................................................................

 iter      E             dE          RMSdq      gap      omega  full diag
   1    -42.6927716 -0.426928E+02  0.126E-01    1.64       0.0  T
   2    -42.6927917 -0.201222E-04  0.747E-02    1.63       1.0  T
   3    -42.6927525  0.391433E-04  0.475E-02    1.63       1.0  T
   4    -42.6928070 -0.544500E-04  0.149E-02    1.64       1.3  T
   5    -42.6928123 -0.527926E-05  0.294E-03    1.63       6.8  T
   6    -42.6928124 -0.138351E-06  0.178E-03    1.64      11.2  T
   7    -42.6928124 -0.387264E-07  0.352E-04    1.63      56.8  T
   8    -42.6928124 -0.135206E-08  0.140E-04    1.63     142.9  T
     SCC iter.                  ...        0 min,  0.011 sec
     gradient                   ...        0 min,  0.013 sec
 * total energy  :   -59.7397010 Eh     change       -0.6091414E-03 Eh
   gradient norm :     0.0797848 Eh/α   predicted    -0.4609506E-03 ( -24.33%)
   displ. norm   :     0.2251031 α      lambda       -0.8004032E-03
   maximum displ.:     0.1141501 α      in ANC's #2, #4, #10, ...

........................................................................
.............................. CYCLE   34 ..............................
........................................................................

 iter      E             dE          RMSdq      gap      omega  full diag
   1    -42.6930973 -0.426931E+02  0.119E-01    1.64       0.0  T
   2    -42.6931133 -0.159947E-04  0.701E-02    1.64       1.0  T
   3    -42.6930892  0.241427E-04  0.344E-02    1.64       1.0  T
   4    -42.6931192 -0.299784E-04  0.104E-02    1.64       1.9  T
   5    -42.6931221 -0.295183E-05  0.260E-03    1.64       7.7  T
   6    -42.6931222 -0.594895E-07  0.160E-03    1.64      12.5  T
   7    -42.6931222 -0.382034E-07  0.409E-04    1.64      48.8  T
   8    -42.6931222 -0.230232E-08  0.130E-04    1.64     154.3  T
     SCC iter.                  ...        0 min,  0.011 sec
     gradient                   ...        0 min,  0.013 sec
 * total energy  :   -59.7401552 Eh     change       -0.4542265E-03 Eh
   gradient norm :     0.0297497 Eh/α   predicted    -0.4204860E-03 (  -7.43%)
   displ. norm   :     0.3313742 α      lambda       -0.8218557E-03
   maximum displ.:     0.1750343 α      in ANC's #2, #7, #10, ...

........................................................................
.............................. CYCLE   35 ..............................
........................................................................

 iter      E             dE          RMSdq      gap      omega  full diag
   1    -42.6917522 -0.426918E+02  0.161E-01    1.66       0.0  T
   2    -42.6917802 -0.279609E-04  0.945E-02    1.65       1.0  T
   3    -42.6917419  0.382752E-04  0.449E-02    1.66       1.0  T
   4    -42.6917903 -0.483680E-04  0.114E-02    1.65       1.8  T
   5    -42.6917938 -0.359059E-05  0.300E-03    1.65       6.7  T
   6    -42.6917939 -0.701886E-07  0.186E-03    1.65      10.8  T
   7    -42.6917940 -0.430445E-07  0.610E-04    1.65      32.8  T
   8    -42.6917940 -0.636202E-08  0.134E-04    1.65     148.9  T
     SCC iter.                  ...        0 min,  0.011 sec
     gradient                   ...        0 min,  0.013 sec
 * total energy  :   -59.7402054 Eh     change       -0.5018700E-04 Eh
   gradient norm :     0.1875384 Eh/α   predicted    -0.4560927E-03 ( 808.79%)
   displ. norm   :     0.1687102 α      lambda       -0.1181258E-02
   maximum displ.:     0.0851221 α      in ANC's #7, #1, #10, ...

........................................................................
.............................. CYCLE   36 ..............................
........................................................................

 iter      E             dE          RMSdq      gap      omega  full diag
   1    -42.6955428 -0.426955E+02  0.857E-02    1.67       0.0  T
   2    -42.6955444 -0.159245E-05  0.510E-02    1.65       1.0  T
   3    -42.6955071  0.372920E-04  0.435E-02    1.68       1.0  T
   4    -42.6955586 -0.514570E-04  0.527E-03    1.66       3.8  T
   5    -42.6955590 -0.425758E-06  0.193E-03    1.66      10.4  T
   6    -42.6955590 -0.205221E-07  0.997E-04    1.66      20.1  T
   7    -42.6955590 -0.512244E-08  0.383E-04    1.66      52.2  T
     SCC iter.                  ...        0 min,  0.010 sec
     gradient                   ...        0 min,  0.013 sec
 * total energy  :   -59.7408186 Eh     change       -0.6132028E-03 Eh
   gradient norm :     0.0321037 Eh/α   predicted    -0.6074592E-03 (  -0.94%)
   displ. norm   :     0.1608075 α      lambda       -0.3848948E-03
   maximum displ.:     0.1015354 α      in ANC's #1, #2, #8, ...

........................................................................
.............................. CYCLE   37 ..............................
........................................................................

 iter      E             dE          RMSdq      gap      omega  full diag
   1    -42.6955052 -0.426955E+02  0.801E-02    1.68       0.0  T
   2    -42.6955078 -0.262399E-05  0.498E-02    1.66       1.0  T
   3    -42.6954828  0.250238E-04  0.365E-02    1.69       1.0  T
   4    -42.6955169 -0.341138E-04  0.642E-03    1.67       3.1  T
   5    -42.6955180 -0.105086E-05  0.171E-03    1.67      11.7  T
   6    -42.6955180 -0.152097E-07  0.776E-04    1.67      25.8  T
   7    -42.6955180 -0.468021E-08  0.304E-04    1.67      65.8  T
     SCC iter.                  ...        0 min,  0.010 sec
     gradient                   ...        0 min,  0.014 sec
 * total energy  :   -59.7410864 Eh     change       -0.2677942E-03 Eh
   gradient norm :     0.0152799 Eh/α   predicted    -0.1974584E-03 ( -26.26%)
   displ. norm   :     0.2995096 α      lambda       -0.5320058E-03
   maximum displ.:     0.1612949 α      in ANC's #1, #2, #8, ...

........................................................................
.............................. CYCLE   38 ..............................
........................................................................

 iter      E             dE          RMSdq      gap      omega  full diag
   1    -42.6952697 -0.426953E+02  0.126E-01    1.71       0.0  T
   2    -42.6952790 -0.929914E-05  0.774E-02    1.67       1.0  T
   3    -42.6952352  0.437325E-04  0.545E-02    1.72       1.0  T
   4    -42.6953005 -0.652473E-04  0.118E-02    1.69       1.7  T
   5    -42.6953042 -0.374838E-05  0.259E-03    1.69       7.7  T
   6    -42.6953043 -0.566684E-07  0.143E-03    1.69      13.9  T
   7    -42.6953043 -0.215795E-07  0.465E-04    1.69      43.0  T
   8    -42.6953043 -0.287857E-08  0.226E-04    1.69      88.7  T
     SCC iter.                  ...        0 min,  0.011 sec
     gradient                   ...        0 min,  0.013 sec
 * total energy  :   -59.7413857 Eh     change       -0.2992729E-03 Eh
   gradient norm :     0.0528248 Eh/α   predicted    -0.2899031E-03 (  -3.13%)
   displ. norm   :     0.1033300 α      lambda       -0.1993167E-03
   maximum displ.:     0.0618766 α      in ANC's #1, #8, #4, ...

........................................................................
.............................. CYCLE   39 ..............................
........................................................................

 iter      E             dE          RMSdq      gap      omega  full diag
   1    -42.6946060 -0.426946E+02  0.475E-02    1.70       0.0  T
   2    -42.6946075 -0.147113E-05  0.285E-02    1.70       1.0  T
   3    -42.6946032  0.428025E-05  0.143E-02    1.71       1.4  T
   4    -42.6946081 -0.495094E-05  0.389E-03    1.70       5.1  T
   5    -42.6946085 -0.414251E-06  0.107E-03    1.70      18.8  T
   6    -42.6946085 -0.960623E-08  0.493E-04    1.70      40.5  T
   7    -42.6946086 -0.148736E-08  0.146E-04    1.70     137.3  T
     SCC iter.                  ...        0 min,  0.010 sec
     gradient                   ...        0 min,  0.013 sec
 * total energy  :   -59.7415440 Eh     change       -0.1583028E-03 Eh
   gradient norm :     0.0388117 Eh/α   predicted    -0.1007231E-03 ( -36.37%)
   displ. norm   :     0.2076379 α      lambda       -0.3591221E-03
   maximum displ.:     0.1186985 α      in ANC's #1, #8, #4, ...

........................................................................
.............................. CYCLE   40 ..............................
........................................................................

 iter      E             dE          RMSdq      gap      omega  full diag
   1    -42.6947230 -0.426947E+02  0.931E-02    1.72       0.0  T
   2    -42.6947294 -0.643568E-05  0.549E-02    1.71       1.0  T
   3    -42.6947211  0.829012E-05  0.226E-02    1.72       1.0  T
   4    -42.6947311 -0.997394E-05  0.639E-03    1.71       3.1  T
   5    -42.6947322 -0.105846E-05  0.236E-03    1.71       8.5  T
   6    -42.6947322 -0.608263E-07  0.112E-03    1.71      17.8  T
   7    -42.6947322 -0.155971E-07  0.355E-04    1.71      56.3  T
   8    -42.6947322 -0.152018E-08  0.206E-04    1.71      96.9  T
     SCC iter.                  ...        0 min,  0.011 sec
     gradient                   ...        0 min,  0.013 sec
 * total energy  :   -59.7417837 Eh     change       -0.2397322E-03 Eh
   gradient norm :     0.0270130 Eh/α   predicted    -0.1872974E-03 ( -21.87%)
   displ. norm   :     0.1879441 α      lambda       -0.2010013E-03
   maximum displ.:     0.1164075 α      in ANC's #1, #8, #10, ...

........................................................................
.............................. CYCLE   41 ..............................
........................................................................

 iter      E             dE          RMSdq      gap      omega  full diag
   1    -42.6940950 -0.426941E+02  0.826E-02    1.72       0.0  T
   2    -42.6940980 -0.297773E-05  0.484E-02    1.72       1.0  T
   3    -42.6940927  0.533744E-05  0.156E-02    1.73       1.3  T
   4    -42.6940989 -0.621015E-05  0.417E-03    1.72       4.8  T
   5    -42.6940992 -0.375091E-06  0.184E-03    1.72      10.9  T
   6    -42.6940993 -0.240082E-07  0.916E-04    1.72      21.8  T
   7    -42.6940993 -0.174252E-07  0.280E-04    1.72      71.5  T
     SCC iter.                  ...        0 min,  0.010 sec
     gradient                   ...        0 min,  0.013 sec
 * total energy  :   -59.7419253 Eh     change       -0.1415499E-03 Eh
   gradient norm :     0.0339332 Eh/α   predicted    -0.1040522E-03 ( -26.49%)
   displ. norm   :     0.1951917 α      lambda       -0.2570331E-03
   maximum displ.:     0.1242574 α      in ANC's #1, #8, #3, ...

........................................................................
.............................. CYCLE   42 ..............................
........................................................................

 iter      E             dE          RMSdq      gap      omega  full diag
   1    -42.6958329 -0.426958E+02  0.864E-02    1.73       0.0  T
   2    -42.6958390 -0.611891E-05  0.503E-02    1.72       1.0  T
   3    -42.6958367  0.230937E-05  0.158E-02    1.73       1.3  T
   4    -42.6958401 -0.340853E-05  0.421E-03    1.72       4.7  T
   5    -42.6958405 -0.383170E-06  0.187E-03    1.72      10.7  T
   6    -42.6958405 -0.297569E-07  0.626E-04    1.72      32.0  T
   7    -42.6958405 -0.430779E-08  0.259E-04    1.72      77.3  T
     SCC iter.                  ...        0 min,  0.010 sec
     gradient                   ...        0 min,  0.013 sec
 * total energy  :   -59.7420670 Eh     change       -0.1416894E-03 Eh
   gradient norm :     0.0132448 Eh/α   predicted    -0.1334116E-03 (  -5.84%)
   displ. norm   :     0.2701886 α      lambda       -0.2273570E-03
   maximum displ.:     0.1842708 α      in ANC's #1, #8, #10, ...
 * RMSD in coord.:     0.6633490 α      energy gain  -0.7260803E-01 Eh

generating ANC from model Hessian ...
Using Lindh-Hessian (1995)
 Shifting diagonal of input Hessian by    6.5847109569150191E-003
 Lowest  eigenvalues of input Hessian
    0.000000    0.000000    0.000000    0.000000    0.000000    0.000000
    0.010000    0.011272    0.011962    0.013788    0.017394    0.017891
    0.020438    0.022105    0.027314    0.031394    0.032938    0.037416
 Highest eigenvalues
    2.208891    2.397401    2.452671    2.537722   17.863841   21.479050


........................................................................
.............................. CYCLE   43 ..............................
........................................................................

 iter      E             dE          RMSdq      gap      omega  full diag
   1    -42.6946848 -0.426947E+02  0.120E-01    1.73       0.0  T
   2    -42.6946881 -0.327499E-05  0.701E-02    1.72       1.0  T
   3    -42.6946792  0.882796E-05  0.181E-02    1.74       1.1  T
   4    -42.6946897 -0.105127E-04  0.365E-03    1.72       5.5  T
   5    -42.6946898 -0.948469E-07  0.208E-03    1.73       9.6  T
   6    -42.6946899 -0.477155E-07  0.105E-03    1.73      19.0  T
   7    -42.6946899 -0.232195E-07  0.342E-04    1.73      58.5  T
   8    -42.6946899 -0.718728E-09  0.176E-04    1.73     113.7  T
     SCC iter.                  ...        0 min,  0.011 sec
     gradient                   ...        0 min,  0.013 sec
 * total energy  :   -59.7420834 Eh     change       -0.1646865E-04 Eh
   gradient norm :     0.0904706 Eh/α   predicted     0.0000000E+00 (-100.00%)
   displ. norm   :     0.0740877 α      lambda       -0.5122357E-02
   maximum displ.:     0.0374236 α      in ANC's #63, #45, #42, ...

........................................................................
.............................. CYCLE   44 ..............................
........................................................................

 iter      E             dE          RMSdq      gap      omega  full diag
   1    -42.6907032 -0.426907E+02  0.705E-02    1.72       0.0  T
   2    -42.6907131 -0.981497E-05  0.377E-02    1.72       1.0  T
   3    -42.6907135 -0.442346E-06  0.131E-02    1.72       1.5  T
   4    -42.6907141 -0.591202E-06  0.572E-03    1.72       3.5  T
   5    -42.6907146 -0.497712E-06  0.296E-03    1.72       6.8  T
   6    -42.6907146 -0.624529E-07  0.133E-03    1.72      15.0  T
   7    -42.6907147 -0.259402E-07  0.449E-04    1.72      44.5  T
   8    -42.6907147 -0.319283E-08  0.181E-04    1.72     110.8  T
     SCC iter.                  ...        0 min,  0.011 sec
     gradient                   ...        0 min,  0.013 sec
 * total energy  :   -59.6761794 Eh     change        0.6590405E-01 Eh
   gradient norm :     2.6045645 Eh/α   predicted    -0.2575247E-02 (-103.91%)
   displ. norm   :     0.0612529 α      lambda       -0.1394982E+00
   maximum displ.:     0.0381410 α      in ANC's #63, #45, #42, ...

........................................................................
.............................. CYCLE   45 ..............................
........................................................................

 iter      E             dE          RMSdq      gap      omega  full diag
   1    -42.6966225 -0.426966E+02  0.595E-02    1.73       0.0  T
   2    -42.6966292 -0.662846E-05  0.320E-02    1.72       1.0  T
   3    -42.6966289  0.307099E-06  0.128E-02    1.73       1.6  T
   4    -42.6966301 -0.120058E-05  0.527E-03    1.72       3.8  T
   5    -42.6966304 -0.328260E-06  0.267E-03    1.72       7.5  T
   6    -42.6966305 -0.651705E-07  0.129E-03    1.72      15.5  T
   7    -42.6966305 -0.199830E-07  0.349E-04    1.72      57.3  T
   8    -42.6966305 -0.154503E-08  0.164E-04    1.72     121.8  T
     SCC iter.                  ...        0 min,  0.011 sec
     gradient                   ...        0 min,  0.013 sec
 * total energy  :   -59.7422424 Eh     change       -0.6606305E-01 Eh
   gradient norm :     0.0092394 Eh/α   predicted    -0.7001090E-01 (   5.98%)
   displ. norm   :     0.0263093 α      lambda       -0.4325229E-04
   maximum displ.:     0.0109364 α      in ANC's #2, #3, #7, ...

........................................................................
.............................. CYCLE   46 ..............................
........................................................................

 iter      E             dE          RMSdq      gap      omega  full diag
   1    -42.6965465 -0.426965E+02  0.135E-02    1.72       0.0  T
   2    -42.6965468 -0.283302E-06  0.757E-03    1.72       2.6  T
   3    -42.6965467  0.105777E-06  0.353E-03    1.72       5.7  T
   4    -42.6965469 -0.168882E-06  0.100E-03    1.72      20.0  T
   5    -42.6965469 -0.236943E-07  0.383E-04    1.72      52.2  T
   6    -42.6965469 -0.576385E-09  0.207E-04    1.72      96.8  T
     SCC iter.                  ...        0 min,  0.008 sec
     gradient                   ...        0 min,  0.013 sec
 * total energy  :   -59.7422791 Eh     change       -0.3662736E-04 Eh
   gradient norm :     0.0067274 Eh/α   predicted    -0.2169487E-04 ( -40.77%)
   displ. norm   :     0.0857120 α      lambda       -0.9479880E-04
   maximum displ.:     0.0387106 α      in ANC's #2, #5, #3, ...

........................................................................
.............................. CYCLE   47 ..............................
........................................................................

 iter      E             dE          RMSdq      gap      omega  full diag
   1    -42.6963786 -0.426964E+02  0.348E-02    1.71       0.0  T
   2    -42.6963801 -0.157567E-05  0.198E-02    1.71       1.0  T
   3    -42.6963787  0.145825E-05  0.931E-03    1.71       2.1  T
   4    -42.6963804 -0.172046E-05  0.370E-03    1.71       5.4  T
   5    -42.6963807 -0.347494E-06  0.105E-03    1.71      19.0  T
   6    -42.6963808 -0.669787E-08  0.491E-04    1.71      40.7  T
   7    -42.6963808 -0.263684E-08  0.145E-04    1.71     137.8  T
     SCC iter.                  ...        0 min,  0.010 sec
     gradient                   ...        0 min,  0.013 sec
 * total energy  :   -59.7423369 Eh     change       -0.5781804E-04 Eh
   gradient norm :     0.0053896 Eh/α   predicted    -0.4796939E-04 ( -17.03%)
   displ. norm   :     0.0461619 α      lambda       -0.2396953E-04
   maximum displ.:     0.0216484 α      in ANC's #2, #5, #8, ...

........................................................................
.............................. CYCLE   48 ..............................
........................................................................

 iter      E             dE          RMSdq      gap      omega  full diag
   1    -42.6964859 -0.426965E+02  0.146E-02    1.71       0.0  T
   2    -42.6964860 -0.112658E-06  0.882E-03    1.71       2.3  T
   3    -42.6964849  0.102252E-05  0.627E-03    1.71       3.2  T
   4    -42.6964862 -0.123019E-05  0.109E-03    1.71      18.3  T
   5    -42.6964862 -0.226417E-07  0.335E-04    1.71      59.8  T
   6    -42.6964862 -0.498602E-09  0.166E-04    1.71     120.2  T
     SCC iter.                  ...        0 min,  0.008 sec
     gradient                   ...        0 min,  0.013 sec
 * total energy  :   -59.7423565 Eh     change       -0.1960043E-04 Eh
   gradient norm :     0.0046185 Eh/α   predicted    -0.1199677E-04 ( -38.79%)
   displ. norm   :     0.1115479 α      lambda       -0.5573177E-04
   maximum displ.:     0.0551213 α      in ANC's #5, #2, #8, ...

........................................................................
.............................. CYCLE   49 ..............................
........................................................................

 iter      E             dE          RMSdq      gap      omega  full diag
   1    -42.6967186 -0.426967E+02  0.326E-02    1.70       0.0  T
   2    -42.6967188 -0.289190E-06  0.202E-02    1.71       1.0  T
   3    -42.6967137  0.515661E-05  0.157E-02    1.70       1.3  T
   4    -42.6967205 -0.683966E-05  0.223E-03    1.71       9.0  T
   5    -42.6967206 -0.104995E-06  0.671E-04    1.71      29.8  T
   6    -42.6967206 -0.224481E-08  0.372E-04    1.71      53.8  T
     SCC iter.                  ...        0 min,  0.009 sec
     gradient                   ...        0 min,  0.013 sec
 * total energy  :   -59.7423960 Eh     change       -0.3947236E-04 Eh
   gradient norm :     0.0048988 Eh/α   predicted    -0.2805692E-04 ( -28.92%)
   displ. norm   :     0.1093433 α      lambda       -0.4644324E-04
   maximum displ.:     0.0543615 α      in ANC's #5, #1, #8, ...

........................................................................
.............................. CYCLE   50 ..............................
........................................................................

 iter      E             dE          RMSdq      gap      omega  full diag
   1    -42.6968485 -0.426968E+02  0.311E-02    1.70       0.0  T
   2    -42.6968487 -0.243586E-06  0.192E-02    1.71       1.0  T
   3    -42.6968448  0.396499E-05  0.151E-02    1.70       1.3  T
   4    -42.6968504 -0.562174E-05  0.217E-03    1.71       9.2  T
   5    -42.6968505 -0.928862E-07  0.679E-04    1.71      29.5  T
   6    -42.6968505 -0.293474E-08  0.364E-04    1.71      55.0  T
     SCC iter.                  ...        0 min,  0.009 sec
     gradient                   ...        0 min,  0.014 sec
 * total energy  :   -59.7424311 Eh     change       -0.3513856E-04 Eh
   gradient norm :     0.0087972 Eh/α   predicted    -0.2339359E-04 ( -33.42%)
   displ. norm   :     0.1335021 α      lambda       -0.5925816E-04
   maximum displ.:     0.0679012 α      in ANC's #1, #5, #8, ...

........................................................................
.............................. CYCLE   51 ..............................
........................................................................

 iter      E             dE          RMSdq      gap      omega  full diag
   1    -42.6968908 -0.426969E+02  0.404E-02    1.71       0.0  T
   2    -42.6968913 -0.502490E-06  0.243E-02    1.71       1.0  T
   3    -42.6968845  0.673069E-05  0.186E-02    1.70       1.1  T
   4    -42.6968931 -0.860792E-05  0.261E-03    1.71       7.7  T
   5    -42.6968933 -0.131023E-06  0.917E-04    1.71      21.8  T
   6    -42.6968933 -0.353922E-08  0.460E-04    1.71      43.5  T
     SCC iter.                  ...        0 min,  0.008 sec
     gradient                   ...        0 min,  0.013 sec
 * total energy  :   -59.7424730 Eh     change       -0.4195461E-04 Eh
   gradient norm :     0.0117393 Eh/α   predicted    -0.2991450E-04 ( -28.70%)
   displ. norm   :     0.0980429 α      lambda       -0.4351632E-04
   maximum displ.:     0.0585351 α      in ANC's #1, #8, #5, ...

........................................................................
.............................. CYCLE   52 ..............................
........................................................................

 iter      E             dE          RMSdq      gap      omega  full diag
   1    -42.6969227 -0.426969E+02  0.343E-02    1.71       0.0  T
   2    -42.6969231 -0.376914E-06  0.200E-02    1.71       1.0  T
   3    -42.6969200  0.304091E-05  0.115E-02    1.71       1.7  T
   4    -42.6969235 -0.343252E-05  0.177E-03    1.71      11.3  T
   5    -42.6969235 -0.622651E-07  0.722E-04    1.71      27.7  T
   6    -42.6969235 -0.268188E-08  0.240E-04    1.71      83.4  T
     SCC iter.                  ...        0 min,  0.008 sec
     gradient                   ...        0 min,  0.013 sec
 * total energy  :   -59.7425032 Eh     change       -0.3016596E-04 Eh
   gradient norm :     0.0069427 Eh/α   predicted    -0.2190580E-04 ( -27.38%)
   displ. norm   :     0.0719461 α      lambda       -0.2332135E-04
   maximum displ.:     0.0489656 α      in ANC's #1, #8, #5, ...

........................................................................
.............................. CYCLE   53 ..............................
........................................................................

 iter      E             dE          RMSdq      gap      omega  full diag
   1    -42.6968197 -0.426968E+02  0.258E-02    1.71       0.0  T
   2    -42.6968199 -0.163893E-06  0.150E-02    1.71       1.3  T
   3    -42.6968198  0.496496E-07  0.226E-03    1.71       8.8  T
   4    -42.6968199 -0.952740E-07  0.718E-04    1.71      27.8  T
   5    -42.6968199 -0.174396E-08  0.417E-04    1.71      48.0  T
     SCC iter.                  ...        0 min,  0.007 sec
     gradient                   ...        0 min,  0.013 sec
 * total energy  :   -59.7425199 Eh     change       -0.1669823E-04 Eh
   gradient norm :     0.0033936 Eh/α   predicted    -0.1172997E-04 ( -29.75%)
   displ. norm   :     0.0577801 α      lambda       -0.1539778E-04
[...]
H            3.35224090504975        1.81544774174694       -0.95590714569647
H            3.78686132268722       -0.69299902175094        0.86182095302370
H           -1.65546310862344        3.06029102215639        0.30021252784877
H           -2.80319264899019        2.21217107404068       -0.77416824687842
H           -2.92333520359333        1.98848209041789        0.97285137669570
H           -1.32634664206627       -3.24677124200684        0.73584007070925
H           -1.34499374839138       -3.14420168220646       -1.04682516163620
H           -2.71050618337057       -2.51493959654072       -0.10194132645300
H            0.85013907035171       -3.15412801477455       -0.13914145228089

 Bond Distances (Angstroems)
 ---------------------------
C1-N2=1.4004         C1-C3=1.5359         C1-H15=1.0838        C1-H17=1.0857        N2-C1=1.4004         N2-C3=1.4463         
N2-C6=1.2915         C3-C1=1.5359         C3-N2=1.4463         C3-H16=0.4244        C3-H18=1.1258        N4-C5=1.2711         
N4-H25=1.0101        C5-N4=1.2711         C5-C6=1.4565         C5-N13=1.3800        C6-N2=1.2915         C6-C5=1.4565         
C6-C7=1.4782         C7-C6=1.4782         C7-O8=1.2107         C7-N9=1.3718         O8-C7=1.2107         N9-C7=1.3718         
N9-C10=1.4525        N9-C11=1.3920        C10-N9=1.4525        C10-H19=1.0879       C10-H20=1.0913       C10-H21=1.0904       
C11-N9=1.3920        C11-O12=1.2018       C11-N13=1.3905       O12-C11=1.2018       N13-C5=1.3800        N13-C11=1.3905       
N13-C14=1.4530       C14-N13=1.4530       C14-H22=1.0913       C14-H23=1.0915       C14-H24=1.0887       H15-C1=1.0838        
H16-C3=0.4244        H17-C1=1.0857        H18-C3=1.1258        H19-C10=1.0879       H20-C10=1.0913       H21-C10=1.0904       
H22-C14=1.0913       H23-C14=1.0915       H24-C14=1.0887       H25-N4=1.0101        
 C  H  Rav=1.0261 sigma=0.2009  Rmin=0.4244  Rmax=1.1258    10
 C  C  Rav=1.4902 sigma=0.0335  Rmin=1.4565  Rmax=1.5359     3
 N  H  Rav=1.0101 sigma=0.0000  Rmin=1.0101  Rmax=1.0101     1
 N  C  Rav=1.3849 sigma=0.0593  Rmin=1.2711  Rmax=1.4530    10
 O  C  Rav=1.2062 sigma=0.0044  Rmin=1.2018  Rmax=1.2107     2

 selected bond angles (degree)
 --------------------
C3-C1-N2= 58.80                H15-C1-N2=117.37               H15-C1-C3=121.89               H17-C1-N2=116.39               
H17-C1-C3=118.22               H17-C1-H15=113.38              C3-N2-C1= 65.28                C6-N2-C1=146.54                
C6-N2-C3=148.16                N2-C3-C1= 55.92                H16-C3-C1=124.30               H16-C3-N2=122.83               
H18-C3-C1=109.56               H18-C3-N2=107.55               H18-C3-H16=120.03              H25-N4-C5=119.92               
C6-C5-N4=117.01                N13-C5-N4=126.97               N13-C5-C6=116.02               C5-C6-N2=120.35                
C7-C6-N2=117.95                C7-C6-C5=121.70                O8-C7-C6=121.45                N9-C7-C6=114.56                
N9-C7-O8=123.99                C10-N9-C7=118.48               C11-N9-C7=125.81               C11-N9-C10=115.71              
H19-C10-N9=108.40              H20-C10-N9=109.97              H20-C10-H19=110.12             H21-C10-N9=109.69              
H21-C10-H19=110.64             H21-C10-H20=108.03             

 selected dihedral angles (degree)
 ---------------------------------
C3-N2-C1-H15=247.55           C3-N2-C1-H17=108.46           C6-N2-C1-C3=181.50            C6-N2-C1-H15= 69.05           
C6-N2-C1-H17=289.96           N2-C3-C1-H15=104.85           N2-C3-C1-H17=254.65           H16-C3-C1-N2=109.32           
H16-C3-C1-H15=214.17          H16-C3-C1-H17=  3.97          H18-C3-C1-N2=261.61           H18-C3-C1-H15=  6.46          
H18-C3-C1-H17=156.27          C1-C3-N2-C6=178.43            H16-C3-N2-C1=248.09           H16-C3-N2-C6= 66.53           
H18-C3-N2-C1=102.13           H18-C3-N2-C6=280.56           C6-C5-N4-H25=180.12           N13-C5-N4-H25=359.97          
C5-C6-N2-C1=179.21            C5-C6-N2-C3=  1.79            C7-C6-N2-C1=359.26            C7-C6-N2-C3=181.85            
N2-C6-C5-N4=  1.65            N2-C6-C5-N13=181.78           C7-C6-C5-N4=181.59            C7-C6-C5-N13=  1.72           
O8-C7-C6-N2=358.40            O8-C7-C6-C5=178.45            N9-C7-C6-N2=178.38            N9-C7-C6-C5=358.43            
C10-N9-C7-C6=180.46           C10-N9-C7-O8=  0.44           C11-N9-C7-C6=  0.20           C11-N9-C7-O8=180.18           
H19-C10-N9-C7=354.12          H19-C10-N9-C11=174.35         H20-C10-N9-C7=114.55          H20-C10-N9-C11=294.78         
H21-C10-N9-C7=233.22          H21-C10-N9-C11= 53.45         
           -------------------------------------------------
          |                Final Singlepoint                |
           -------------------------------------------------

          ...................................................
          :                      SETUP                      :
          :.................................................:
          :  # basis functions                  67          :
          :  # atomic orbitals                  67          :
          :  # shells                           39          :
          :  # electrons                        74          :
          :  max. iterations                   250          :
          :  Hamiltonian                  GFN2-xTB          :
          :  restarted?                      false          :
          :  GBSA solvation                  false          :
          :  PC potential                    false          :
          :  electronic temp.         5000.0000000     K    :
          :  accuracy                    1.0000000          :
          :  -> integral cutoff          0.2500000E+02      :
          :  -> integral neglect         0.1000000E-07      :
          :  -> SCF convergence          0.1000000E-05 Eh   :
          :  -> wf. convergence          0.1000000E-03 e    :
          :  Broyden damping             0.4000000          :
          ...................................................

 iter      E             dE          RMSdq      gap      omega  full diag
   1    -42.6968199 -0.426968E+02  0.134E-04    1.71       0.0  T
   2    -42.6968199  0.851017E-10  0.142E-04    1.71     140.6  T
   3    -42.6968199 -0.582318E-09  0.323E-05    1.71     618.7  T

   *** convergence criteria satisfied after 3 iterations ***

         #    Occupation            Energy/Eh            Energy/eV
      -------------------------------------------------------------
         1        2.0000           -0.8963859             -24.3919
       ...           ...                  ...                  ...
        31        1.9961           -0.6285857             -17.1047
        32        1.9921           -0.6175743             -16.8051
        33        1.9707           -0.5965912             -16.2341
        34        1.9499           -0.5879473             -15.9989
        35        1.9396           -0.5848963             -15.9158
        36        1.8895           -0.5749143             -15.6442
        37        1.8634           -0.5713428             -15.5470 (HOMO)
        38        0.4073           -0.5083730             -13.8335 (LUMO)
        39        0.0006           -0.4008895             -10.9088
        40        0.0003           -0.3901152             -10.6156
        41        0.0000           -0.3038798              -8.2690
        42        0.0000           -0.3023094              -8.2263
       ...           ...                  ...                  ...
        67                         10.7270991             291.8992
      -------------------------------------------------------------
                  HL-Gap            0.0629699 Eh            1.7135 eV
             Fermi-level           -0.5299661 Eh          -14.4211 eV

 SCC (total)                   0 d,  0 h,  0 min,  0.023 sec
 SCC setup                      ...        0 min,  0.000 sec (  0.843%)
 Dispersion                     ...        0 min,  0.000 sec (  0.736%)
 classical contributions        ...        0 min,  0.000 sec (  0.311%)
 integral evaluation            ...        0 min,  0.005 sec ( 19.999%)
 iterations                     ...        0 min,  0.005 sec ( 19.799%)
 molecular gradient             ...        0 min,  0.013 sec ( 57.772%)
 printout                       ...        0 min,  0.000 sec (  0.495%)

         :::::::::::::::::::::::::::::::::::::::::::::::::::::
         ::                     SUMMARY                     ::
         :::::::::::::::::::::::::::::::::::::::::::::::::::::
         :: total energy             -59.742519915886 Eh    ::
         :: gradient norm              0.003394086197 Eh/a0 ::
         :: HOMO-LUMO gap              1.713497726299 eV    ::
         ::.................................................::
         :: SCC energy               -42.696819926746 Eh    ::
         :: -> isotropic ES            0.140147738271 Eh    ::
         :: -> anisotropic ES         -0.003786400647 Eh    ::
         :: -> anisotropic XC          0.016245203255 Eh    ::
         :: -> dispersion             -0.021791809446 Eh    ::
         :: repulsion energy           2.268900157190 Eh    ::
         :: add. restraining         -19.314706864606 Eh    ::
         :: total charge               1.000000000000 e     ::
         :::::::::::::::::::::::::::::::::::::::::::::::::::::

           -------------------------------------------------
          |                Property Printout                |
           -------------------------------------------------

    * Orbital Energies and Occupations

         #    Occupation            Energy/Eh            Energy/eV
      -------------------------------------------------------------
         1        2.0000           -0.8963859             -24.3919
       ...           ...                  ...                  ...
        25        1.9994           -0.6590516             -17.9337
        26        1.9993           -0.6566440             -17.8682
        27        1.9989           -0.6483346             -17.6421
        28        1.9988           -0.6471752             -17.6105
        29        1.9980           -0.6397207             -17.4077
        30        1.9966           -0.6309686             -17.1695
        31        1.9961           -0.6285857             -17.1047
        32        1.9921           -0.6175743             -16.8051
        33        1.9707           -0.5965912             -16.2341
        34        1.9499           -0.5879473             -15.9989
        35        1.9396           -0.5848963             -15.9158
        36        1.8895           -0.5749143             -15.6442
        37        1.8634           -0.5713428             -15.5470 (HOMO)
        38        0.4073           -0.5083730             -13.8335 (LUMO)
        39        0.0006           -0.4008895             -10.9088
        40        0.0003           -0.3901152             -10.6156
        41        0.0000           -0.3038798              -8.2690
        42        0.0000           -0.3023094              -8.2263
        43                         -0.2182597              -5.9391
        44                         -0.1749840              -4.7616
        45                         -0.1398756              -3.8062
        46                         -0.0989226              -2.6918
        47                         -0.0686140              -1.8671
        48                         -0.0536235              -1.4592
       ...                                ...                  ...
        67                         10.7270991             291.8992
      -------------------------------------------------------------
                  HL-Gap            0.0629699 Eh            1.7135 eV
             Fermi-level           -0.5299661 Eh          -14.4211 eV

     #   Z          covCN         q      C6AA      α(0)
     1   6 C        3.737    -0.020    21.017     6.542
     2   7 N        2.747     0.080    19.851     6.617
     3   6 C        3.731    -0.065    21.853     6.673
     4   7 N        1.791    -0.286    28.241     7.871
     5   6 C        2.827     0.164    24.445     8.102
     6   6 C        2.899     0.040    27.097     8.535
     7   6 C        2.772     0.267    22.487     7.767
     8   8 O        0.858    -0.337    20.459     6.064
     9   7 N        2.740    -0.065    22.500     7.045
    10   6 C        3.707    -0.063    21.857     6.683
    11   6 C        2.716     0.323    21.514     7.593
    12   8 O        0.860    -0.335    20.429     6.060
    13   7 N        2.741    -0.069    22.585     7.058
    14   6 C        3.703    -0.064    21.892     6.690
    15   1 H        0.925     0.128     1.547     1.945
    16   1 H        0.936     0.194     1.129     1.661
    17   1 H        0.925     0.131     1.530     1.934
    18   1 H        0.918     0.122     1.596     1.976
    19   1 H        0.925     0.118     1.627     1.995
    20   1 H        0.924     0.112     1.680     2.027
    21   1 H        0.924     0.114     1.666     2.018
    22   1 H        0.924     0.093     1.850     2.127
    23   1 H        0.924     0.093     1.848     2.126
    24   1 H        0.925     0.123     1.585     1.969
    25   1 H        0.860     0.201     1.101     1.643

 Mol. C6AA /au·bohr⁶  :       6396.737286
 Mol. C8AA /au·bohr⁸  :     146768.525416
 Mol. α(0) /au        :        120.721323


Wiberg/Mayer (AO) data.
largest (>0.10) Wiberg bond orders for each atom

 ---------------------------------------------------------------------------
     #   Z sym  total        # sym  WBO       # sym  WBO       # sym  WBO
 ---------------------------------------------------------------------------
     1   6 C    3.888 --     2 N    0.984     3 C    0.962    15 H    0.944
                            17 H    0.939
     2   7 N    3.519 --     6 C    1.503     1 C    0.984     3 C    0.942
     3   6 C    3.845 --     1 C    0.962     2 N    0.942    16 H    0.940
                            18 H    0.925
     4   7 N    2.844 --     5 C    1.677    25 H    0.921    13 N    0.122
     5   6 C    3.947 --     4 N    1.677    13 N    1.121     6 C    1.058
     6   6 C    3.781 --     2 N    1.503     5 C    1.058     7 C    1.000
     7   6 C    3.930 --     8 O    1.683     9 N    1.151     6 C    1.000
     8   8 O    1.973 --     7 C    1.683     9 N    0.148
     9   7 N    3.523 --     7 C    1.151    11 C    1.080    10 C    0.974
                             8 O    0.148    12 O    0.103
    10   6 C    3.881 --     9 N    0.974    19 H    0.964    21 H    0.951
                            20 H    0.947
    11   6 C    3.949 --    12 O    1.695    13 N    1.091     9 N    1.080
    12   8 O    2.012 --    11 C    1.695    13 N    0.113     9 N    0.103
    13   7 N    3.491 --     5 C    1.121    11 C    1.091    14 C    0.978
                             4 N    0.122    12 O    0.113
    14   6 C    3.904 --    13 N    0.978    24 H    0.961    22 H    0.959
                            23 H    0.959
    15   1 H    0.973 --     1 C    0.944
    16   1 H    0.960 --     3 C    0.940
    17   1 H    0.971 --     1 C    0.939
    18   1 H    0.969 --     3 C    0.925
    19   1 H    0.981 --    10 C    0.964
    20   1 H    0.966 --    10 C    0.947
    21   1 H    0.969 --    10 C    0.951
    22   1 H    0.978 --    14 C    0.959
    23   1 H    0.977 --    14 C    0.959
    24   1 H    0.981 --    14 C    0.961
    25   1 H    0.951 --     4 N    0.921
 ---------------------------------------------------------------------------

Topologies differ in total number of bonds
Writing topology from bond orders to xtbtopo.mol

molecular dipole:
                 x           y           z       tot (Debye)
 q only:        2.068      -0.626      -0.038
   full:        1.778      -0.833       0.012       4.990
molecular quadrupole (traceless):
                xx          xy          yy          xz          yz          zz
 q only:       16.869       0.793       0.698      -0.228       0.478     -17.567
  q+dip:       10.840       1.789       0.917       0.887      -0.248     -11.756
   full:        9.834       1.609       0.493       0.784      -0.192     -10.327

           -------------------------------------------------
          |                Geometry Summary                 |
           -------------------------------------------------

      molecular mass/u    :      195.1988581
   center of mass at/Å    :        0.0237199       0.0201086      -0.0080842
  moments of inertia/u·Å² :        0.4655010E+03   0.7940124E+03   0.1247287E+04
rotational constants/cm⁻¹ :        0.3621395E-01   0.2123094E-01   0.1351544E-01

 * 23 selected distances

     #   Z          #   Z                                           value/Å
     1   6 C        2   7 N                                       1.4003878
     1   6 C        3   6 C                                       1.5359087 (max)
     2   7 N        3   6 C                                       1.4462664
     4   7 N        5   6 C                                       1.2710671
     2   7 N        6   6 C                                       1.2915406
     7   6 C        8   8 O                                       1.2106731
     7   6 C        9   7 N                                       1.3717895
     9   7 N       10   6 C                                       1.4524792
     9   7 N       11   6 C                                       1.3919865
    11   6 C       12   8 O                                       1.2017816
     5   6 C       13   7 N                                       1.3799728
    11   6 C       13   7 N                                       1.3904730
    13   7 N       14   6 C                                       1.4529645
     1   6 C       15   1 H                                       1.0837567
     3   6 C       16   1 H                                       0.4243576 (min)
     1   6 C       17   1 H                                       1.0857052
     3   6 C       18   1 H                                       1.1257749
    10   6 C       19   1 H                                       1.0878702
    10   6 C       20   1 H                                       1.0912520
    10   6 C       21   1 H                                       1.0904475
    14   6 C       22   1 H                                       1.0912838
    14   6 C       23   1 H                                       1.0915233
    14   6 C       24   1 H                                       1.0886900

 * 4 distinct bonds (by element types)

   Z      Z             #   av. dist./Å        max./Å        min./Å
   1 H    6 C          10     1.0260661     1.1257749     0.4243576
   6 C    6 C           1     1.5359087     1.5359087     1.5359087
   6 C    7 N          10     1.3848928     1.4529645     1.2710671
   6 C    8 O           2     1.2062274     1.2106731     1.2017816


optimized geometry written to: xtbopt.xyz


           -------------------------------------------------
          | TOTAL ENERGY              -59.742519915886 Eh   |
          | GRADIENT NORM               0.003394086197 Eh/α |
          | HOMO-LUMO GAP               1.713497726299 eV   |
           -------------------------------------------------

------------------------------------------------------------------------
 * finished run on 2024/06/05 at 19:59:23.314     
------------------------------------------------------------------------
 total:
 * wall-time:     0 d,  0 h,  0 min,  1.728 sec
 *  cpu-time:     0 d,  0 h,  0 min,  1.703 sec
 * ratio c/w:     0.985 speedup
 SCF:
 * wall-time:     0 d,  0 h,  0 min,  0.037 sec
 *  cpu-time:     0 d,  0 h,  0 min,  0.037 sec
 * ratio c/w:     1.000 speedup
 ANC optimizer:
 * wall-time:     0 d,  0 h,  0 min,  1.659 sec
 *  cpu-time:     0 d,  0 h,  0 min,  1.654 sec
 * ratio c/w:     0.997 speedup

