72
 energy: -99.337134552432 gnorm: 0.102947915012 xtb: 6.6.1 (8d0f1dd)
N           -1.85040115611990        2.85649096431318        2.20175064547312
C           -1.81187865866860        2.14271537084451        1.17678695322420
C           -2.96989824357018        1.95070954403797        0.23165964366799
C           -3.44233411083792        0.50568633682011        0.29093340335766
C           -4.39810627306292        0.04413710078181       -0.61647671394013
C           -4.87522460410668       -1.25503211417759       -0.56458833649878
O           -5.80550478696846       -1.78467877250563       -1.38598827320110
C           -6.46100136238820       -0.96113743400357       -2.32123459371540
C           -4.37382618540759       -2.14651329496581        0.42230157962228
O           -4.88781221225842       -3.39291720734792        0.39547030442712
C           -4.50388307606643       -4.30687848901748        1.39583455355667
C           -3.42646370047324       -1.68202996001467        1.31957375762846
C           -2.97278088276642       -0.37051590282338        1.25635141987975
C           -2.42170549663034        2.27984083385025       -1.17433871442209
C           -1.53472977186154        0.91958201303706       -1.81071803344228
C           -0.19672360455495        0.95660726165232       -1.22072301079287
N            0.47659128092065       -0.06169305245615       -0.69261722009495
C            1.84778177787457        0.11498166221800       -0.27069101139064
C            2.83891347273100       -0.33755871160939       -1.36012719231294
C            4.25466970136292       -0.12562979384410       -0.90203300389242
C            4.89513762019925        1.08352887374155       -1.11877477036446
C            6.19782902590754        1.28415524628168       -0.68889221922962
C            6.88633832259657        0.27757735134974       -0.02710757743459
O            8.15041565469581        0.35743807080066        0.42760367921738
C            8.88323715701775        1.54292693716579        0.21960064198678
C            6.23476115649351       -0.96514350891743        0.20631932449970
O            6.97623393816625       -1.88864100853206        0.84990373736156
C            6.43097043195258       -3.16301421503324        1.09432082763926
C            4.93135522882540       -1.14118206918336       -0.23042564900220
C           -0.06255083107471       -1.40018718404164       -0.63430048886524
C           -4.19048696284901        2.86490567789780        0.56654038048405
C           -4.80136605743549        2.48934994083633        1.91541270208549
C           -3.86760198031211        4.35751814751983        0.54806506342900
H           -4.78495333406206        0.71450991168039       -1.36594266501606
H           -6.96914146779427       -0.12434987917602       -1.83289864894495
H           -7.20030684851683       -1.60003410189708       -2.80099467797197
H           -5.76918935823713       -0.57950132990399       -3.07896320173058
H           -4.74564225635628       -3.93123189607607        2.39447796202014
H           -5.07603319798293       -5.21173086774812        1.20200157887135
H           -3.43462810653968       -4.53560912710414        1.34014412743184
H           -3.04262930077449       -2.32921607840866        2.09130592263216
H           -2.26362141290890       -0.03452661885547        1.99686475394004
H           -3.25572677567625        2.35388935769505       -1.87012662810995
H           -2.04523997807994        3.48975852361830       -1.05516186904540
H           -1.86342297620347       -0.30807222884287       -1.90325072865101
H           -1.45894986135785        1.22897855351865       -2.85767340983007
H           -0.90778208066161        1.61181398540590        0.83131703331412
H            0.32173761521431        1.90553353930160       -1.22955088399457
H            2.02011144074999       -0.46313339951144        0.64097730045790
H            2.02616707265539        1.16835868065919       -0.04472210955147
H            2.64990521645306        0.24283167134625       -2.26489705763114
H            2.67370602455560       -1.39198554529752       -1.58509966565376
H            4.38569962667243        1.87942292690881       -1.64050292916844
H            6.67343674222399        2.23155135116466       -0.88240685658409
H            8.41363252991323        2.39685659740697        0.71719209883195
H            9.00030198819995        1.75939112003247       -0.84645767523391
H            9.86158415063194        1.36196450557433        0.66055313653891
H            7.21569308927760       -3.72451884303889        1.59745793430216
H            5.55329638739835       -3.10606895519769        1.74621692217643
H            6.16367500923162       -3.67092848261057        0.16239318913449
H            4.43158786874810       -2.08295889329342       -0.06561485240873
H           -0.12807146293944       -1.84698511503484       -1.62973445271029
H           -1.05647239856125       -1.38771236671251       -0.18058034429065
H            0.58842295148593       -2.02210935270144       -0.02388069644350
H           -4.94177516233115        2.67346839017742       -0.20785002919496
H           -4.08775964433377        2.67674759781692        2.71110963131367
H           -5.08930624043944        1.44128852642736        1.93809585906915
H           -5.68818188743518        3.09117592186040        2.09510893374388
H           -3.05234238404147        4.57785087798226        1.23016974435276
H           -3.61599043887269        4.71041631469931       -0.44964188378252
H           -4.74193655333660        4.91338630406185        0.87713296518442
H           -1.00329380030051        2.94021933189799        2.75530520629199
72
 energy: -99.384003685369 gnorm: 0.080660622879 xtb: 6.6.1 (8d0f1dd)
N           -1.84980023962382        2.85768450045331        2.19982094364618
C           -1.81469233889970        2.14040833165730        1.17689469282873
C           -2.98017454612347        1.94116869619906        0.24168087503938
C           -3.45066143396902        0.50087652158117        0.29979846045720
C           -4.40099243724472        0.04142346388247       -0.61332665497130
C           -4.87612758406090       -1.25764633836891       -0.56394055724578
O           -5.80558122776113       -1.78611738400573       -1.38673778434981
C           -6.46014230043926       -0.96078082080688       -2.32113849596928
C           -4.37428723663407       -2.14874300214828        0.42309765503402
O           -4.88798170131161       -3.39484551763757        0.39561361864720
C           -4.50415402614099       -4.30835654595945        1.39618465537026
C           -3.42680247922353       -1.68547235913740        1.32109730635010
C           -2.97466051029471       -0.37425790966268        1.26058302769754
C           -2.46178146176878        2.20980840347975       -1.17996285425277
C           -1.50407994916767        0.99063322983323       -1.81832159478029
C           -0.17605607303837        0.97411952295574       -1.22167378598819
N            0.47850332505022       -0.05678241206825       -0.69283345447146
C            1.84943271493564        0.11369624188208       -0.26979767927256
C            2.83926383904046       -0.33839438906931       -1.36034850963299
C            4.25488878961989       -0.12605435381052       -0.90236144062941
C            4.89511288916955        1.08328669209664       -1.11891189285467
C            6.19769309196543        1.28410456759110       -0.68879887480828
C            6.88628202820367        0.27755536558061       -0.02706364312269
O            8.15032492735935        0.35752150625648        0.42772664862375
C            8.88313212642670        1.54298066504346        0.21959666281526
C            6.23484324675792       -0.96525829110864        0.20628403750868
O            6.97622985333774       -1.88856479718788        0.85023220338000
C            6.43101735785451       -3.16298662257479        1.09444615370185
C            4.93157242712315       -1.14148914169951       -0.23068683474635
C           -0.06415989870047       -1.39516457464228       -0.63595399738303
C           -4.19349029963057        2.86521642605998        0.56823923340756
C           -4.80301939831951        2.49040791038845        1.91708154779683
C           -3.86761487387847        4.35714864546944        0.54737581894353
H           -4.78509908949233        0.71262211238272       -1.36384784088892
H           -6.96782390389747       -0.12399967582002       -1.83222676198946
H           -7.19975576981492       -1.59870182197594       -2.80162993037976
H           -5.76792652658550       -0.57881129910056       -3.07837505626987
H           -4.74617742513398       -3.93254572043675        2.39471490109669
H           -5.07643534814337       -5.21294502492717        1.20190967414583
H           -3.43486387144975       -4.53695007300250        1.34071962050174
H           -3.04249235298462       -2.33240241977953        2.09233278650785
H           -2.26391449823016       -0.03702468800979        1.99899157974846
H           -3.28099780869384        2.33862085292730       -1.87967445213729
H           -1.96221044793434        3.28228460252697       -1.12903621905038
H           -1.93748663236138       -0.10706192434191       -1.82793259402046
H           -1.44328825725668        1.25272042941068       -2.87472009607718
H           -0.91062021450208        1.60975309379184        0.83112256549240
H            0.34912113194836        1.91536203049022       -1.22258677360569
H            2.01964275616427       -0.46451301456505        0.64178290325636
H            2.02837725448535        1.16716572895615       -0.04414302775353
H            2.65008595782266        0.24215627036691       -2.26506544192560
H            2.67373855175829       -1.39271590272994       -1.58521965816990
H            4.38561806409622        1.87906113214272       -1.64079244663481
H            6.67312944754950        2.23165556525429       -0.88196534950577
H            8.41358811145014        2.39694868974525        0.71718575630945
H            9.00010741802692        1.75938863913384       -0.84648469094587
H            9.86151539925629        1.36205068160966        0.66048419009352
H            7.21568978268443       -3.72457943145285        1.59756590415809
H            5.55330412577462       -3.10614603471863        1.74631579464888
H            6.16377540413700       -3.67075914161832        0.16243099059661
H            4.43185063445869       -2.08330877623670       -0.06600217215163
H           -0.12943243513693       -1.84395981831053       -1.63034117287210
H           -1.05795393175573       -1.38455740391786       -0.18223814820740
H            0.58602322132065       -2.01822421745672       -0.02518338876860
H           -4.94424774580166        2.67320648495518       -0.20641299222087
H           -4.08869431020454        2.67806074646039        2.71201741413398
H           -5.09031236129572        1.44211807055916        1.93958186109040
H           -5.68967759122844        3.09230970692849        2.09598785812667
H           -3.05274229248772        4.57777369183626        1.22994736736842
H           -3.61521863889506        4.70927505080478       -0.45034500643802
H           -4.74178268048717        4.91353054153197        0.87604098781156
H           -1.00193413077442        2.94015555856427        2.75246042075709
72
 energy: -99.399022580058 gnorm: 0.072542817352 xtb: 6.6.1 (8d0f1dd)
N           -1.85399455451247        2.85295147922382        2.19233379698625
C           -1.81200137710812        2.13729194236530        1.16805182081432
C           -2.96950182036102        1.93023475395514        0.22496473188706
C           -3.45236258516336        0.49508890570487        0.30438626654131
C           -4.40204035781525        0.03754632596737       -0.61057865055887
C           -4.87711995692407       -1.26116387377534       -0.56238551649268
O           -5.80572924435244       -1.78789122489908       -1.38675049444598
C           -6.45869608978531       -0.96024114367954       -2.32049117539378
C           -4.37493972355762       -2.15201828087887        0.42475949560575
O           -4.88850425566373       -3.39760572246563        0.39651983574279
C           -4.50493235543810       -4.31082664689283        1.39711704977785
C           -3.42778621497420       -1.69005261878624        1.32386711589084
C           -2.97675188994924       -0.37852670386499        1.26592105415960
C           -2.42367475868252        2.16672169295272       -1.19781297887074
C           -1.53495070099273        1.04625858215527       -1.77908721155699
C           -0.18811210282164        0.99663834792052       -1.19941621134387
N            0.46774278994591       -0.04655527919950       -0.69329903840706
C            1.84356051587644        0.11641446919446       -0.27466761579495
C            2.83725679569109       -0.33804945032706       -1.36137983863390
C            4.25349033870506       -0.12640308283740       -0.90259885377483
C            4.89442638971035        1.08277316186775       -1.11925818093369
C            6.19699485173845        1.28371597092180       -0.68895473731833
C            6.88576836998188        0.27727524231827       -0.02719214951913
O            8.14972090980405        0.35735258262115        0.42762700822852
C            8.88285991178765        1.54262852752283        0.21937303876395
C            6.23420618316588       -0.96560450552223        0.20607642251708
O            6.97557607156674       -1.88853339552472        0.85044859576148
C            6.43083533953841       -3.16315463088946        1.09464710161734
C            4.93076195709092       -1.14183739822012       -0.23104470018503
C           -0.07124555706421       -1.38640268446073       -0.63988946534477
C           -4.18407392578969        2.85787196048716        0.56005409127694
C           -4.79935941967120        2.49036221341651        1.91142444744252
C           -3.86236189749323        4.35101136120939        0.54244384342455
H           -4.78535191697003        0.70972965014846       -1.36049452744931
H           -6.96557011450944       -0.12329966599308       -1.83090288955954
H           -7.19887898871726       -1.59653944284921       -2.80216124540298
H           -5.76588303270598       -0.57818737952055       -3.07719319137956
H           -4.74717206480416       -3.93465576410217        2.39546482193411
H           -5.07735780162812       -5.21510148606435        1.20234516425384
H           -3.43559319666983       -4.53916202714319        1.34189578767153
H           -3.04256884773806       -2.33735807198772        2.09399934829159
H           -2.26465806044759       -0.04000237363189        2.00220226847556
H           -3.25556355351784        2.30338258211680       -1.88033436232225
H           -1.94844362693638        3.09045975444772       -1.18550412994735
H           -1.96033700673672        0.10083974708525       -1.76461770241547
H           -1.45089910463878        1.28239564405786       -2.84355553191626
H           -0.90510938498666        1.60925740677518        0.82818823577310
H            0.35740686341195        1.92684473220055       -1.21767804116632
H            2.01478147165069       -0.46456398072029        0.63546535578698
H            2.02873358832743        1.16773140546684       -0.04439393388640
H            2.64977697691839        0.24167934128073       -2.26675157300447
H            2.67239951749599       -1.39268119730672       -1.58560656154198
H            4.38528977475181        1.87849965457362       -1.64147935670063
H            6.67237870775222        2.23139863377953       -0.88169868752555
H            8.41359108763113        2.39675359469508        0.71694703380946
H            8.99978977518426        1.75894933691872       -0.84672490341775
H            9.86128995557882        1.36163366510943        0.66016924938145
H            7.21558195146539       -3.72470122793693        1.59773373990810
H            5.55315474061775       -3.10650554782750        1.74657485713883
H            6.16369188507957       -3.67084436165515        0.16258828590443
H            4.43149956485661       -2.08391903494939       -0.06667212480133
H           -0.13807525565475       -1.83419222659431       -1.63402803820814
H           -1.06416705108851       -1.38095665005302       -0.18574359199331
H            0.58161176283210       -2.00925688290265       -0.03057871852286
H           -4.94011960601074        2.67101742117739       -0.21070898439625
H           -4.08770142962700        2.67935081356163        2.70866483342294
H           -5.08946252498913        1.44287083953005        1.93915493807396
H           -5.68605037231821        3.09300183575922        2.09089687176005
H           -3.05070372275238        4.57507681135833        1.22734636941569
H           -3.60455442280959        4.70166563748006       -0.45373180624230
H           -4.73829129008424        4.90668829973184        0.87030557955854
H           -1.00701128669636        2.93956915890355        2.74667310597636
72
 energy: -99.403802668537 gnorm: 0.036541363961 xtb: 6.6.1 (8d0f1dd)
N           -1.85521060150016        2.84751732639089        2.18763578470194
C           -1.81259697906127        2.13265751080182        1.16327340705525
C           -2.97179772599806        1.92241844959815        0.22439484967395
C           -3.45751795167238        0.48741034735109        0.31238056738440
C           -4.40673905465945        0.03079213164911       -0.60355191674626
C           -4.88047072344859       -1.26822530064207       -0.55886152567809
O           -5.80689641351620       -1.79286437820340       -1.38684591994859
C           -6.45667885152246       -0.96141697103887       -2.31978626569926
C           -4.37763315037025       -2.15999022477752        0.42709272356283
O           -4.88991095121916       -3.40575380421291        0.39654185935885
C           -4.50586468529903       -4.31825298479147        1.39731622897565
C           -3.43115336688968       -1.69943110809598        1.32786985353464
C           -2.98089180393315       -0.38734751122603        1.27273980503052
C           -2.43199474897140        2.17375502648001       -1.20445118594047
C           -1.53042358224707        1.06490854499930       -1.77971934427273
C           -0.18041811307418        1.01942951152672       -1.18632762193144
N            0.46852041538597       -0.03249930182014       -0.69220136152394
C            1.84564911218717        0.11895641752481       -0.27446902672426
C            2.83656554187729       -0.33780664533060       -1.36268517001019
C            4.25276449533842       -0.12648447236672       -0.90330963861221
C            4.89353074611923        1.08297177696947       -1.11936303151138
C            6.19587063004475        1.28435404958411       -0.68858733341401
C            6.88489067993378        0.27802425496682       -0.02692233814625
O            8.14875217748691        0.35831137108597        0.42805435461240
C            8.88201448897443        1.54358110900714        0.21995154338766
C            6.23355924542150       -0.96511398537616        0.20584947923051
O            6.97509808183231       -1.88775722859671        0.85035536143716
C            6.43098756517560       -3.16269310005076        1.09427919294082
C            4.93026380356567       -1.14178038123571       -0.23176243451205
C           -0.07978873258200       -1.36885585529374       -0.64698353955852
C           -4.18367357657921        2.85268631585426        0.55613098692684
C           -4.79850178670169        2.48843532743376        1.90850883796258
C           -3.85540894826597        4.34387347244835        0.53528292944195
H           -4.78900767523668        0.70387939179289       -1.35305156386716
H           -6.96244072809681       -0.12443804500005       -1.82903047584796
H           -7.19752135410022       -1.59467941887989       -2.80433462444518
H           -5.76214945667605       -0.57868753186248       -3.07466895076520
H           -4.74863150323162       -3.94141221686626        2.39532030920798
H           -5.07765551798471       -5.22278609583567        1.20244640629416
H           -3.43621888203398       -4.54523250984975        1.34237937752270
H           -3.04421535376358       -2.34852937494807        2.09576186687030
H           -2.26800333984678       -0.04919410660391        2.00850241739676
H           -3.27987147864913        2.28134208332639       -1.87955082337278
H           -1.82851717923689        3.11309065484150       -1.22491805687063
H           -2.07329575735251        0.08873552140533       -1.68174176541703
H           -1.41932376418932        1.31101054520126       -2.84537432721901
H           -0.90355849881768        1.60890144365033        0.82082468333071
H            0.38027937932387        1.94340070504847       -1.20834561644513
H            2.01182455912926       -0.46646222238599        0.63369781869639
H            2.03674728459756        1.16834484867216       -0.04081534687245
H            2.65012877975201        0.24209563293252       -2.26818936225900
H            2.67056839822470       -1.39231600643286       -1.58673369406522
H            4.38441186869153        1.87876233637389       -1.64151014342356
H            6.67090293705843        2.23234908848265       -0.88070338413804
H            8.41292078947759        2.39769968871070        0.71769142228120
H            8.99895526933673        1.76006190189600       -0.84611201722566
H            9.86047729126066        1.36245083690487        0.66064525355967
H            7.21598376205433       -3.72399994463760        1.59725119042235
H            5.55327458578967       -3.10659045588471        1.74620119686227
H            6.16414945015609       -3.67023083181277        0.16206181911592
H            4.43143948927156       -2.08416846259738       -0.06778393337317
H           -0.14873486413161       -1.81152097994826       -1.64328252245004
H           -1.07331324884448       -1.36320540705834       -0.19420079758257
H            0.57001717310887       -1.99746428032237       -0.04036693381250
H           -4.93993181291294        2.66663682227629       -0.21458184933426
H           -4.08712606383967        2.67957299288226        2.70557052495274
H           -5.09037549994670        1.44152023730493        1.93986153414707
H           -5.68414553296504        3.09334078696672        2.08522815811796
H           -3.04692417270069        4.56809120475707        1.22382961937019
H           -3.59013922511337        4.69018106983893       -0.46045775805956
H           -4.73188404549064        4.90153631130609        0.85825671495947
H           -1.00747570090448        2.93824361824271        2.73965836535004
72
 energy: -99.405639810818 gnorm: 0.009338501047 xtb: 6.6.1 (8d0f1dd)
N           -1.85064798240435        2.84245808712186        2.19005548708874
C           -1.81022013671215        2.13013133024155        1.16438464281270
C           -2.97130722273975        1.92163605804848        0.22907236893232
C           -3.45385482551265        0.48353998010608        0.31241140802582
C           -4.40671701025334        0.02604399236743       -0.60024180046803
C           -4.88222363174135       -1.27282959319370       -0.55477955258976
O           -5.80817212932176       -1.79618116967397       -1.38409371317829
C           -6.45418822393230       -0.96221440371998       -2.31747288107426
C           -4.38016958144628       -2.16521094084528        0.43097669566412
O           -4.89164088874564       -3.41161144675992        0.39938908321376
C           -4.50828118324379       -4.32561487412093        1.39935993839897
C           -3.43419130381813       -1.70377705531214        1.33189171884333
C           -2.98055998896593       -0.39223583993735        1.27463603568846
C           -2.43581089930690        2.18662444844743       -1.19958797745934
C           -1.52807559018509        1.06328245471511       -1.76851769158818
C           -0.17976235933692        1.03063026667330       -1.17068073212874
N            0.47101105800612       -0.02353602420417       -0.68853648678412
C            1.84919476250713        0.12048776856941       -0.27304282555299
C            2.83542698978803       -0.33845177488122       -1.36433158624746
C            4.25186565369685       -0.12803222140477       -0.90537012960008
C            4.89236014266809        1.08165339774158       -1.12082385004244
C            6.19432611289993        1.28351365757090       -0.68928799910808
C            6.88332041411392        0.27737093989804       -0.02736030424014
O            8.14703437462402        0.35782524533739        0.42796784621220
C            8.88061196922639        1.54286166093480        0.21953756893673
C            6.23213673715232       -0.96591030340183        0.20511836930871
O            6.97366231306517       -1.88804442939294        0.85033954772300
C            6.43017835232320       -3.16319809584945        1.09447396511583
C            4.92917263017007       -1.14308754459399       -0.23332943044374
C           -0.08748182604199       -1.35491625493488       -0.65203234135579
C           -4.18358278683491        2.85027496642051        0.55313746035354
C           -4.79902192559724        2.48904375386273        1.90499848307470
C           -3.84700997262172        4.33881216127550        0.52454579984467
H           -4.79148678406005        0.69939298914181       -1.34802673877275
H           -6.95850239109346       -0.12457174813885       -1.82636375128168
H           -7.19572328540211       -1.59262517134460       -2.80462584548962
H           -5.75691715066128       -0.58027182390055       -3.07030390496963
H           -4.75165722222932       -3.95002128062457        2.39767366708232
H           -5.07979946770816       -5.23019393756343        1.20355313502215
H           -3.43867654467765       -4.55292323547438        1.34499685451217
H           -3.04770512353157       -2.35351657136163        2.09971887804491
H           -2.26942226707260       -0.05490015329974        2.01249619962274
H           -3.28225827718757        2.30402580447441       -1.87497615112407
H           -1.87840159074548        3.13082201461013       -1.20585966636342
H           -2.02886942502490        0.09215788274991       -1.69819211884659
H           -1.40817491444972        1.29227208616573       -2.83691994074561
H           -0.89942575732689        1.61319019262133        0.81389902270561
H            0.38069925829126        1.95466994835214       -1.19570724493502
H            2.01223861412775       -0.46846823298851        0.63331675207247
H            2.04605462866930        1.16838736581413       -0.03702998895787
H            2.64927951711918        0.24124847871644       -2.27009797327737
H            2.66730378202953       -1.39274332015667       -1.58757806431683
H            4.38325937694080        1.87743672655445       -1.64303066510907
H            6.66904858274155        2.23176460154170       -0.88088160794654
H            8.41190343520198        2.39726006155258        0.71715656294047
H            8.99755938601268        1.75907227561164       -0.84658268894153
H            9.85907048603896        1.36149297907762        0.66015548913959
H            7.21546756264984       -3.72397678997373        1.59759053470353
H            5.55241830331008       -3.10743673651178        1.74635869366092
H            6.16369865828081       -3.67103215207579        0.16232753840775
H            4.43050327040851       -2.08557614054335       -0.06933875091229
H           -0.16034520478519       -1.78730140181938       -1.65268910834823
H           -1.08189918397548       -1.34339759664046       -0.20099257201767
H            0.55716210461904       -1.99196007680344       -0.04950105478461
H           -4.93711529003418        2.66212222607414       -0.21977518235031
H           -4.08782141902582        2.68263698126387        2.70157193376967
H           -5.09174067239715        1.44242023078924        1.93945316032304
H           -5.68383159331103        3.09624885468730        2.07689790162910
H           -3.04264546531870        4.56230999922214        1.21828239137098
H           -3.57023569093192        4.67559720184428       -0.47167831312528
H           -4.72355409214064        4.90219495828668        0.83636628242893
H           -1.00032459783041        2.93699383546388        2.73679406040356
72
 energy: -99.406111398918 gnorm: 0.008098956088 xtb: 6.6.1 (8d0f1dd)
N           -1.84809620503591        2.83486258705397        2.19241552207430
C           -1.80914943549963        2.12621742077525        1.16435800568194
C           -2.97014958892595        1.91695014590458        0.23081463253097
C           -3.45158983594525        0.47703792608638        0.31426597912456
C           -4.40653164317773        0.01831100102976       -0.59592918104072
C           -4.88377624520882       -1.28019834168032       -0.54963138500922
O           -5.80947713962933       -1.80157308450728       -1.38044228767702
C           -6.45052800178621       -0.96434725793179       -2.31441229821410
C           -4.38279168999262       -2.17302532809028        0.43624243735183
O           -4.89356197656290       -3.42000295448195        0.40345566282312
C           -4.51141347578973       -4.33637896260603        1.40202880551511
C           -3.43763641596080       -1.71032734828211        1.33746422538025
C           -2.98151132284723       -0.39911210558052        1.27859889244806
C           -2.42920290267803        2.18908804102027       -1.19651416853465
C           -1.52426946179807        1.07505459857564       -1.76178528933610
C           -0.17810745380302        1.05219000539579       -1.15279389388019
N            0.47306231555633       -0.00848882528362       -0.68767190698004
C            1.85251355608347        0.12261722449450       -0.27248760006740
C            2.83406795607578       -0.33933457895553       -1.36627688851352