25
 energy: -42.238005924055 gnorm: 0.002089137913 xtb: 6.6.1 (8d0f1dd)
C            3.34660804709788        1.30232360983383        0.01817495119608
N            2.42688175706454        0.19545298560502       -0.00012012229720
C            2.73315265622508       -1.11480313876963       -0.00500221532652
N            1.67491952369871       -1.90020406031701       -0.00621709685533
C            0.63291980412742       -1.06069165154883       -0.00062525606224
C            1.05951499827374        0.26570694390149        0.00385574683417
C            0.14924291196663        1.36830386785741       -0.00134781636719
O            0.37777136491219        2.54492251592452       -0.00854547164955
N           -1.21416132531927        0.88753889331534        0.00026081720857
C           -2.26290405124859        1.89763956514439       -0.00029634357811
C           -1.58110140614039       -0.39638807672484       -0.00125044060402
O           -2.87323825509504       -0.62990250313836       -0.00250306571566
N           -0.70012774843744       -1.39835952075114       -0.00203640561837
C           -1.06223654982967       -2.80511232898357       -0.00501485902742
H            3.85134726181695        1.35610680199572        0.98398946941128
H            4.09595447105284        1.17566293220957       -0.76251124367938
H            2.79779241568813        2.22720023558688       -0.14749952968690
H            3.73461030551683       -1.49407685102018       -0.00905649257208
H           -1.77731679996180        2.87184783951786        0.00728661256256
H           -2.88066061853890        1.79908833447900       -0.89136593916067
H           -2.89037867290452        1.78917157012285        0.88270358596322
H           -1.62463666547355       -3.06997485202882        0.89217756662213
H           -1.62412589106103       -3.06662849559923       -0.90282824756802
H           -3.10894116567937       -1.57164158948576       -0.00475249005075
H           -0.12045485365134       -3.35494448552647       -0.00630409607859
25
 energy: -42.238051354294 gnorm: 0.001233098116 xtb: 6.6.1 (8d0f1dd)
C            3.34548875124877        1.30534067272827        0.01822927003650
N            2.42869843853646        0.19632475773136       -0.00000370212722
C            2.73718706966506       -1.11306423432765       -0.00485611060128
N            1.67951881205476       -1.90005555982241       -0.00610975078033
C            0.63565030215099       -1.06225202078520       -0.00058229159807
C            1.06114913486946        0.26478981913062        0.00389174341677
C            0.15096058475070        1.36735215354915       -0.00140763177719
O            0.37868567381519        2.54401733277458       -0.00875361852309
N           -1.21221152987069        0.88637606655556        0.00026136520728
C           -2.26089696531727        1.89652673312282       -0.00034485707254
C           -1.57854863684799       -0.39770477450994       -0.00117988814721
O           -2.87048870340549       -0.63070828397700       -0.00234380781329
N           -0.69830630569075       -1.40032153578381       -0.00202936169074
C           -1.06827331257139       -2.80593171046867       -0.00513536651682
H            3.85020306329425        1.36021188636631        0.98397399204401
H            4.09489339354938        1.18087047031618       -0.76275189166694
H            2.79351099027272        2.22848333440603       -0.14718259420053
H            3.74068823185706       -1.48879310089428       -0.00898952794169
H           -1.77524935237182        2.87070749383027        0.00699360621571
H           -2.87869821493660        1.79789097516908       -0.89133560724633
H           -2.88826197704304        1.78832570913391        0.88274145217872
H           -1.63259207350553       -3.06700814377289        0.89152964616452
H           -1.63247096997967       -3.06335626416209       -0.90275301279650
H           -3.10620568583340       -1.57260258773792       -0.00437046122341
H           -0.13399920459112       -3.36718064697225       -0.00631997564032
