      -----------------------------------------------------------      
     |                   =====================                   |     
     |                           x T B                           |     
     |                   =====================                   |     
     |                         S. Grimme                         |     
     |          Mulliken Center for Theoretical Chemistry        |     
     |                    University of Bonn                     |     
      -----------------------------------------------------------      

   * xtb version 6.6.1 (8d0f1dd) compiled by 'conda@1efc2f54142f' on 2023-08-01

   xtb is free software: you can redistribute it and/or modify it under
   the terms of the GNU Lesser General Public License as published by
   the Free Software Foundation, either version 3 of the License, or
   (at your option) any later version.
   
   xtb is distributed in the hope that it will be useful,
   but WITHOUT ANY WARRANTY; without even the implied warranty of
   MERCHANTABILITY or FITNESS FOR A PARTICULAR PURPOSE.  See the
   GNU Lesser General Public License for more details.
   
   Cite this work as:
   * C. Bannwarth, E. Caldeweyher, S. Ehlert, A. Hansen, P. Pracht,
     J. Seibert, S. Spicher, S. Grimme, WIREs Comput. Mol. Sci., 2020, 11,
     e01493. DOI: 10.1002/wcms.1493
   
   for GFN2-xTB:
   * C. Bannwarth, S. Ehlert and S. Grimme., J. Chem. Theory Comput., 2019,
     15, 1652-1671. DOI: 10.1021/acs.jctc.8b01176
   for GFN1-xTB:
   * S. Grimme, C. Bannwarth, P. Shushkov, J. Chem. Theory Comput., 2017,
     13, 1989-2009. DOI: 10.1021/acs.jctc.7b00118
   for GFN0-xTB:
   * P. Pracht, E. Caldeweyher, S. Ehlert, S. Grimme, ChemRxiv, 2019, preprint.
     DOI: 10.26434/chemrxiv.8326202.v1
   for GFN-FF:
   * S. Spicher and S. Grimme, Angew. Chem. Int. Ed., 2020, 59, 15665-15673.
     DOI: 10.1002/anie.202004239
   
   for ALPB and GBSA implicit solvation:
   * S. Ehlert, M. Stahn, S. Spicher, S. Grimme, J. Chem. Theory Comput.,
     2021, 17, 4250-4261. DOI: 10.1021/acs.jctc.1c00471
   
   for DFT-D4:
   * E. Caldeweyher, C. Bannwarth and S. Grimme, J. Chem. Phys., 2017,
     147, 034112. DOI: 10.1063/1.4993215
   * E. Caldeweyher, S. Ehlert, A. Hansen, H. Neugebauer, S. Spicher,
     C. Bannwarth and S. Grimme, J. Chem. Phys., 2019, 150, 154122.
     DOI: 10.1063/1.5090222
   * E. Caldeweyher, J.-M. Mewes, S. Ehlert and S. Grimme, Phys. Chem. Chem. Phys.
     2020, 22, 8499-8512. DOI: 10.1039/D0CP00502A
   
   for sTDA-xTB:
   * S. Grimme and C. Bannwarth, J. Chem. Phys., 2016, 145, 054103.
     DOI: 10.1063/1.4959605
   
   in the mass-spec context:
   * V. Asgeirsson, C. Bauer and S. Grimme, Chem. Sci., 2017, 8, 4879.
     DOI: 10.1039/c7sc00601b
   * J. Koopman and S. Grimme, ACS Omega 2019, 4, 12, 15120-15133.
     DOI: 10.1021/acsomega.9b02011
   
   for metadynamics refer to:
   * S. Grimme, J. Chem. Theory Comput., 2019, 155, 2847-2862
     DOI: 10.1021/acs.jctc.9b00143
   
   for SPH calculations refer to:
   * S. Spicher and S. Grimme, J. Chem. Theory Comput., 2021, 17, 1701-1714
     DOI: 10.1021/acs.jctc.0c01306
   
   with help from (in alphabetical order)
   P. Atkinson, C. Bannwarth, F. Bohle, G. Brandenburg, E. Caldeweyher
   M. Checinski, S. Dohm, S. Ehlert, S. Ehrlich, I. Gerasimov, C. Hölzer
   A. Katbashev, J. Koopman, C. Lavigne, S. Lehtola, F. März, M. Müller,
   F. Musil, H. Neugebauer, J. Pisarek, C. Plett, P. Pracht, F. Pultar,
   J. Seibert, P. Shushkov, S. Spicher, M. Stahn, M. Steiner, T. Strunk,
   J. Stückrath, T. Rose, and J. Unsleber
   
 * started run on 2024/06/05 at 19:58:02.898     

           -------------------------------------------------
          |                Calculation Setup                |
           -------------------------------------------------

          program call               : xtb struc.xyz --opt loose --input .xc1 --gfn2
          hostname                   : n-62-21-71
          coordinate file            : struc.xyz
          omp threads                :                     1

   ID    Z sym.   atoms
    1    6 C      1, 3, 5-7, 10, 11, 14
    2    7 N      2, 4, 9, 13
    3    8 O      8, 12
    4    1 H      15-25
constraining bond 9 21 to    4.0600000 Å, actual value:    2.0945494 Å

           -------------------------------------------------
          |                 G F N 2 - x T B                 |
           -------------------------------------------------

        Reference                      10.1021/acs.jctc.8b01176
      * Hamiltonian:
        H0-scaling (s, p, d)           1.850000    2.230000    2.230000
        zeta-weighting                 0.500000
      * Dispersion:
        s8                             2.700000
        a1                             0.520000
        a2                             5.000000
        s9                             5.000000
      * Repulsion:
        kExp                           1.500000    1.000000
        rExp                           1.000000
      * Coulomb:
        alpha                          2.000000
        third order                    shell-resolved
        anisotropic                    true
        a3                             3.000000
        a5                             4.000000
        cn-shift                       1.200000
        cn-exp                         4.000000
        max-rad                        5.000000


          ...................................................
          :                      SETUP                      :
          :.................................................:
          :  # basis functions                  67          :
          :  # atomic orbitals                  67          :
          :  # shells                           39          :
          :  # electrons                        74          :
          :  max. iterations                   250          :
          :  Hamiltonian                  GFN2-xTB          :
          :  restarted?                      false          :
          :  GBSA solvation                  false          :
          :  PC potential                    false          :
          :  electronic temp.         2500.0000000     K    :
          :  accuracy                    1.0000000          :
          :  -> integral cutoff          0.2500000E+02      :
          :  -> integral neglect         0.1000000E-07      :
          :  -> SCF convergence          0.1000000E-05 Eh   :
          :  -> wf. convergence          0.1000000E-03 e    :
          :  Broyden damping             0.4000000          :
          ...................................................

 iter      E             dE          RMSdq      gap      omega  full diag
   1    -42.5894761 -0.425895E+02  0.446E+00    3.52       0.0  T
   2    -42.7660496 -0.176573E+00  0.253E+00    3.37       1.0  T
   3    -42.7736311 -0.758158E-02  0.147E+00    3.27       1.0  T
   4    -42.7712089  0.242228E-02  0.522E-01    3.20       1.0  T
   5    -42.7763755 -0.516665E-02  0.115E-01    3.24       1.0  T
   6    -42.7764786 -0.103096E-03  0.599E-02    3.22       1.0  T
   7    -42.7764977 -0.190557E-04  0.265E-02    3.24       1.0  T
   8    -42.7765022 -0.458752E-05  0.826E-03    3.24       2.4  T
   9    -42.7765028 -0.511866E-06  0.435E-03    3.24       4.6  T
  10    -42.7765028 -0.741126E-07  0.110E-03    3.24      18.2  T
  11    -42.7765028 -0.615289E-08  0.514E-04    3.24      38.9  T
  12    -42.7765028 -0.131732E-08  0.162E-04    3.24     123.6  T

   *** convergence criteria satisfied after 12 iterations ***

         #    Occupation            Energy/Eh            Energy/eV
      -------------------------------------------------------------
         1        2.0000           -0.9218663             -25.0853
       ...           ...                  ...                  ...
        31        2.0000           -0.6245728             -16.9955
        32        2.0000           -0.6188521             -16.8398
        33        2.0000           -0.5946289             -16.1807
        34        1.9999           -0.5766508             -15.6915
        35        1.9996           -0.5616187             -15.2824
        36        1.9994           -0.5584494             -15.1962
        37        1.9993           -0.5575820             -15.1726 (HOMO)
        38        0.0017           -0.4385664             -11.9340 (LUMO)
        39        0.0000           -0.4059970             -11.0477
        40        0.0000           -0.3720875             -10.1250
        41                         -0.2883077              -7.8453
        42                         -0.2064013              -5.6165
       ...                                ...                  ...
        67                          0.5638960              15.3444
      -------------------------------------------------------------
                  HL-Gap            0.1190156 Eh            3.2386 eV
             Fermi-level           -0.4943591 Eh          -13.4522 eV

 SCC (total)                   0 d,  0 h,  0 min,  0.062 sec
 SCC setup                      ...        0 min,  0.000 sec (  0.367%)
 Dispersion                     ...        0 min,  0.000 sec (  0.470%)
 classical contributions        ...        0 min,  0.000 sec (  0.129%)
 integral evaluation            ...        0 min,  0.005 sec (  8.460%)
 iterations                     ...        0 min,  0.030 sec ( 48.476%)
 molecular gradient             ...        0 min,  0.026 sec ( 41.825%)
 printout                       ...        0 min,  0.000 sec (  0.251%)

         :::::::::::::::::::::::::::::::::::::::::::::::::::::
         ::                     SUMMARY                     ::
         :::::::::::::::::::::::::::::::::::::::::::::::::::::
         :: total energy             -35.347780061360 Eh    ::
         :: gradient norm              5.252575024066 Eh/a0 ::
         :: HOMO-LUMO gap              3.238579380711 eV    ::
         ::.................................................::
         :: SCC energy               -42.776502838750 Eh    ::
         :: -> isotropic ES            0.143394945287 Eh    ::
         :: -> anisotropic ES         -0.005231236584 Eh    ::
         :: -> anisotropic XC          0.012162721064 Eh    ::
         :: -> dispersion             -0.022660936007 Eh    ::
         :: repulsion energy           0.531105277918 Eh    ::
         :: add. restraining           6.897503340463 Eh    ::
         :: total charge               1.000000000000 e     ::
         :::::::::::::::::::::::::::::::::::::::::::::::::::::

      ----------------------------------------------------------- 
     |                   =====================                   |
     |                        A N C O P T                        |
     |                   =====================                   |
     |               Approximate Normal Coordinate               |
     |                Rational Function Optimizer                |
      ----------------------------------------------------------- 

          ...................................................
          :                      SETUP                      :
          :.................................................:
          :   optimization level             loose          :
          :   max. optcycles                   200          :
          :   ANC micro-cycles                  20          :
          :   degrees of freedom                69          :
          :.................................................:
          :   RF solver                   davidson          :
          :   write xtbopt.log                true          :
          :   linear?                        false          :
          :   energy convergence         0.5000000E-04 Eh   :
          :   grad. convergence          0.4000000E-02 Eh/α :
          :   maxmium RF displ.          1.0000000          :
          :   Hlow (freq-cutoff)         0.1000000E-01      :
          :   Hmax (freq-cutoff)         5.0000000          :
          :   S6 in model hess.         20.0000000          :
          ...................................................

generating ANC from model Hessian ...
Using Lindh-Hessian (1995)
 Shifting diagonal of input Hessian by    1.6548040162557129     
 Lowest  eigenvalues of input Hessian
    0.010000    0.242847    0.000000    0.000000    0.000000    0.000000
    0.000000    0.000000    1.657685    1.661093    1.663479    1.664945
    1.666282    1.667004    1.672505    1.673229    1.678006    1.686287
 Highest eigenvalues
    3.799751    3.877377    3.934029    4.052255    4.119239    4.572247


........................................................................
.............................. CYCLE    1 ..............................
........................................................................

 iter      E             dE          RMSdq      gap      omega  full diag
   1    -42.7765028 -0.427765E+02  0.540E-05    3.24       0.0  T
   2    -42.7765028 -0.643041E-11  0.289E-05    3.24     692.1  T
   3    -42.7765028  0.881073E-12  0.138E-05    3.24    1448.6  T
     SCC iter.                  ...        0 min,  0.005 sec
     gradient                   ...        0 min,  0.021 sec
 * total energy  :   -35.3477801 Eh     change       -0.6633627E-10 Eh
   gradient norm :     5.2525750 Eh/α   predicted     0.0000000E+00 (-100.00%)
   displ. norm   :     0.6789459 α      lambda       -0.3543292E+01
   maximum displ.:     0.5726411 α      in ANC's #69, #60, #68, ...

........................................................................
.............................. CYCLE    2 ..............................
........................................................................

 iter      E             dE          RMSdq      gap      omega  full diag
   1    -42.7148168 -0.427148E+02  0.810E-01    3.27       0.0  T
   2    -42.7159370 -0.112021E-02  0.443E-01    3.20       1.0  T
   3    -42.7159521 -0.151267E-04  0.148E-01    3.18       1.0  T
   4    -42.7160373 -0.852072E-04  0.302E-02    3.19       1.0  T
   5    -42.7160420 -0.468989E-05  0.167E-02    3.19       1.2  T
   6    -42.7160439 -0.186567E-05  0.749E-03    3.19       2.7  T
   7    -42.7160444 -0.496339E-06  0.142E-03    3.19      14.1  T
   8    -42.7160444 -0.117007E-07  0.746E-04    3.19      26.8  T
   9    -42.7160444 -0.135220E-08  0.325E-04    3.19      61.6  T
     SCC iter.                  ...        0 min,  0.025 sec
     gradient                   ...        0 min,  0.013 sec
 * total energy  :   -38.3774018 Eh     change       -0.3029622E+01 Eh
   gradient norm :     3.7227202 Eh/α   predicted    -0.2592653E+01 ( -14.42%)
   displ. norm   :     0.7470902 α      lambda       -0.2769634E+01
   maximum displ.:     0.6234016 α      in ANC's #69, #60, #68, ...

........................................................................
.............................. CYCLE    3 ..............................
........................................................................

 iter      E             dE          RMSdq      gap      omega  full diag
   1    -42.5854520 -0.425855E+02  0.720E-01    2.93       0.0  T
   2    -42.5865282 -0.107621E-02  0.382E-01    2.97       1.0  T
   3    -42.5861521  0.376127E-03  0.291E-01    2.88       1.0  T
   4    -42.5871301 -0.977975E-03  0.637E-02    2.93       1.0  T
   5    -42.5872216 -0.915479E-04  0.249E-02    2.93       1.0  T
   6    -42.5872292 -0.761918E-05  0.119E-02    2.92       1.7  T
   7    -42.5872297 -0.442407E-06  0.299E-03    2.93       6.7  T
   8    -42.5872298 -0.104289E-06  0.129E-03    2.93      15.5  T
   9    -42.5872298 -0.118430E-07  0.551E-04    2.93      36.3  T
  10    -42.5872298 -0.196692E-08  0.236E-04    2.93      84.8  T
     SCC iter.                  ...        0 min,  0.014 sec
     gradient                   ...        0 min,  0.013 sec
 * total energy  :   -40.5701356 Eh     change       -0.2192734E+01 Eh
   gradient norm :     2.1809760 Eh/α   predicted    -0.2157745E+01 (  -1.60%)
   displ. norm   :     0.6543901 α      lambda       -0.1408505E+01
   maximum displ.:     0.5097891 α      in ANC's #69, #60, #68, ...

........................................................................
.............................. CYCLE    4 ..............................
........................................................................

 iter      E             dE          RMSdq      gap      omega  full diag
   1    -42.4593410 -0.424593E+02  0.614E-01    1.84       0.0  T
   2    -42.4615467 -0.220569E-02  0.397E-01    1.98       1.0  T
   3    -42.4617980 -0.251313E-03  0.301E-01    1.99       1.0  T
   4    -42.4616690  0.129043E-03  0.250E-01    1.95       1.0  T
   5    -42.4635002 -0.183126E-02  0.404E-02    1.97       1.0  T
   6    -42.4635117 -0.115298E-04  0.139E-02    1.97       1.4  T
   7    -42.4635134 -0.167155E-05  0.826E-03    1.97       2.4  T
   8    -42.4635140 -0.607322E-06  0.362E-03    1.97       5.5  T
   9    -42.4635142 -0.142469E-06  0.102E-03    1.97      19.7  T
  10    -42.4635142 -0.121887E-07  0.471E-04    1.97      42.5  T
  11    -42.4635142 -0.176489E-08  0.195E-04    1.97     102.7  T
     SCC iter.                  ...        0 min,  0.015 sec
     gradient                   ...        0 min,  0.013 sec
 * total energy  :   -41.5866137 Eh     change       -0.1016478E+01 Eh
   gradient norm :     0.9563205 Eh/α   predicted    -0.1005836E+01 (  -1.05%)
   displ. norm   :     0.4886119 α      lambda       -0.4266789E+00
   maximum displ.:     0.3094345 α      in ANC's #69, #1, #60, ...

........................................................................
.............................. CYCLE    5 ..............................
........................................................................

 iter      E             dE          RMSdq      gap      omega  full diag
   1    -42.3862390 -0.423862E+02  0.688E-01    1.30       0.0  T
   2    -42.3436042  0.426347E-01  0.128E+00    1.30       1.0  T
   3    -42.3909416 -0.473374E-01  0.439E-01    1.34       1.0  T
   4    -42.3950553 -0.411369E-02  0.243E-01    1.33       1.0  T
   5    -42.3957552 -0.699900E-03  0.112E-01    1.31       1.0  T
   6    -42.3960408 -0.285601E-03  0.229E-02    1.32       1.0  T
   7    -42.3960530 -0.122335E-04  0.859E-03    1.32       2.3  T
   8    -42.3960527  0.298476E-06  0.705E-03    1.32       2.8  T
   9    -42.3960536 -0.862654E-06  0.291E-03    1.32       6.9  T
  10    -42.3960538 -0.238889E-06  0.587E-04    1.32      34.1  T
  11    -42.3960538 -0.336236E-08  0.205E-04    1.32      97.5  T
     SCC iter.                  ...        0 min,  0.015 sec
     gradient                   ...        0 min,  0.013 sec
 * total energy  :   -41.8468413 Eh     change       -0.2602276E+00 Eh
   gradient norm :     0.2320103 Eh/α   predicted    -0.2642725E+00 (   1.55%)
   displ. norm   :     0.6668023 α      lambda       -0.6520101E-01
   maximum displ.:     0.6560645 α      in ANC's #1, #33, #45, ...

........................................................................
.............................. CYCLE    6 ..............................
........................................................................

 iter      E             dE          RMSdq      gap      omega  full diag
   1    -42.3457770 -0.423458E+02  0.106E+00    1.36       0.0  T
   2    -42.1196400  0.226137E+00  0.287E+00    1.17       1.0  T
   3    -42.3762237 -0.256584E+00  0.445E-01    1.18       1.0  T
   4    -42.3731104  0.311336E-02  0.480E-01    1.21       1.0  T
   5    -42.3775548 -0.444447E-02  0.178E-01    1.16       1.0  T
   6    -42.3781232 -0.568341E-03  0.636E-02    1.19       1.0  T
   7    -42.3782424 -0.119216E-03  0.132E-02    1.20       1.5  T
   8    -42.3782443 -0.191610E-05  0.660E-03    1.20       3.0  T
   9    -42.3782445 -0.220860E-06  0.267E-03    1.20       7.5  T
  10    -42.3782446 -0.566988E-07  0.102E-03    1.20      19.6  T
  11    -42.3782446 -0.316567E-08  0.730E-04    1.20      27.4  T
  12    -42.3782446 -0.124527E-07  0.166E-04    1.20     120.2  T
     SCC iter.                  ...        0 min,  0.016 sec
     gradient                   ...        0 min,  0.013 sec
 * total energy  :   -41.8798765 Eh     change       -0.3303514E-01 Eh
   gradient norm :     0.2090741 Eh/α   predicted    -0.4709562E-01 (  42.56%)
   displ. norm   :     0.2627430 α      lambda       -0.2015071E-01
   maximum displ.:     0.2261713 α      in ANC's #1, #37, #33, ...

........................................................................
.............................. CYCLE    7 ..............................
........................................................................

 iter      E             dE          RMSdq      gap      omega  full diag
   1    -42.4019623 -0.424020E+02  0.314E-01    1.26       0.0  T
   2    -42.4006205  0.134186E-02  0.356E-01    1.29       1.0  T
   3    -42.4019308 -0.131032E-02  0.206E-01    1.24       1.0  T
   4    -42.4009538  0.977039E-03  0.286E-01    1.27       1.0  T
   5    -42.4030967 -0.214297E-02  0.593E-02    1.26       1.0  T
   6    -42.4031716 -0.748839E-04  0.808E-03    1.25       2.5  T
   7    -42.4031725 -0.888164E-06  0.461E-03    1.25       4.3  T
   8    -42.4031728 -0.261871E-06  0.208E-03    1.25       9.6  T
   9    -42.4031728 -0.606548E-07  0.505E-04    1.25      39.6  T
  10    -42.4031728 -0.202686E-08  0.265E-04    1.25      75.6  T
     SCC iter.                  ...        0 min,  0.014 sec
     gradient                   ...        0 min,  0.013 sec
 * total energy  :   -41.8969758 Eh     change       -0.1709935E-01 Eh
   gradient norm :     0.1779069 Eh/α   predicted    -0.1077407E-01 ( -36.99%)
   displ. norm   :     0.4774043 α      lambda       -0.6740298E-01
   maximum displ.:     0.2056777 α      in ANC's #37, #33, #35, ...

........................................................................
.............................. CYCLE    8 ..............................
........................................................................

 iter      E             dE          RMSdq      gap      omega  full diag
   1    -42.4523618 -0.424524E+02  0.781E-01    1.53       0.0  T
   2    -42.4268852  0.254766E-01  0.101E+00    1.40       1.0  T
   3    -42.4481577 -0.212726E-01  0.672E-01    1.49       1.0  T
   4    -42.4590788 -0.109211E-01  0.180E-01    1.46       1.0  T
   5    -42.4593163 -0.237460E-03  0.786E-02    1.45       1.0  T
   6    -42.4594425 -0.126207E-03  0.140E-02    1.45       1.4  T
   7    -42.4594435 -0.103072E-05  0.696E-03    1.45       2.9  T
   8    -42.4594439 -0.379895E-06  0.192E-03    1.45      10.4  T
   9    -42.4594439 -0.144249E-07  0.790E-04    1.45      25.3  T
  10    -42.4594439  0.415469E-09  0.466E-04    1.45      42.9  T
     SCC iter.                  ...        0 min,  0.014 sec
     gradient                   ...        0 min,  0.013 sec
 * total energy  :   -41.9432584 Eh     change       -0.4628258E-01 Eh
   gradient norm :     0.1087624 Eh/α   predicted    -0.4138262E-01 ( -10.59%)
   displ. norm   :     0.3414744 α      lambda       -0.2240090E-01
   maximum displ.:     0.1511663 α      in ANC's #37, #33, #35, ...

........................................................................
.............................. CYCLE    9 ..............................
........................................................................

 iter      E             dE          RMSdq      gap      omega  full diag
   1    -42.4717375 -0.424717E+02  0.466E-01    1.49       0.0  T
   2    -42.4614967  0.102407E-01  0.630E-01    1.43       1.0  T
   3    -42.4706339 -0.913716E-02  0.374E-01    1.47       1.0  T
   4    -42.4737170 -0.308308E-02  0.101E-01    1.46       1.0  T
   5    -42.4738100 -0.930198E-04  0.431E-02    1.46       1.0  T
   6    -42.4738548 -0.448175E-04  0.827E-03    1.46       2.4  T
   7    -42.4738548  0.292079E-07  0.434E-03    1.46       4.6  T
   8    -42.4738550 -0.235349E-06  0.167E-03    1.46      12.0  T
   9    -42.4738551 -0.478801E-07  0.555E-04    1.46      36.0  T
  10    -42.4738551 -0.650353E-09  0.257E-04    1.46      77.7  T
     SCC iter.                  ...        0 min,  0.014 sec
     gradient                   ...        0 min,  0.013 sec
 * total energy  :   -41.9581579 Eh     change       -0.1489953E-01 Eh
   gradient norm :     0.1137222 Eh/α   predicted    -0.1250650E-01 ( -16.06%)
   displ. norm   :     0.1955228 α      lambda       -0.8952456E-02
   maximum displ.:     0.0936410 α      in ANC's #33, #37, #35, ...

........................................................................
.............................. CYCLE   10 ..............................
........................................................................

 iter      E             dE          RMSdq      gap      omega  full diag
   1    -42.4814915 -0.424815E+02  0.231E-01    1.45       0.0  T
   2    -42.4790985  0.239304E-02  0.301E-01    1.44       1.0  T
   3    -42.4809252 -0.182671E-02  0.204E-01    1.45       1.0  T
   4    -42.4818334 -0.908202E-03  0.452E-02    1.45       1.0  T
   5    -42.4818603 -0.268770E-04  0.137E-02    1.45       1.5  T
   6    -42.4818641 -0.383514E-05  0.519E-03    1.45       3.9  T
   7    -42.4818643 -0.163314E-06  0.252E-03    1.45       7.9  T
   8    -42.4818643 -0.861781E-07  0.707E-04    1.45      28.3  T
   9    -42.4818643 -0.546944E-08  0.315E-04    1.45      63.4  T
     SCC iter.                  ...        0 min,  0.012 sec
     gradient                   ...        0 min,  0.013 sec
 * total energy  :   -41.9649218 Eh     change       -0.6763809E-02 Eh
   gradient norm :     0.0946787 Eh/α   predicted    -0.4647525E-02 ( -31.29%)
   displ. norm   :     0.2142764 α      lambda       -0.9772201E-02
   maximum displ.:     0.1042378 α      in ANC's #33, #1, #37, ...

........................................................................
.............................. CYCLE   11 ..............................
........................................................................

 iter      E             dE          RMSdq      gap      omega  full diag
   1    -42.4945576 -0.424946E+02  0.248E-01    1.41       0.0  T
   2    -42.4933287  0.122891E-02  0.235E-01    1.43       1.0  T
   3    -42.4927239  0.604783E-03  0.292E-01    1.43       1.0  T
   4    -42.4948496 -0.212571E-02  0.455E-02    1.42       1.0  T
   5    -42.4948634 -0.137215E-04  0.132E-02    1.42       1.5  T
   6    -42.4948664 -0.299551E-05  0.620E-03    1.42       3.2  T
   7    -42.4948667 -0.365478E-06  0.259E-03    1.42       7.7  T
   8    -42.4948668 -0.601191E-07  0.932E-04    1.42      21.5  T
   9    -42.4948668 -0.632306E-08  0.510E-04    1.42      39.2  T
     SCC iter.                  ...        0 min,  0.012 sec
     gradient                   ...        0 min,  0.013 sec
 * total energy  :   -41.9716163 Eh     change       -0.6694500E-02 Eh
   gradient norm :     0.0634704 Eh/α   predicted    -0.5110454E-02 ( -23.66%)
   displ. norm   :     0.1457931 α      lambda       -0.5203379E-02
   maximum displ.:     0.0906279 α      in ANC's #1, #33, #12, ...

........................................................................
.............................. CYCLE   12 ..............................
........................................................................

 iter      E             dE          RMSdq      gap      omega  full diag
   1    -42.5054883 -0.425055E+02  0.198E-01    1.39       0.0  T
   2    -42.5055806 -0.922954E-04  0.947E-02    1.40       1.0  T
   3    -42.5052297  0.350905E-03  0.139E-01    1.40       1.0  T
   4    -42.5054268 -0.197116E-03  0.792E-02    1.40       1.0  T
   5    -42.5056211 -0.194282E-03  0.132E-02    1.40       1.5  T
   6    -42.5056255 -0.441923E-05  0.372E-03    1.40       5.4  T
   7    -42.5056256 -0.829539E-07  0.253E-03    1.40       7.9  T
   8    -42.5056257 -0.925357E-07  0.521E-04    1.40      38.4  T
   9    -42.5056257 -0.123258E-08  0.272E-04    1.40      73.5  T
     SCC iter.                  ...        0 min,  0.012 sec
     gradient                   ...        0 min,  0.013 sec
 * total energy  :   -41.9754456 Eh     change       -0.3829360E-02 Eh
   gradient norm :     0.0770612 Eh/α   predicted    -0.2657082E-02 ( -30.61%)
   displ. norm   :     0.1865277 α      lambda       -0.6023430E-02
   maximum displ.:     0.1213657 α      in ANC's #1, #33, #43, ...

........................................................................
.............................. CYCLE   13 ..............................
........................................................................

 iter      E             dE          RMSdq      gap      omega  full diag
   1    -42.5143085 -0.425143E+02  0.277E-01    1.35       0.0  T
   2    -42.5144471 -0.138594E-03  0.135E-01    1.36       1.0  T
   3    -42.5142602  0.186868E-03  0.117E-01    1.36       1.0  T
   4    -42.5137875  0.472729E-03  0.168E-01    1.35       1.0  T
   5    -42.5145380 -0.750481E-03  0.150E-02    1.36       1.3  T
   6    -42.5145441 -0.615101E-05  0.429E-03    1.36       4.7  T
   7    -42.5145443 -0.193677E-06  0.268E-03    1.36       7.5  T
   8    -42.5145444 -0.911479E-07  0.430E-04    1.36      46.5  T
   9    -42.5145444 -0.366612E-08  0.168E-04    1.36     118.8  T
     SCC iter.                  ...        0 min,  0.012 sec
     gradient                   ...        0 min,  0.013 sec
 * total energy  :   -41.9802765 Eh     change       -0.4830904E-02 Eh
   gradient norm :     0.1016599 Eh/α   predicted    -0.3116534E-02 ( -35.49%)
   displ. norm   :     0.3457340 α      lambda       -0.1131321E-01
   maximum displ.:     0.2110924 α      in ANC's #1, #33, #35, ...

........................................................................
.............................. CYCLE   14 ..............................
........................................................................

 iter      E             dE          RMSdq      gap      omega  full diag
   1    -42.5180141 -0.425180E+02  0.548E-01    1.22       0.0  T
   2    -42.5173471  0.667068E-03  0.322E-01    1.24       1.0  T
   3    -42.5066815  0.106655E-01  0.709E-01    1.23       1.0  T
   4    -42.5185884 -0.119068E-01  0.166E-01    1.24       1.0  T
   5    -42.5191540 -0.565588E-03  0.189E-02    1.24       1.1  T
   6    -42.5191607 -0.676056E-05  0.753E-03    1.24       2.7  T
   7    -42.5191612 -0.431766E-06  0.452E-03    1.24       4.4  T
   8    -42.5191613 -0.990202E-07  0.148E-03    1.24      13.5  T
   9    -42.5191613 -0.521987E-07  0.233E-04    1.24      85.8  T
  10    -42.5191613  0.162416E-09  0.167E-04    1.24     119.4  T
     SCC iter.                  ...        0 min,  0.014 sec
     gradient                   ...        0 min,  0.013 sec
 * total energy  :   -41.9892745 Eh     change       -0.8997944E-02 Eh
   gradient norm :     0.1229716 Eh/α   predicted    -0.6332751E-02 ( -29.62%)
   displ. norm   :     0.4699612 α      lambda       -0.1518591E-01
   maximum displ.:     0.2735975 α      in ANC's #1, #33, #57, ...

........................................................................
.............................. CYCLE   15 ..............................
........................................................................

 iter      E             dE          RMSdq      gap      omega  full diag
   1    -42.5068559 -0.425069E+02  0.817E-01    1.00       0.0  T
   2    -42.4691600  0.376959E-01  0.120E+00    1.16       1.0  T
   3    -42.4766079 -0.744792E-02  0.118E+00    1.04       1.0  T
   4    -42.5113025 -0.346946E-01  0.185E-01    1.02       1.0  T
   5    -42.5115006 -0.198118E-03  0.301E-02    1.02       1.0  T
   6    -42.5115110 -0.103856E-04  0.153E-02    1.02       1.3  T
   7    -42.5115122 -0.121318E-05  0.757E-03    1.02       2.6  T
   8    -42.5115129 -0.605758E-06  0.185E-03    1.02      10.8  T
   9    -42.5115129 -0.571082E-07  0.462E-04    1.02      43.3  T
  10    -42.5115129  0.345750E-09  0.273E-04    1.02      73.2  T
     SCC iter.                  ...        0 min,  0.014 sec
     gradient                   ...        0 min,  0.013 sec
 * total energy  :   -42.0013409 Eh     change       -0.1206641E-01 Eh
   gradient norm :     0.1415078 Eh/α   predicted    -0.9269957E-02 ( -23.18%)
   displ. norm   :     0.4776259 α      lambda       -0.1773516E-01
   maximum displ.:     0.2630623 α      in ANC's #1, #33, #57, ...

........................................................................
.............................. CYCLE   16 ..............................
........................................................................

 iter      E             dE          RMSdq      gap      omega  full diag
   1    -42.4841031 -0.424841E+02  0.973E-01    0.77       0.0  T
   2    -42.3416096  0.142494E+00  0.229E+00    1.29       1.0  T
   3    -42.4759392 -0.134330E+00  0.920E-01    0.79       1.0  T
   4    -42.4958465 -0.199073E-01  0.152E-01    0.78       1.0  T
   5    -42.4959115 -0.649402E-04  0.419E-02    0.78       1.0  T
   6    -42.4959341 -0.225878E-04  0.145E-02    0.78       1.4  T
   7    -42.4959313  0.279849E-05  0.135E-02    0.78       1.5  T
   8    -42.4959347 -0.345151E-05  0.478E-03    0.78       4.2  T
   9    -42.4959352 -0.490968E-06  0.913E-04    0.78      21.9  T
  10    -42.4959352  0.204761E-08  0.708E-04    0.78      28.3  T
     SCC iter.                  ...        0 min,  0.014 sec
     gradient                   ...        0 min,  0.013 sec
 * total energy  :   -42.0147768 Eh     change       -0.1343597E-01 Eh
   gradient norm :     0.1548147 Eh/α   predicted    -0.1089051E-01 ( -18.95%)
   displ. norm   :     0.3271847 α      lambda       -0.2003480E-01
   maximum displ.:     0.1664145 α      in ANC's #1, #57, #55, ...

........................................................................
.............................. CYCLE   17 ..............................
........................................................................

 iter      E             dE          RMSdq      gap      omega  full diag
   1    -42.4815714 -0.424816E+02  0.790E-01    0.60       0.0  T
   2    -42.3255430  0.156028E+00  0.239E+00    1.14       1.0  T
   3    -42.4865455 -0.161002E+00  0.512E-01    0.61       1.0  T
   4    -42.4921078 -0.556233E-02  0.118E-01    0.60       1.0  T
   5    -42.4921377 -0.299016E-04  0.416E-02    0.61       1.0  T
   6    -42.4921766 -0.389255E-04  0.116E-02    0.61       1.7  T
   7    -42.4921738  0.286321E-05  0.130E-02    0.61       1.5  T
   8    -42.4921765 -0.273823E-05  0.579E-03    0.61       3.5  T
   9    -42.4921773 -0.804772E-06  0.827E-04    0.61      24.2  T
  10    -42.4921773  0.140718E-07  0.972E-04    0.61      20.6  T
     SCC iter.                  ...        0 min,  0.014 sec
     gradient                   ...        0 min,  0.013 sec
 * total energy  :   -42.0299711 Eh     change       -0.1519422E-01 Eh
   gradient norm :     0.1481080 Eh/α   predicted    -0.1108993E-01 ( -27.01%)
   displ. norm   :     0.2659648 α      lambda       -0.2318921E-01
   maximum displ.:     0.1192300 α      in ANC's #1, #57, #55, ...

........................................................................
.............................. CYCLE   18 ..............................
........................................................................

 iter      E             dE          RMSdq      gap      omega  full diag
   1    -42.5042807 -0.425043E+02  0.597E-01    0.48       0.0  T
   2    -42.3925893  0.111691E+00  0.202E+00    0.86       1.0  T
   3    -42.5088214 -0.116232E+00  0.308E-01    0.49       1.0  T
   4    -42.5103454 -0.152403E-02  0.119E-01    0.49       1.0  T
   5    -42.5104419 -0.965558E-04  0.539E-02    0.49       1.0  T
   6    -42.5105117 -0.697580E-04  0.148E-02    0.49       1.4  T
   7    -42.5105128 -0.107606E-05  0.100E-02    0.49       2.0  T
   8    -42.5105146 -0.186279E-05  0.328E-03    0.49       6.1  T
   9    -42.5105149 -0.244349E-06  0.597E-04    0.49      33.5  T
  10    -42.5105149  0.596359E-08  0.688E-04    0.49      29.1  T
     SCC iter.                  ...        0 min,  0.014 sec
     gradient                   ...        0 min,  0.013 sec
 * total energy  :   -42.0454681 Eh     change       -0.1549702E-01 Eh
   gradient norm :     0.1322255 Eh/α   predicted    -0.1241489E-01 ( -19.89%)
   displ. norm   :     0.1466766 α      lambda       -0.1092666E-01
   maximum displ.:     0.0533821 α      in ANC's #50, #57, #55, ...

........................................................................
.............................. CYCLE   19 ..............................
........................................................................

 iter      E             dE          RMSdq      gap      omega  full diag
   1    -42.5282904 -0.425283E+02  0.408E-01    0.45       0.0  T
   2    -42.4470508  0.812397E-01  0.172E+00    0.72       1.0  T
   3    -42.5319870 -0.849362E-01  0.115E-01    0.44       1.0  T
   4    -42.5319797  0.728215E-05  0.648E-02    0.44       1.0  T
   5    -42.5319952 -0.154771E-04  0.215E-02    0.44       1.0  T
   6    -42.5320062 -0.109715E-04  0.853E-03    0.44       2.3  T
   7    -42.5320066 -0.394055E-06  0.615E-03    0.44       3.3  T
   8    -42.5320073 -0.740133E-06  0.696E-04    0.44      28.7  T
   9    -42.5320073 -0.591710E-08  0.347E-04    0.44      57.6  T
     SCC iter.                  ...        0 min,  0.012 sec
     gradient                   ...        0 min,  0.013 sec
 * total energy  :   -42.0533221 Eh     change       -0.7854044E-02 Eh
   gradient norm :     0.1161564 Eh/α   predicted    -0.5581254E-02 ( -28.94%)
   displ. norm   :     0.2859130 α      lambda       -0.1453582E-01
   maximum displ.:     0.2047859 α      in ANC's #1, #57, #55, ...

........................................................................
.............................. CYCLE   20 ..............................
........................................................................

 iter      E             dE          RMSdq      gap      omega  full diag
   1    -42.5521856 -0.425522E+02  0.584E-01    0.39       0.0  T
   2    -42.3990080  0.153178E+00  0.235E+00    0.90       1.0  T
   3    -42.5603944 -0.161386E+00  0.159E-01    0.35       1.0  T
   4    -42.5605024 -0.108041E-03  0.950E-02    0.36       1.0  T
   5    -42.5605387 -0.362188E-04  0.434E-02    0.36       1.0  T
   6    -42.5605815 -0.428635E-04  0.906E-03    0.36       2.2  T
   7    -42.5605827 -0.118494E-05  0.550E-03    0.36       3.6  T
   8    -42.5605830 -0.268201E-06  0.282E-03    0.36       7.1  T
   9    -42.5605832 -0.181520E-06  0.609E-04    0.36      32.8  T
  10    -42.5605832 -0.618859E-08  0.233E-04    0.36      85.9  T
     SCC iter.                  ...        0 min,  0.014 sec
     gradient                   ...        0 min,  0.013 sec
 * total energy  :   -42.0587584 Eh     change       -0.5436311E-02 Eh
   gradient norm :     0.1175921 Eh/α   predicted    -0.7862145E-02 (  44.62%)
   displ. norm   :     0.2968989 α      lambda       -0.1271494E-01
   maximum displ.:     0.2028536 α      in ANC's #1, #33, #15, ...
 * RMSD in coord.:     0.7532805 α      energy gain  -0.6710978E+01 Eh

generating ANC from model Hessian ...
Using Lindh-Hessian (1995)
 Shifting diagonal of input Hessian by    1.4465743347152595E-002
 Lowest  eigenvalues of input Hessian
    0.010000    0.010088    0.000000    0.000000    0.000000    0.000000
    0.000000    0.000000    0.017033    0.018560    0.020063    0.023485
    0.024753    0.026513    0.026565    0.030108    0.032332    0.037817
 Highest eigenvalues
    2.088582    2.198213    2.263967    2.397041    2.533176    2.953203


........................................................................
.............................. CYCLE   21 ..............................
........................................................................

 iter      E             dE          RMSdq      gap      omega  full diag
   1    -42.5837282 -0.425837E+02  0.302E-01    0.40       0.0  T
   2    -42.5575615  0.261667E-01  0.100E+00    0.49       1.0  T
   3    -42.5853097 -0.277482E-01  0.137E-01    0.39       1.0  T
   4    -42.5851638  0.145884E-03  0.136E-01    0.39       1.0  T
   5    -42.5854213 -0.257459E-03  0.509E-02    0.39       1.0  T
   6    -42.5854873 -0.660407E-04  0.577E-03    0.39       3.5  T
   7    -42.5854877 -0.389684E-06  0.281E-03    0.39       7.1  T
   8    -42.5854876  0.588249E-07  0.212E-03    0.39       9.4  T
   9    -42.5854877 -0.941513E-07  0.663E-04    0.39      30.2  T
  10    -42.5854877 -0.753358E-08  0.287E-04    0.39      69.7  T
     SCC iter.                  ...        0 min,  0.014 sec
     gradient                   ...        0 min,  0.013 sec
 * total energy  :   -42.0633827 Eh     change       -0.4624276E-02 Eh
   gradient norm :     0.1073336 Eh/α   predicted     0.0000000E+00 (-100.00%)
   displ. norm   :     0.2699509 α      lambda       -0.1276849E-01
   maximum displ.:     0.1252001 α      in ANC's #18, #10, #22, ...

........................................................................
.............................. CYCLE   22 ..............................
........................................................................

 iter      E             dE          RMSdq      gap      omega  full diag
   1    -42.5864351 -0.425864E+02  0.306E-01    0.35       0.0  T
   2    -42.5852596  0.117543E-02  0.286E-01    0.36       1.0  T
   3    -42.5764391  0.882055E-02  0.651E-01    0.39       1.0  T
   4    -42.5869974 -0.105583E-01  0.131E-01    0.35       1.0  T
   5    -42.5871137 -0.116374E-03  0.516E-02    0.36       1.0  T
   6    -42.5872099 -0.961171E-04  0.639E-03    0.35       3.1  T
   7    -42.5872104 -0.504533E-06  0.266E-03    0.35       7.5  T
   8    -42.5872103  0.155407E-07  0.160E-03    0.35      12.5  T
   9    -42.5872104 -0.383473E-07  0.517E-04    0.35      38.7  T
  10    -42.5872104 -0.247416E-08  0.258E-04    0.35      77.7  T
     SCC iter.                  ...        0 min,  0.014 sec
     gradient                   ...        0 min,  0.013 sec
 * total energy  :   -42.0725496 Eh     change       -0.9166931E-02 Eh
   gradient norm :     0.0448661 Eh/α   predicted    -0.6854873E-02 ( -25.22%)
   displ. norm   :     0.3610916 α      lambda       -0.6706590E-02
   maximum displ.:     0.2235261 α      in ANC's #10, #18, #6, ...

........................................................................
.............................. CYCLE   23 ..............................
........................................................................

 iter      E             dE          RMSdq      gap      omega  full diag
   1    -42.5912379 -0.425912E+02  0.443E-01    0.32       0.0  T
   2    -42.5737419  0.174959E-01  0.795E-01    0.39       1.0  T
   3    -42.5794929 -0.575096E-02  0.737E-01    0.38       1.0  T
   4    -42.5918991 -0.124061E-01  0.189E-01    0.31       1.0  T
   5    -42.5922700 -0.370966E-03  0.806E-02    0.32       1.0  T
   6    -42.5924995 -0.229532E-03  0.622E-03    0.32       3.2  T
   7    -42.5924999 -0.393180E-06  0.301E-03    0.32       6.7  T
   8    -42.5924999  0.159481E-07  0.176E-03    0.32      11.4  T
   9    -42.5925000 -0.486506E-07  0.612E-04    0.32      32.7  T
  10    -42.5925000 -0.314115E-08  0.380E-04    0.32      52.6  T
     SCC iter.                  ...        0 min,  0.014 sec
     gradient                   ...        0 min,  0.013 sec
 * total energy  :   -42.0766515 Eh     change       -0.4101899E-02 Eh
   gradient norm :     0.0357578 Eh/α   predicted    -0.3790523E-02 (  -7.59%)
   displ. norm   :     0.2058082 α      lambda       -0.1811068E-02
   maximum displ.:     0.1435962 α      in ANC's #10, #6, #11, ...

........................................................................
.............................. CYCLE   24 ..............................
........................................................................

 iter      E             dE          RMSdq      gap      omega  full diag
   1    -42.5960199 -0.425960E+02  0.239E-01    0.30       0.0  T
   2    -42.5886315  0.738839E-02  0.517E-01    0.34       1.0  T
   3    -42.5939089 -0.527742E-02  0.322E-01    0.32       1.0  T
   4    -42.5961959 -0.228699E-02  0.855E-02    0.30       1.0  T
   5    -42.5963707 -0.174811E-03  0.210E-02    0.30       1.0  T
   6    -42.5963860 -0.153152E-04  0.314E-03    0.30       6.4  T
   7    -42.5963861 -0.798131E-07  0.217E-03    0.30       9.2  T
   8    -42.5963862 -0.960962E-07  0.493E-04    0.30      40.5  T
   9    -42.5963862 -0.293217E-08  0.251E-04    0.30      79.8  T
     SCC iter.                  ...        0 min,  0.013 sec
     gradient                   ...        0 min,  0.013 sec
 * total energy  :   -42.0780527 Eh     change       -0.1401147E-02 Eh
   gradient norm :     0.0269999 Eh/α   predicted    -0.9439839E-03 ( -32.63%)
   displ. norm   :     0.2901435 α      lambda       -0.2090156E-02
   maximum displ.:     0.2010417 α      in ANC's #10, #6, #11, ...

........................................................................
.............................. CYCLE   25 ..............................
........................................................................

 iter      E             dE          RMSdq      gap      omega  full diag
   1    -42.5994362 -0.425994E+02  0.341E-01    0.29       0.0  T
   2    -42.5794845  0.199517E-01  0.843E-01    0.37       1.0  T
   3    -42.5967229 -0.172384E-01  0.396E-01    0.31       1.0  T
   4    -42.5997694 -0.304644E-02  0.123E-01    0.28       1.0  T
   5    -42.6003098 -0.540442E-03  0.107E-02    0.29       1.9  T
   6    -42.6003128 -0.300065E-05  0.326E-03    0.29       6.1  T
   7    -42.6003129 -0.840047E-07  0.225E-03    0.29       8.9  T
   8    -42.6003130 -0.873924E-07  0.563E-04    0.29      35.5  T
   9    -42.6003130  0.223807E-09  0.422E-04    0.29      47.4  T
     SCC iter.                  ...        0 min,  0.013 sec
     gradient                   ...        0 min,  0.013 sec
 * total energy  :   -42.0794399 Eh     change       -0.1387190E-02 Eh
   gradient norm :     0.0135241 Eh/α   predicted    -0.1133067E-02 ( -18.32%)
   displ. norm   :     0.1854403 α      lambda       -0.7262771E-03
   maximum displ.:     0.1090470 α      in ANC's #10, #6, #1, ...

........................................................................
.............................. CYCLE   26 ..............................
........................................................................

 iter      E             dE          RMSdq      gap      omega  full diag
   1    -42.6013789 -0.426014E+02  0.194E-01    0.28       0.0  T
   2    -42.5947650  0.661390E-02  0.484E-01    0.31       1.0  T
   3    -42.6006505 -0.588551E-02  0.214E-01    0.29       1.0  T
   4    -42.6016136 -0.963027E-03  0.319E-02    0.28       1.0  T
   5    -42.6016485 -0.348949E-04  0.109E-02    0.28       1.8  T
   6    -42.6016529 -0.447647E-05  0.133E-03    0.28      15.0  T
   7    -42.6016530 -0.231634E-07  0.660E-04    0.28      30.3  T
   8    -42.6016530 -0.213882E-08  0.323E-04    0.28      62.0  T
     SCC iter.                  ...        0 min,  0.011 sec
     gradient                   ...        0 min,  0.013 sec
 * total energy  :   -42.0799361 Eh     change       -0.4962140E-03 Eh
   gradient norm :     0.0117155 Eh/α   predicted    -0.3756782E-03 ( -24.29%)
   displ. norm   :     0.1418778 α      lambda       -0.4069502E-03
   maximum displ.:     0.0868059 α      in ANC's #1, #10, #6, ...

........................................................................
.............................. CYCLE   27 ..............................
........................................................................

 iter      E             dE          RMSdq      gap      omega  full diag
   1    -42.6034161 -0.426034E+02  0.110E-01    0.28       0.0  T
   2    -42.6027397  0.676448E-03  0.164E-01    0.28       1.0  T
   3    -42.6029101 -0.170408E-03  0.151E-01    0.28       1.0  T
   4    -42.6034246 -0.514515E-03  0.306E-02    0.28       1.0  T
   5    -42.6034494 -0.248315E-04  0.120E-02    0.28       1.7  T
   6    -42.6034550 -0.552759E-05  0.163E-03    0.28      12.2  T
   7    -42.6034550 -0.366035E-07  0.807E-04    0.28      24.8  T
   8    -42.6034550 -0.603778E-08  0.342E-04    0.28      58.5  T
     SCC iter.                  ...        0 min,  0.011 sec
     gradient                   ...        0 min,  0.013 sec
 * total energy  :   -42.0801635 Eh     change       -0.2274408E-03 Eh
   gradient norm :     0.0095772 Eh/α   predicted    -0.2075721E-03 (  -8.74%)
   displ. norm   :     0.2294057 α      lambda       -0.3965194E-03
   maximum displ.:     0.1231311 α      in ANC's #10, #1, #4, ...

........................................................................
.............................. CYCLE   28 ..............................
........................................................................

 iter      E             dE          RMSdq      gap      omega  full diag
   1    -42.6001861 -0.426002E+02  0.206E-01    0.27       0.0  T
   2    -42.5967059  0.348015E-02  0.355E-01    0.29       1.0  T
   3    -42.5984712 -0.176530E-02  0.286E-01    0.29       1.0  T
   4    -42.6003140 -0.184283E-02  0.199E-02    0.27       1.0  T
   5    -42.6003264 -0.123794E-04  0.775E-03    0.27       2.6  T
   6    -42.6003276 -0.115839E-05  0.484E-03    0.27       4.1  T
   7    -42.6003280 -0.387176E-06  0.225E-03    0.27       8.9  T
   8    -42.6003281 -0.101750E-06  0.214E-04    0.27      93.5  T
   9    -42.6003281 -0.731241E-09  0.101E-04    0.27     197.7  T
     SCC iter.                  ...        0 min,  0.012 sec
     gradient                   ...        0 min,  0.013 sec
 * total energy  :   -42.0802055 Eh     change       -0.4194393E-04 Eh
   gradient norm :     0.0135113 Eh/α   predicted    -0.2087037E-03 ( 397.58%)
   displ. norm   :     0.0835196 α      lambda       -0.3126623E-03
   maximum displ.:     0.0584394 α      in ANC's #10, #6, #11, ...

........................................................................
.............................. CYCLE   29 ..............................
........................................................................

 iter      E             dE          RMSdq      gap      omega  full diag
   1    -42.6025357 -0.426025E+02  0.954E-02    0.28       0.0  T
   2    -42.6008283  0.170744E-02  0.248E-01    0.29       1.0  T
   3    -42.6023425 -0.151425E-02  0.109E-01    0.28       1.0  T
   4    -42.6025921 -0.249603E-03  0.213E-02    0.28       1.0  T
   5    -42.6026079 -0.157158E-04  0.471E-03    0.28       4.2  T
   6    -42.6026085 -0.629471E-06  0.228E-03    0.28       8.8  T
   7    -42.6026086 -0.838531E-07  0.115E-03    0.28      17.4  T
   8    -42.6026086 -0.233750E-07  0.285E-04    0.28      70.2  T
   9    -42.6026086 -0.165232E-08  0.561E-05    0.28     356.4  T
     SCC iter.                  ...        0 min,  0.012 sec
     gradient                   ...        0 min,  0.013 sec
 * total energy  :   -42.0803824 Eh     change       -0.1769042E-03 Eh
   gradient norm :     0.0047154 Eh/α   predicted    -0.1574467E-03 ( -11.00%)
   displ. norm   :     0.0733478 α      lambda       -0.8084535E-04
   maximum displ.:     0.0520109 α      in ANC's #1, #4, #7, ...

........................................................................
.............................. CYCLE   30 ..............................
........................................................................

 iter      E             dE          RMSdq      gap      omega  full diag
   1    -42.6029332 -0.426029E+02  0.352E-02    0.28       0.0  T
   2    -42.6028284  0.104833E-03  0.647E-02    0.28       1.0  T
   3    -42.6028974 -0.689957E-04  0.422E-02    0.28       1.0  T
   4    -42.6029339 -0.365307E-04  0.115E-02    0.28       1.7  T
   5    -42.6029384 -0.446116E-05  0.317E-03    0.28       6.3  T
   6    -42.6029388 -0.365094E-06  0.523E-04    0.28      38.3  T
   7    -42.6029388 -0.310548E-08  0.282E-04    0.28      70.9  T
     SCC iter.                  ...        0 min,  0.010 sec
     gradient                   ...        0 min,  0.013 sec
 * total energy  :   -42.0804457 Eh     change       -0.6328984E-04 Eh
   gradient norm :     0.0031279 Eh/α   predicted    -0.4064192E-04 ( -35.78%)
   displ. norm   :     0.1575585 α      lambda       -0.1132495E-03
   maximum displ.:     0.1100832 α      in ANC's #1, #4, #7, ...

........................................................................
.............................. CYCLE   31 ..............................
........................................................................

 iter      E             dE          RMSdq      gap      omega  full diag
   1    -42.6031401 -0.426031E+02  0.673E-02    0.28       0.0  T
   2    -42.6029894  0.150756E-03  0.846E-02    0.28       1.0  T
   3    -42.6029091  0.802513E-04  0.980E-02    0.28       1.0  T
   4    -42.6031331 -0.223999E-03  0.215E-02    0.28       1.0  T
   5    -42.6031486 -0.155081E-04  0.508E-03    0.28       3.9  T
   6    -42.6031495 -0.927064E-06  0.789E-04    0.28      25.4  T
   7    -42.6031495 -0.274920E-08  0.472E-04    0.28      42.4  T
     SCC iter.                  ...        0 min,  0.010 sec
     gradient                   ...        0 min,  0.013 sec
 * total energy  :   -42.0805203 Eh     change       -0.7462868E-04 Eh
   gradient norm :     0.0046210 Eh/α   predicted    -0.5803296E-04 ( -22.24%)
   displ. norm   :     0.1203710 α      lambda       -0.5416908E-04
   maximum displ.:     0.0821883 α      in ANC's #1, #4, #5, ...

........................................................................
.............................. CYCLE   32 ..............................
........................................................................

 iter      E             dE          RMSdq      gap      omega  full diag
   1    -42.6027095 -0.426027E+02  0.525E-02    0.28       0.0  T
   2    -42.6027092  0.343967E-06  0.314E-02    0.28       1.0  T
   3    -42.6025843  0.124849E-03  0.662E-02    0.28       1.0  T
   4    -42.6027087 -0.124341E-03  0.763E-03    0.28       2.6  T
   5    -42.6027100 -0.136318E-05  0.182E-03    0.28      11.0  T
   6    -42.6027101 -0.969079E-07  0.553E-04    0.28      36.2  T
   7    -42.6027101  0.824372E-10  0.405E-04    0.28      49.4  T
     SCC iter.                  ...        0 min,  0.010 sec
     gradient                   ...        0 min,  0.013 sec
 * total energy  :   -42.0805579 Eh     change       -0.3762471E-04 Eh
   gradient norm :     0.0051370 Eh/α   predicted    -0.2748580E-04 ( -26.95%)
   displ. norm   :     0.1181751 α      lambda       -0.4760189E-04
   maximum displ.:     0.0835066 α      in ANC's #1, #4, #5, ...

........................................................................
.............................. CYCLE   33 ..............................
........................................................................

 iter      E             dE          RMSdq      gap      omega  full diag
   1    -42.6027571 -0.426028E+02  0.387E-02    0.28       0.0  T
   2    -42.6027491  0.801247E-05  0.282E-02    0.28       1.0  T
   3    -42.6025390  0.210127E-03  0.894E-02    0.28       1.0  T
   4    -42.6027576 -0.218574E-03  0.284E-03    0.28       7.0  T
   5    -42.6027578 -0.203295E-06  0.910E-04    0.28      22.0  T
   6    -42.6027578 -0.101280E-07  0.470E-04    0.28      42.5  T
     SCC iter.                  ...        0 min,  0.009 sec
     gradient                   ...        0 min,  0.013 sec
 * total energy  :   -42.0805920 Eh     change       -0.3409679E-04 Eh
   gradient norm :     0.0042984 Eh/α   predicted    -0.2413705E-04 ( -29.21%)
   displ. norm   :     0.0957869 α      lambda       -0.3695807E-04
   maximum displ.:     0.0696543 α      in ANC's #1, #5, #4, ...

........................................................................
.............................. CYCLE   34 ..............................
........................................................................

 iter      E             dE          RMSdq      gap      omega  full diag
   1    -42.6028133 -0.426028E+02  0.286E-02    0.28       0.0  T
   2    -42.6027564  0.568995E-04  0.480E-02    0.28       1.0  T
   3    -42.6027865 -0.301165E-04  0.357E-02    0.28       1.0  T
   4    -42.6028146 -0.280856E-04  0.655E-03    0.28       3.1  T
   5    -42.6028160 -0.137521E-05  0.214E-03    0.28       9.3  T
   6    -42.6028161 -0.167654E-06  0.492E-04    0.28      40.6  T
   7    -42.6028161 -0.132278E-08  0.285E-04    0.28      70.1  T
     SCC iter.                  ...        0 min,  0.010 sec
     gradient                   ...        0 min,  0.013 sec
 * total energy  :   -42.0806178 Eh     change       -0.2581429E-04 Eh
   gradient norm :     0.0023776 Eh/α   predicted    -0.1865920E-04 ( -27.72%)
   displ. norm   :     0.0796509 α      lambda       -0.2260094E-04
   maximum displ.:     0.0641454 α      in ANC's #1, #3, #4, ...

   *** GEOMETRY OPTIMIZATION CONVERGED AFTER 34 ITERATIONS ***

------------------------------------------------------------------------
 total energy gain   :        -6.7328378 Eh    -4224.9195 kcal/mol
 total RMSD          :         0.8101595 a0        0.4287 Å
 total power (kW/mol):      -519.9136225 (step)********** (real)
------------------------------------------------------------------------

 ANCopt (total)                0 d,  0 h,  0 min,  1.103 sec
 optimizer setup                ...        0 min,  0.000 sec (  0.037%)
 model hessian                  ...        0 min,  0.013 sec (  1.188%)
 ANC generation                 ...        0 min,  0.002 sec (  0.158%)
 coordinate transformation      ...        0 min,  0.000 sec (  0.022%)
 single point calculation       ...        0 min,  1.079 sec ( 97.802%)
 optimization log               ...        0 min,  0.003 sec (  0.292%)
 hessian update                 ...        0 min,  0.000 sec (  0.037%)
 rational function              ...        0 min,  0.003 sec (  0.316%)

================
 final structure:
================
25
 xtb: 6.6.1 (8d0f1dd)
C            3.27990076799657        1.09755465256694        0.04627222538649
N            2.33179784866254        0.01532166935223        0.00980115411091
C            2.60079277206179       -1.28171564032912        0.03722961193469
N            1.45365197378003       -1.99092304341638        0.00849156898646
C            0.41323048958143       -1.11155621878241       -0.03897942988451
C            0.96318582976474        0.16521996506766       -0.03986336696268
C            0.15900163956448        1.35084239186466       -0.10134850146560
O            0.54135828068341        2.50000798228032       -0.11727418147087
N           -1.23557016872820        1.03065964185480       -0.15473010692158
C           -2.10167996584734        2.05637065820677       -0.23893528411409
C           -1.80035938805612       -0.27454776303624       -0.12864261133962
O           -2.98752492152274       -0.44236051882413       -0.15592946711883
N           -0.91208723888180       -1.34864250305167       -0.07326463196922
C           -1.44650626674347       -2.69875147387235       -0.05544444386819
H            3.78227298332847        1.12669967669038        1.01365824767611
H            4.02840051923103        0.97285926106162       -0.73517062893973
H            2.74492719600173        2.03491855910135       -0.10357664097259
H            3.58253255810180       -1.71121281372654        0.07744115219161
H           -1.69340968127284        3.04879554136113       -0.26613746231042
H           -3.15110840058031        1.84009810286902       -0.28670525690929
H           -3.99201008108949        3.52802408200903        1.46970131442246
H           -1.12977804064153       -3.21991238607911        0.84761131060918
H           -1.12675023999370       -3.24693717395459       -0.94176416151518
H           -2.53305131945912       -2.62326519761814       -0.05898758445306
H            1.38921436815851       -2.99930890999521        0.01771879279750

 Bond Distances (Angstroems)
 ---------------------------
C1-N2=1.4393         C1-H15=1.0904        C1-H16=1.0892        C1-H17=1.0896        N2-C1=1.4393         N2-C3=1.3249         
N2-C6=1.3777         C3-N2=1.3249         C3-N4=1.3490         C3-H18=1.0723        N4-C3=1.3490         N4-C5=1.3631         
N4-H25=1.0105        C5-N4=1.3631         C5-C6=1.3902         C5-N13=1.3468        C6-N2=1.3777         C6-C5=1.3902         
C6-C7=1.4339         C7-C6=1.4339         C7-O8=1.2112         C7-N9=1.4319         O8-C7=1.2112         N9-C7=1.4319         
N9-C10=1.3451        N9-C11=1.4224        C10-N9=1.3451        C10-H19=1.0735       C10-H20=1.0725       C11-N9=1.4224        
C11-O12=1.1993       C11-N13=1.3949       O12-C11=1.1993       N13-C5=1.3468        N13-C11=1.3949       N13-C14=1.4521       
C14-N13=1.4521       C14-H22=1.0897       C14-H23=1.0901       C14-H24=1.0892       H15-C1=1.0904        H16-C1=1.0892        
H17-C1=1.0896        H18-C3=1.0723        H19-C10=1.0735       H20-C10=1.0725       H22-C14=1.0897       H23-C14=1.0901       
H24-C14=1.0892       H25-N4=1.0105        
 C  H  Rav=1.0841 sigma=0.0080  Rmin=1.0723  Rmax=1.0904     9
 C  C  Rav=1.4121 sigma=0.0219  Rmin=1.3902  Rmax=1.4339     2
 N  H  Rav=1.0105 sigma=0.0000  Rmin=1.0105  Rmax=1.0105     1
 N  C  Rav=1.3861 sigma=0.0422  Rmin=1.3249  Rmax=1.4521    11
 O  C  Rav=1.2052 sigma=0.0060  Rmin=1.1993  Rmax=1.2112     2

 selected bond angles (degree)
 --------------------
H15-C1-N2=110.25               H16-C1-N2=110.39               H16-C1-H15=108.84              H17-C1-N2=108.66               
H17-C1-H15=108.98              H17-C1-H16=109.71              C3-N2-C1=127.00                C6-N2-C1=124.99                
C6-N2-C3=108.00                N4-C3-N2=109.97                H18-C3-N2=125.36               H18-C3-N4=124.66               
C5-N4-C3=108.10                H25-N4-C3=125.36               H25-N4-C5=126.54               C6-C5-N4=106.89                
N13-C5-N4=129.67               N13-C5-C6=123.43               C5-C6-N2=107.04                C7-C6-N2=130.44                
C7-C6-C5=122.52                O8-C7-C6=127.44                N9-C7-C6=111.28                N9-C7-O8=121.27                
C10-N9-C7=117.32               C11-N9-C7=126.24               C11-N9-C10=116.44              H19-C10-N9=117.50              
H20-C10-N9=118.62              H20-C10-H19=123.88             

 selected dihedral angles (degree)
 ---------------------------------
C3-N2-C1-H15=293.10           C3-N2-C1-H16= 53.39           C3-N2-C1-H17=173.74           C6-N2-C1-H15=112.03           
C6-N2-C1-H16=232.31           C6-N2-C1-H17=352.66           N4-C3-N2-C1=179.02            N4-C3-N2-C6=359.94            
H18-C3-N2-C1=359.08           H18-C3-N2-C6=180.01           C5-N4-C3-N2=  0.00            C5-N4-C3-H18=179.93           
H25-N4-C3-N2=179.80           H25-N4-C3-H18=359.74          C6-C5-N4-C3=  0.06            C6-C5-N4-H25=180.26           
N13-C5-N4-C3=180.39           N13-C5-N4-H25=  0.59          C5-C6-N2-C1=181.00            C5-C6-N2-C3=  0.10            
C7-C6-N2-C1=  1.80            C7-C6-N2-C3=180.89            N2-C6-C5-N4=359.90            N2-C6-C5-N13=179.60           
C7-C6-C5-N4=179.18            C7-C6-C5-N13=358.88           O8-C7-C6-N2=359.69            O8-C7-C6-C5=180.59            
N9-C7-C6-N2=179.28            N9-C7-C6-C5=  0.19            C10-N9-C7-C6=181.13           C10-N9-C7-O8=  0.76           
C11-N9-C7-C6=  1.07           C11-N9-C7-O8=180.69           H19-C10-N9-C7=  0.32          H19-C10-N9-C11=180.38         
H20-C10-N9-C7=179.60          H20-C10-N9-C11=359.66         
           -------------------------------------------------
          |                Final Singlepoint                |
           -------------------------------------------------

          ...................................................
          :                      SETUP                      :
          :.................................................:
          :  # basis functions                  67          :
          :  # atomic orbitals                  67          :
          :  # shells                           39          :
          :  # electrons                        74          :
          :  max. iterations                   250          :
          :  Hamiltonian                  GFN2-xTB          :
          :  restarted?                      false          :
          :  GBSA solvation                  false          :
          :  PC potential                    false          :
          :  electronic temp.         2500.0000000     K    :
          :  accuracy                    1.0000000          :
          :  -> integral cutoff          0.2500000E+02      :
          :  -> integral neglect         0.1000000E-07      :
          :  -> SCF convergence          0.1000000E-05 Eh   :
          :  -> wf. convergence          0.1000000E-03 e    :
          :  Broyden damping             0.4000000          :
          ...................................................

 iter      E             dE          RMSdq      gap      omega  full diag
   1    -42.6028161 -0.426028E+02  0.117E-04    0.28       0.0  T
   2    -42.6028161  0.183061E-08  0.272E-04    0.28      73.7  T
   3    -42.6028161 -0.154232E-08  0.147E-04    0.28     135.9  T

   *** convergence criteria satisfied after 3 iterations ***

         #    Occupation            Energy/Eh            Energy/eV
      -------------------------------------------------------------
         1        2.0000           -0.9169121             -24.9504
       ...           ...                  ...                  ...
        31        2.0000           -0.6216120             -16.9149
        32        2.0000           -0.6149627             -16.7340
        33        2.0000           -0.6096203             -16.5886
        34        2.0000           -0.5845544             -15.9065
        35        2.0000           -0.5651264             -15.3779
        36        2.0000           -0.5602795             -15.2460
        37        1.3052           -0.4742457             -12.9049 (HOMO)
        38        0.6731           -0.4638809             -12.6228 (LUMO)
        39        0.0213           -0.4333806             -11.7929
        40        0.0003           -0.4003447             -10.8939
        41        0.0000           -0.3725577             -10.1378
        42                         -0.2876870              -7.8284
       ...                                ...                  ...
        67                          0.5486442              14.9294
      -------------------------------------------------------------
                  HL-Gap            0.0103649 Eh            0.2820 eV
             Fermi-level           -0.4692534 Eh          -12.7690 eV

 SCC (total)                   0 d,  0 h,  0 min,  0.036 sec
 SCC setup                      ...        0 min,  0.000 sec (  0.551%)
 Dispersion                     ...        0 min,  0.000 sec (  0.514%)
 classical contributions        ...        0 min,  0.000 sec (  0.198%)
 integral evaluation            ...        0 min,  0.005 sec ( 13.676%)
 iterations                     ...        0 min,  0.005 sec ( 13.010%)
 molecular gradient             ...        0 min,  0.026 sec ( 71.661%)
 printout                       ...        0 min,  0.000 sec (  0.351%)

         :::::::::::::::::::::::::::::::::::::::::::::::::::::
         ::                     SUMMARY                     ::
         :::::::::::::::::::::::::::::::::::::::::::::::::::::
         :: total energy             -42.080617839394 Eh    ::
         :: gradient norm              0.002381863866 Eh/a0 ::
         :: HOMO-LUMO gap              0.282042296851 eV    ::
         ::.................................................::
         :: SCC energy               -42.602816134373 Eh    ::
         :: -> isotropic ES            0.141046508548 Eh    ::
         :: -> anisotropic ES         -0.006924846116 Eh    ::
         :: -> anisotropic XC          0.012935891171 Eh    ::
         :: -> dispersion             -0.022723016205 Eh    ::
         :: repulsion energy           0.522107638532 Eh    ::
         :: add. restraining           0.000002724799 Eh    ::
         :: total charge               0.999999999999 e     ::
         :::::::::::::::::::::::::::::::::::::::::::::::::::::

           -------------------------------------------------
          |                Property Printout                |
           -------------------------------------------------

    * Orbital Energies and Occupations

         #    Occupation            Energy/Eh            Energy/eV
      -------------------------------------------------------------
         1        2.0000           -0.9169121             -24.9504
       ...           ...                  ...                  ...
        25        2.0000           -0.6704919             -18.2450
        26        2.0000           -0.6677395             -18.1701
        27        2.0000           -0.6623177             -18.0226
        28        2.0000           -0.6349768             -17.2786
        29        2.0000           -0.6303928             -17.1539
        30        2.0000           -0.6284492             -17.1010
        31        2.0000           -0.6216120             -16.9149
        32        2.0000           -0.6149627             -16.7340
        33        2.0000           -0.6096203             -16.5886
        34        2.0000           -0.5845544             -15.9065
        35        2.0000           -0.5651264             -15.3779
        36        2.0000           -0.5602795             -15.2460
        37        1.3052           -0.4742457             -12.9049 (HOMO)
        38        0.6731           -0.4638809             -12.6228 (LUMO)
        39        0.0213           -0.4333806             -11.7929
        40        0.0003           -0.4003447             -10.8939
        41        0.0000           -0.3725577             -10.1378
        42                         -0.2876870              -7.8284
        43                         -0.2078124              -5.6549
        44                         -0.2001079              -5.4452
        45                         -0.1517683              -4.1298
        46                         -0.1439529              -3.9172
        47                         -0.0822473              -2.2381
        48                         -0.0564162              -1.5352
       ...                                ...                  ...
        67                          0.5486442              14.9294
      -------------------------------------------------------------
                  HL-Gap            0.0103649 Eh            0.2820 eV
             Fermi-level           -0.4692534 Eh          -12.7690 eV

     #   Z          covCN         q      C6AA      α(0)
     1   6 C        3.691    -0.096    22.529     6.792
     2   7 N        2.834     0.084    19.778     6.605
     3   6 C        3.057     0.053    26.750     8.482
     4   7 N        2.796    -0.053    22.271     7.009
     5   6 C        3.045     0.106    25.626     8.303
     6   6 C        3.116    -0.024    28.444     8.736
     7   6 C        2.775     0.254    22.727     7.808
     8   8 O        0.857    -0.367    21.042     6.150
     9   7 N        2.741    -0.032    21.860     6.944
    10   6 C        2.816    -0.027    28.658     8.771
    11   6 C        2.738     0.310    21.736     7.633
    12   8 O        0.859    -0.350    20.701     6.100
    13   7 N        2.737    -0.050    22.207     6.999
    14   6 C        3.698    -0.074    22.088     6.722
    15   1 H        0.924     0.109     1.704     2.041
    16   1 H        0.925     0.107     1.726     2.054
    17   1 H        0.925     0.138     1.476     1.900
    18   1 H        0.926     0.127     1.558     1.952
    19   1 H        0.926     0.133     1.516     1.925
    20   1 H        0.926     0.130     1.532     1.936
    21   1 H        0.000    -0.004     7.788     5.103
    22   1 H        0.925     0.083     1.948     2.182
    23   1 H        0.925     0.084     1.939     2.177
    24   1 H        0.925     0.128     1.549     1.946
    25   1 H        0.860     0.231     0.959     1.534

 Mol. C6AA /au·bohr⁶  :       6823.859799
 Mol. C8AA /au·bohr⁸  :     155698.476220
 Mol. α(0) /au        :        127.806011


Wiberg/Mayer (AO) data.
largest (>0.10) Wiberg bond orders for each atom

 ---------------------------------------------------------------------------
     #   Z sym  total        # sym  WBO       # sym  WBO       # sym  WBO
 ---------------------------------------------------------------------------
     1   6 C    3.914 --     2 N    0.984    16 H    0.962    17 H    0.961
                            15 H    0.957
     2   7 N    3.689 --     3 C    1.404     6 C    1.150     1 C    0.984
     3   6 C    3.886 --     2 N    1.404     4 N    1.286    18 H    0.952
     4   7 N    3.608 --     3 C    1.286     5 C    1.193    25 H    0.918
     5   6 C    3.909 --     6 C    1.325    13 N    1.197     4 N    1.193
     6   6 C    3.917 --     5 C    1.325     2 N    1.150     7 C    1.111
     7   6 C    3.885 --     8 O    1.671     6 C    1.111     9 N    1.000
     8   8 O    1.972 --     7 C    1.671     9 N    0.113
     9   7 N    3.632 --    10 C    1.329    11 C    1.020     7 C    1.000
                             8 O    0.113
    10   6 C    3.422 --     9 N    1.329    19 H    0.959    20 H    0.958
    11   6 C    3.919 --    12 O    1.713    13 N    1.083     9 N    1.020
    12   8 O    2.036 --    11 C    1.713    13 N    0.136
    13   7 N    3.575 --     5 C    1.197    11 C    1.083    14 C    0.970
                            12 O    0.136
    14   6 C    3.924 --    22 H    0.972    23 H    0.972    13 N    0.970
                            24 H    0.964
    15   1 H    0.985 --     1 C    0.957
    16   1 H    0.986 --     1 C    0.962
    17   1 H    0.981 --     1 C    0.961
    18   1 H    0.983 --     3 C    0.952
    19   1 H    0.982 --    10 C    0.959
    20   1 H    0.982 --    10 C    0.958
    21   1 H    0.102
    22   1 H    0.992 --    14 C    0.972
    23   1 H    0.991 --    14 C    0.972
    24   1 H    0.983 --    14 C    0.964
    25   1 H    0.946 --     4 N    0.918
 ---------------------------------------------------------------------------

Topologies differ in total number of bonds
Writing topology from bond orders to xtbtopo.mol

molecular dipole:
                 x           y           z       tot (Debye)
 q only:        2.652      -2.199      -0.032
   full:        2.899      -2.671       0.001      10.018
molecular quadrupole (traceless):
                xx          xy          yy          xz          yz          zz
 q only:       12.894      -7.380       5.452       1.197      -0.514     -18.346
  q+dip:       10.921     -11.291       5.436       0.964      -0.299     -16.357
   full:        9.705     -10.808       4.469       0.858      -0.226     -14.174

           -------------------------------------------------
          |                Geometry Summary                 |
           -------------------------------------------------

      molecular mass/u    :      195.1988581
   center of mass at/Å    :        0.0540587      -0.0452362      -0.0640806
  moments of inertia/u·Å² :        0.4871573E+03   0.7248657E+03   0.1199461E+04
rotational constants/cm⁻¹ :        0.3460409E-01   0.2325621E-01   0.1405434E-01

 * 24 selected distances

     #   Z          #   Z                                           value/Å
     1   6 C        2   7 N                                       1.4392560
     2   7 N        3   6 C                                       1.3249214
     3   6 C        4   7 N                                       1.3489749
     4   7 N        5   6 C                                       1.3630909
     2   7 N        6   6 C                                       1.3776920
     5   6 C        6   6 C                                       1.3901832
     6   6 C        7   6 C                                       1.4339434
     7   6 C        8   8 O                                       1.2112110
     9   7 N       10   6 C                                       1.3451097
     9   7 N       11   6 C                                       1.4224044
    11   6 C       12   8 O                                       1.1992781
     5   6 C       13   7 N                                       1.3467935
    11   6 C       13   7 N                                       1.3949100
    13   7 N       14   6 C                                       1.4521418 (max)
     1   6 C       15   1 H                                       1.0904418
     1   6 C       16   1 H                                       1.0892447
     1   6 C       17   1 H                                       1.0896342
     3   6 C       18   1 H                                       1.0723330
    10   6 C       19   1 H                                       1.0734673
    10   6 C       20   1 H                                       1.0725465
    14   6 C       22   1 H                                       1.0896951
    14   6 C       23   1 H                                       1.0900983
    14   6 C       24   1 H                                       1.0891699
     4   7 N       25   1 H                                       1.0104848 (min)

 * 5 distinct bonds (by element types)

   Z      Z             #   av. dist./Å        max./Å        min./Å
   1 H    6 C           9     1.0840701     1.0904418     1.0723330
   6 C    6 C           2     1.4120633     1.4339434     1.3901832
   1 H    7 N           1     1.0104848     1.0104848     1.0104848
   6 C    7 N          10     1.3815295     1.4521418     1.3249214
   6 C    8 O           2     1.2052445     1.2112110     1.1992781


optimized geometry written to: xtbopt.xyz


           -------------------------------------------------
          | TOTAL ENERGY              -42.080617839394 Eh   |
          | GRADIENT NORM               0.002381863866 Eh/α |
          | HOMO-LUMO GAP               0.282042296851 eV   |
           -------------------------------------------------

------------------------------------------------------------------------
 * finished run on 2024/06/05 at 19:58:04.167     
------------------------------------------------------------------------
 total:
 * wall-time:     0 d,  0 h,  0 min,  1.269 sec
 *  cpu-time:     0 d,  0 h,  0 min,  1.142 sec
 * ratio c/w:     0.900 speedup
 SCF:
 * wall-time:     0 d,  0 h,  0 min,  0.062 sec
 *  cpu-time:     0 d,  0 h,  0 min,  0.036 sec
 * ratio c/w:     0.583 speedup
 ANC optimizer:
 * wall-time:     0 d,  0 h,  0 min,  1.179 sec
 *  cpu-time:     0 d,  0 h,  0 min,  1.093 sec
 * ratio c/w:     0.928 speedup

