25
 energy: -43.835892650151 gnorm: 0.068778121284 xtb: 6.6.1 (8d0f1dd)
C            3.35469164325792        1.15631529842750        0.09519069545477
N            2.33644427685884        0.13093654672741        0.04098966342559
C            2.60642776287330       -1.23510173448010        0.03095372155325
N            1.41456643124744       -1.92322961856757        0.00015708434440
C            0.39332002548231       -1.02998840071109       -0.00891487047469
C            0.92904117314143        0.25236794639675        0.01523812051998
C            0.06578414975076        1.40004826209561       -0.01017659635665
O            0.46455156356676        2.56989093785521       -0.00577277304180
N           -1.27371261752529        1.05160528562583       -0.03231702338230
C           -2.24592543859254        2.13950995434093       -0.05166518179594
C           -1.83505363380783       -0.20204358438838       -0.04859393365354
O           -3.02076272553377       -0.38837362720252       -0.07132709707121
N           -0.94243597059249       -1.29178189819925       -0.03777382660503
C           -1.47613663885307       -2.63513594556723       -0.05948808880875
H            3.84154028901645        1.20638545905628        1.06020925605701
H            4.11509385814105        1.03257065753222       -0.67001348190703
H            2.83500360075231        2.06692354468502       -0.05178448352551
H            3.56823697930408       -1.67038011366477        0.04059492112459
H           -1.70301163605560        3.06878815371786       -0.02940855028332
H           -2.85546679967571        2.07960969424626       -0.95467805530502
H           -2.90537104460851        2.06456713317016        0.81335971826652
H           -1.17440063338784       -3.18430564409275        0.83309878953236
H           -1.15014583804822       -3.16635939556995       -0.95208246758570
H           -2.56605902905420       -2.54620780551874       -0.07367920224990
H            1.35736617661657       -2.93359908768935       -0.01435255618830
25
 energy: -43.838047072951 gnorm: 0.031822411476 xtb: 6.6.1 (8d0f1dd)
C            3.32432401460118        1.16105740652468        0.09557286466972
N            2.33219111629465        0.12314410623084        0.03853457455924
C            2.60900789254229       -1.23946429852774        0.03237771432436
N            1.41442968576920       -1.92394901543893        0.00078037443732
C            0.40196555503260       -1.03108110056486       -0.00901309642181
C            0.93439900619568        0.25012149293403        0.01443626403334
C            0.08613016605838        1.39816771468587       -0.00811353075088
O            0.47022358170442        2.57341261394458       -0.00631234393840
N           -1.27286807491817        1.04968554100916       -0.03239180526535
C           -2.24172778980775        2.13791473590179       -0.05170451638515
C           -1.82967736053184       -0.20019798550940       -0.04875846805403
O           -3.02551740479590       -0.38930382069862       -0.07183817728844
N           -0.93693143012366       -1.28718064829647       -0.03772522689321
C           -1.46917930836419       -2.63011552835686       -0.05895344190463
H            3.82187666010468        1.18453637712840        1.06767337912965
H            4.08318714449369        1.01559380221994       -0.67491608047981
H            2.81143550010897        2.10020121661066       -0.05786636342475
H            3.57614460990688       -1.67655185990570        0.04180217686919
H           -1.68700911167217        3.06938421719687       -0.02892590447595
H           -2.85043111671743        2.07824639203356       -0.95487878892814
H           -2.90067426445941        2.06319790482958        0.81387376166522
H           -1.16793867621955       -3.18148303760593        0.83391767684068
H           -1.14292484568177       -3.16390171587357       -0.95300432909823
H           -2.55640699403949       -2.53982892883921       -0.07329456153446
H            1.34955736879284       -2.92859356340732       -0.01350836964173
25
 energy: -43.838602963407 gnorm: 0.018735263334 xtb: 6.6.1 (8d0f1dd)
C            3.34010324791866        1.15270555960519        0.09687040233913
N            2.33749900192438        0.12363534796988        0.03862419574627
C            2.60913171102521       -1.23680461517413        0.03323426058920
N            1.41355224955483       -1.91982947151152        0.00044525280916
C            0.40440979506989       -1.02965690064518       -0.00877072381033
C            0.93796832080407        0.25410930184923        0.01451986528416
C            0.09270284394106        1.39821579896237       -0.00793017174869
O            0.45798734040660        2.57896318395054       -0.00665866589517
N           -1.28201862084821        1.04763698250271       -0.03294369630803
C           -2.25352081466801        2.13351346895684       -0.05209396145656
C           -1.83029958698412       -0.20059074018111       -0.04838307121087
O           -3.03050757169517       -0.39389445258243       -0.07113555326539
N           -0.93823145615200       -1.28598520324663       -0.03753760963654
C           -1.47563262786334       -2.62904949831786       -0.05873808776170
H            3.84725786111265        1.18941183845318        1.06887839611927
H            4.11222301672057        1.01469501234747       -0.66856273161711
H            2.83663534440282        2.10202207252610       -0.06223404288035
H            3.57675719119170       -1.67570474265884        0.03940871121128
H           -1.70299571763561        3.07117142578721       -0.02961066240625
H           -2.86246927787439        2.07433000133527       -0.95451688786837
H           -2.91213093448263        2.05952855962284        0.81346078986457
H           -1.17730621166834       -3.18475893939235        0.83322274283984
H           -1.15262003279847       -3.16697559320833       -0.95309233108897
H           -2.56265682273906       -2.54115865672069       -0.07331080367588
H            1.34774767561106       -2.92251772200442       -0.01538183412888
25
 energy: -43.838800022938 gnorm: 0.011902870928 xtb: 6.6.1 (8d0f1dd)
C            3.33359828056396        1.15113774535187        0.09585630116727
N            2.33433583488317        0.12043114057665        0.03844362210946
C            2.60581138259357       -1.23817315874245        0.03363200444589
N            1.41240424431140       -1.92390622952787        0.00115985822913
C            0.40139311911515       -1.03570503486060       -0.00867571476405
C            0.93399678159645        0.25017575310902        0.01500743607182
C            0.09701415957012        1.39432465082009       -0.00819960206404
O            0.45779047798552        2.57495872179309       -0.00591842937217
N           -1.28364516333042        1.04619082093164       -0.03334369663475
C           -2.24456617746939        2.13894577253224       -0.05191962845397
C           -1.82956584606894       -0.20045135403817       -0.04883575337575
O           -3.02919250238017       -0.39207936058329       -0.07184099299162
N           -0.94164544974245       -1.28959263517480       -0.03784987687852
C           -1.47592996199946       -2.63362845373466       -0.05885882066870
H            3.83950741616182        1.20532041905409        1.06623852276287
H            4.10657128920419        1.03716114802998       -0.67330335730282
H            2.81603767683984        2.08777864320001       -0.05644223713141
H            3.57302509167915       -1.67464643423639        0.03960837441317
H           -1.68742123467294        3.07200047742084       -0.02877938932427
H           -2.85122188466250        2.08619298688470       -0.95558715503152
H           -2.90155155684024        2.07083959387250        0.81459798023228
H           -1.17267563676289       -3.18667423764958        0.83321086968699
H           -1.14792006076312       -3.16926938834929       -0.95282704233484
H           -2.56355925427265       -2.55007486301209       -0.07391868834287
H            1.35099489873498       -2.92824470544218       -0.01369080240382
25
 energy: -43.838979602600 gnorm: 0.006059656598 xtb: 6.6.1 (8d0f1dd)
C            3.33308910892771        1.14887717101413        0.09571502747246
N            2.33329175360975        0.12245451284002        0.03801712145572
C            2.60550812492876       -1.23626503014547        0.03344319528049
N            1.41350048191893       -1.92190146076176        0.00025804287004
C            0.40142564949379       -1.03332788685273       -0.00933997499563
C            0.93220959227178        0.25363290879650        0.01435537951826
C            0.09741441859249        1.39817732290875       -0.00884957992606
O            0.46006339473382        2.57753320883417       -0.00649357278412
N           -1.28301482142072        1.04889393021971       -0.03309433607917
C           -2.24803894866572        2.13593485614119       -0.05189537818462
C           -1.82724012678478       -0.19784980736402       -0.04836374929435
O           -3.02465841303522       -0.39077377614912       -0.07110583239488
N           -0.93968133509431       -1.28674527463180       -0.03790492286622
C           -1.47244827637182       -2.62959668189636       -0.05870439170977
H            3.83321886492455        1.19164362272713        1.06707988011526
H            4.10029965170062        1.02071100118497       -0.67402239005163
H            2.82293737187043        2.08687764984529       -0.05549477613765
H            3.57226566708818       -1.67259553854347        0.04092266787571
H           -1.69755191957204        3.07088560539381       -0.02934578648011
H           -2.85475526376369        2.07620864303244       -0.95519239776634
H           -2.90465944068504        2.06140952236242        0.81435441800756
H           -1.16872856743058       -3.18066130133117        0.83409975044881
H           -1.14444832819743       -3.16312054694081       -0.95330462431552
H           -2.55960067948303       -2.53981192009726       -0.07322333296627
H            1.35318796471773       -2.92757871236121       -0.01414665504820
25
 energy: -43.839023147606 gnorm: 0.003665902836 xtb: 6.6.1 (8d0f1dd)
C            3.33368020880943        1.15413982869755        0.09567606139518
N            2.33529809730478        0.12406640177387        0.03863863418630
C            2.60724336069832       -1.23569466691221        0.03345905972227
N            1.41467510952468       -1.92105223113253        0.00076303321217
C            0.40175479712195       -1.03395955569306       -0.00851570994381
C            0.93277109786301        0.25332391598196        0.01521510154092
C            0.09773885014698        1.39684070778640       -0.00763712017881
O            0.45928263553541        2.57651578751006       -0.00560208110139
N           -1.28391954091701        1.04708003365756       -0.03265400082206
C           -2.24704602894453        2.13604609508394       -0.05188249223902
C           -1.82846230210063       -0.19966766377412       -0.04849405590513
O           -3.02624596713462       -0.39348914923168       -0.07195519458261
N           -0.93995091500219       -1.28854248698992       -0.03752837326897
C           -1.47513267860428       -2.63166287667581       -0.05893646176095
H            3.83602969218869        1.19443339342749        1.06658598019484
H            4.10198763149737        1.02054400444111       -0.67161989090817
H            2.82757368662057        2.09600148837308       -0.05920822822885
H            3.57430385168426       -1.67351844986113        0.03953070835527
H           -1.69252037338851        3.06885338153269       -0.02894579772340
H           -2.85497966961723        2.07983882754155       -0.95491808018212
H           -2.90550208785476        2.06476600024869        0.81356076064027
H           -1.17563062432388       -3.18557045425556        0.83337152420419
H           -1.15023024849128       -3.16766658920736       -0.95302971635389
H           -2.56225989556799       -2.54220767354315       -0.07393098342341
H            1.35312723722561       -2.92640605055405       -0.01417889478502
25
 energy: -43.839039842149 gnorm: 0.002397069029 xtb: 6.6.1 (8d0f1dd)
C            3.33444742514703        1.15255218289032        0.09650757570666
N            2.33606453107677        0.12204761352979        0.03830561903575
C            2.60648312416173       -1.23782637861019        0.03312803463498
N            1.41321245868292       -1.92158450101352        0.00017314710403
C            0.40135716598863       -1.03375801078180       -0.00931869346939
C            0.93310233164080        0.25319512721720        0.01428271253573
C            0.09897122611980        1.39713297495566       -0.00902162948881
O            0.45952020201032        2.57704351019745       -0.00736046991269
N           -1.28437316713706        1.04792998505430       -0.03333073312450
C           -2.24784264262955        2.13675208841496       -0.05195092969555
C           -1.82906211282341       -0.19839368830455       -0.04859853714393
O           -3.02726861441045       -0.39212170138826       -0.07107052906193
N           -0.94036559828608       -1.28746116026971       -0.03792657510854
C           -1.47346446758421       -2.63118445303849       -0.05865444919929
H            3.83819521046013        1.19425069438135        1.06715608909696
H            4.10355709712201        1.02495489069516       -0.67162332286444
H            2.82411903858012        2.09246144916913       -0.05652246557909
H            3.57314261842002       -1.67682481675884        0.04011643300592
H           -1.69535839771897        3.07107401076527       -0.02951775513398
H           -2.85651239768431        2.07972494213221       -0.95457018765087
H           -2.90572760904164        2.06480073759436        0.81403227690909
H           -1.17071975089827       -3.18353448547928        0.83355636897707
H           -1.14679882067836       -3.16618687428344       -0.95277020493707
H           -2.56091395030096       -2.54530426364528       -0.07286349765037
H            1.34982102405715       -2.92672785519847       -0.01439449494198
25
 energy: -43.839045260926 gnorm: 0.001612236135 xtb: 6.6.1 (8d0f1dd)
C            3.33412383333394        1.15182656369774        0.09526368354138
N            2.33551659818690        0.12218602260024        0.03849086120221
C            2.60667967054976       -1.23689146724119        0.03381561641521
N            1.41431029161026       -1.92160905114716        0.00101577689758
C            0.40164025377409       -1.03435341907346       -0.00857386815750
C            0.93258189240742        0.25308384841817        0.01521184659582
C            0.09911437607283        1.39707783396920       -0.00746668043287
O            0.45888193293910        2.57709811515972       -0.00503205908516
N           -1.28420824184288        1.04748853676405       -0.03259349928508
C           -2.24723026371320        2.13612077146993       -0.05183409700403
C           -1.82851285849751       -0.19866591365617       -0.04855809252818
O           -3.02642544352263       -0.39264274422783       -0.07187141607184
N           -0.93993109951453       -1.28779203762687       -0.03766875271368
C           -1.47430999086295       -2.63060061066699       -0.05913482813291
H            3.83660692891999        1.19558469866635        1.06619172989336
H            4.10289359750760        1.02351074489626       -0.67322757783682
H            2.82270348745543        2.09016304571318       -0.05866728697379
H            3.57382178153299       -1.67404760819616        0.04061761929641
H           -1.69486959193630        3.07037500912913       -0.02874743447285
H           -2.85433727859483        2.07861442651221       -0.95546745874088
H           -2.90538198065402        2.06344964339696        0.81387253407431
H           -1.17299656755450       -3.18318597654203        0.83345754401322
H           -1.14760296755187       -3.16531389192195       -0.95341589980073
H           -2.56159045099210       -2.54152278627725       -0.07426915953428
H            1.35210801522114       -2.92694173559074       -0.01364531911514
25
 energy: -43.839037019971 gnorm: 0.002127845101 xtb: 6.6.1 (8d0f1dd)
C            3.33391593184511        1.15246897308850        0.09715346139637
N            2.33483586177497        0.12331124292551        0.03817468909151
C            2.60620001565763       -1.23577195988870        0.03229272960398
N            1.41438916739739       -1.92101111036649       -0.00057761071066
C            0.40117204237747       -1.03420133006089       -0.00959262669523
C            0.93175893191988        0.25354809883335        0.01380723644643
C            0.09850766056761        1.39733093033295       -0.00972969408629
O            0.45851086206783        2.57718642068337       -0.00823769027828
N           -1.28453468490592        1.04738753198720       -0.03358213338073
C           -2.24691117888712        2.13658166678655       -0.05204434661725
C           -1.82883675677784       -0.19891580222307       -0.04841349297284
O           -3.02644209728885       -0.39303652842436       -0.07076557243776
N           -0.94015020152434       -1.28832398078160       -0.03778154996791
C           -1.47400317533858       -2.63169999724750       -0.05812499895683
H            3.83520255308490        1.19258995419506        1.06852074242323
H            4.10247194358578        1.02179730942909       -0.67068451735995
H            2.82602094353342        2.09284956431988       -0.05568433948749
H            3.57340950930263       -1.67258448840655        0.03888724786264
H           -1.69300949695150        3.06974315571932       -0.03000895046243
H           -2.85560760491356        2.07991742388729       -0.95465250926408
H           -2.90410232979509        2.06541136968741        0.81450008420082
H           -1.17206479884713       -3.18436329417871        0.83420455657223
H           -1.14842290024403       -3.16724226838634       -0.95227611591346
H           -2.56134249064243       -2.54346613529331       -0.07212709551615
H            1.35261821727589       -2.92649472839261       -0.01549372144610
25
 energy: -43.839048167507 gnorm: 0.001162211022 xtb: 6.6.1 (8d0f1dd)
C            3.33414206818646        1.15289395603129        0.09603776992476
N            2.33548168354197        0.12278042770477        0.03846637885071
C            2.60622752516045       -1.23676521755356        0.03333653925661
N            1.41391849801128       -1.92126900643094        0.00061003629134
C            0.40120389761220       -1.03405769682940       -0.00894223538154
C            0.93226899980528        0.25342229922593        0.01466048675289
C            0.09901903583682        1.39734698720185       -0.00858751962998
O            0.45940734000133        2.57709384783864       -0.00680365236275
N           -1.28433515257591        1.04771438452670       -0.03310573734482
C           -2.24739465728450        2.13656539179680       -0.05186214103826
C           -1.82886322143860       -0.19849101126282       -0.04857275472971
O           -3.02657313696007       -0.39250136864680       -0.07150610892485
N           -0.94016342956259       -1.28797085518052       -0.03777747624381
C           -1.47373750283094       -2.63151311914050       -0.05887725370057
H            3.83687748140027        1.19377031593354        1.06673806243137
H            4.10225214738958        1.02252686523753       -0.67223152050774
H            2.82579064252492        2.09333769525162       -0.05709398846945
H            3.57313070003182       -1.67474187702620        0.04019419199818
H           -1.69435538991046        3.07026218482220       -0.02922575118155
H           -2.85588347872645        2.07989177988437       -0.95464489002473
H           -2.90548215113789        2.06483347197086        0.81398721750441
H           -1.17192519483406       -3.18440853020026        0.83331894573163
H           -1.14748637694252       -3.16666788850876       -0.95300514832288
H           -2.56112629255862       -2.54437712532927       -0.07335314548584
H            1.35119188953435       -2.92666389309171       -0.01399652334965
25
 energy: -43.825931236759 gnorm: 0.091953875339 xtb: 6.6.1 (8d0f1dd)
C            3.47069448974023        1.13531511556739        0.10458129153071
N            2.37957002715512        0.18202018476681        0.04702234358611
C            2.59588725668946       -1.20735769221034        0.03886483659083
N            1.39414068367773       -1.90951306628627       -0.00026460582739
C            0.39316405149566       -1.00101464156794       -0.00934628730704
C            0.92771283174539        0.29153700164033        0.01534229043494
C            0.03561897544970        1.40812237995411       -0.01395541157931
O            0.42997954825279        2.59360393010263       -0.00807033275096
N           -1.29695413905130        1.04168639144713       -0.03392807398115
C           -2.27314160790365        2.12469647766630       -0.05349183637967
C           -1.85247296166447       -0.20458265826860       -0.05047805659477
O           -3.04058136903059       -0.39918991043278       -0.07270822155273
N           -0.95641244213462       -1.27941692884929       -0.03892158742255
C           -1.48055104565626       -2.62301007106798       -0.05811771155124
H            3.96874451301479        1.19043569802300        1.05307243432316
H            4.22171994738042        1.02296331988068       -0.67080665320084
H            2.97105988194027        2.05232526097512       -0.00356809218931
H            3.55304042231363       -1.69872185445491        0.03528784833765
H           -1.73692247967710        3.04902754408645       -0.03391654639536
H           -2.88665532376698        2.06495055954723       -0.95609993927220
H           -2.93432570051353        2.05177385406945        0.81201458878585
H           -1.18176897439196       -3.17482187109221        0.83578817125021
H           -1.15940091453518       -3.16238476870638       -0.94813711722431
H           -2.57340183622435       -2.53340620217805       -0.07238514756648
H            1.33390525308930       -2.92341194273724       -0.01484402381843
25
 energy: -43.831447386797 gnorm: 0.038890846935 xtb: 6.6.1 (8d0f1dd)
C            3.41013294992069        1.14100272165976        0.10397758260038
N            2.36103282230940        0.15198125970888        0.04483795993311
C            2.60400670701563       -1.22123222312920        0.04178121476157
N            1.40566939093078       -1.90595450833500        0.00113226714070
C            0.40557624364380       -1.00352740398791       -0.00928494373310
C            0.93726758014141        0.28223843864704        0.01562856014186
C            0.06541799672493        1.41059250753387       -0.00972936741730
O            0.43773728036121        2.59242200991979       -0.00784878739452
N           -1.28926997565473        1.04909186693465       -0.03382763354359
C           -2.26746152487713        2.12893062224381       -0.05376152233039
C           -1.83929110448006       -0.19952316091391       -0.05037247284692
O           -3.03479834089083       -0.39628442917138       -0.07338183454423
N           -0.94042924804592       -1.27297422021674       -0.03886183997531
C           -1.46809838898447       -2.61709375850352       -0.05727530687099
H            3.92795019814562        1.14575726242642        1.06481420242235
H            4.16069922462783        0.98894994346507       -0.67528519490286
H            2.93411977514131        2.10154925233986       -0.01982073725520
H            3.55984201319978       -1.69520078240081        0.03540329379349
H           -1.72202852006066        3.06271213836539       -0.03321257678031
H           -2.87916682077503        2.06309674835476       -0.95568951544266
H           -2.92730886494978        2.05001747047407        0.81175277809302
H           -1.17169166409486       -3.17006109113088        0.83684975832320
H           -1.14767771592521       -3.15727327041376       -0.94971475099250
H           -2.55715091502989       -2.52647819890372       -0.07157603464896
H            1.33756998900067       -2.91111308509194       -0.01360093830510
25
 energy: -43.832761691926 gnorm: 0.022789252123 xtb: 6.6.1 (8d0f1dd)
C            3.43303207529086        1.13308722803362        0.10609924332617
N            2.36738689732979        0.14911699246616        0.04539628255885
C            2.60410090272151       -1.22023518330336        0.04244558180414
N            1.40470947436628       -1.89639545452850        0.00042003189965
C            0.40444715978683       -0.99939507054814       -0.00985495683756
C            0.94524004044698        0.28592539482359        0.01494023088432
C            0.07125451483666        1.41245510611281       -0.01120519505597
O            0.41825091840167        2.59709419297415       -0.00998595394711
N           -1.29919313115708        1.04617757644719       -0.03541785004943
C           -2.28192593503314        2.12088754479174       -0.05430115556552
C           -1.84416696726631       -0.20292298557356       -0.05028973187308
O           -3.04251967180336       -0.40346948554720       -0.07210896559627
N           -0.94189955966683       -1.27283298015926       -0.03920049608446
C           -1.47873341751627       -2.61764684821684       -0.05688106071604
H            3.96807455012539        1.15540714756473        1.06493716892317
H            4.20145296083876        0.99781593182724       -0.66780164341809
H            2.97115320544824        2.10395952236078       -0.02031959404639
H            3.55538370320340       -1.69271083845858        0.03329156216852
H           -1.73474614117716        3.05779078880722       -0.03404330566970
H           -2.89309142686340        2.05705516368493       -0.95556043912112
H           -2.93969731066761        2.04410365565838        0.81229666433441
H           -1.18576136646717       -3.17397009797747        0.83630443856001
H           -1.16246405708709       -3.16182900611911       -0.94941635713635
H           -2.56753976139548       -2.52786641992422       -0.07148676512882
H            1.32990143069902       -2.89997576532167       -0.01532357398761
25
 energy: -43.832922405828 gnorm: 0.015430621844 xtb: 6.6.1 (8d0f1dd)
C            3.42655703358933        1.13259090095451        0.10389242497364
N            2.36412626261171        0.14615521914886        0.04493645876229
C            2.59993363398828       -1.22365276898158        0.04275005887803
N            1.40137993604540       -1.90243445999789        0.00147686528417
C            0.39915186869237       -1.00601281647195       -0.00927163150723
C            0.94263173329538        0.28105792217375        0.01586525487680
C            0.07657746166439        1.40902284404255       -0.01002829681931
O            0.42041210469169        2.59360295343931       -0.00676783246477
N           -1.30042296611428        1.04388633614203       -0.03481392694554
C           -2.27111737019180        2.12671762203415       -0.05390322174256
C           -1.84615653189919       -0.20338226871384       -0.05041098493807
O           -3.04430278775108       -0.40059959499368       -0.07335607285588
N           -0.94644854721460       -1.27692616545299       -0.03918063440787
C           -1.47757635166727       -2.62348969721149       -0.05742234411202
H            3.95641027586910        1.18039811239796        1.06192041546737
H            4.19638313445375        1.02330417904958       -0.67413556106163
H            2.94389220827145        2.08506838826397       -0.01629487171903
H            3.55261347761707       -1.69513791548621        0.03446865465347
H           -1.71586409152629        3.05759976522231       -0.03258712633120
H           -2.87864491877582        2.07211809601928       -0.95723386179729
H           -2.92786052983303        2.05870610459513        0.81314430333136
H           -1.17651252017999       -3.17598558248022        0.83558173327860
H           -1.15292184253122       -3.16347338168112       -0.94954335497696
H           -2.56683919789439       -2.53830580171823       -0.07287442283854
H            1.32724761218352       -2.90920188041956       -0.01327786476209
25
 energy: -43.833290574995 gnorm: 0.008249763389 xtb: 6.6.1 (8d0f1dd)
C            3.42715947177535        1.12860046144219        0.10479284879886
N            2.36307239005433        0.15122990352194        0.04434354595825
C            2.60091402364400       -1.21921269964236        0.04145848872761
N            1.40418049322305       -1.90041904919848       -0.00001937656001
C            0.40060962027398       -1.00365428182325       -0.01002878139105
C            0.94107382615338        0.28588939556315        0.01475203744534
C            0.07768446357279        1.41359280554314       -0.01156867058629
O            0.42301921550610        2.59816236519065       -0.00908212201364
N           -1.30067362765886        1.04652124764054       -0.03510160591533
C           -2.27666426472476        2.12346330454171       -0.05410364587977
C           -1.84304431796990       -0.20064491841775       -0.04999339896727
O           -3.03970947730283       -0.39980713798286       -0.07236163907647
N           -0.94356121270026       -1.27387502840770       -0.03906267963281
C           -1.47463107186492       -2.61882777914196       -0.05664134745718
H            3.95079324677338        1.16108612738174        1.06443545796896
H            4.19120834003437        1.00081096658102       -0.67381904202697
H            2.95311886159881        2.08415096344658       -0.01370061036902
H            3.55580325662679       -1.69055878712702        0.03435796258154
H           -1.73264486174333        3.05935976450703       -0.03399248578703
H           -2.88549655885474        2.06083577659346       -0.95612511617909