25
 energy: 0.000000000000 xtb: 6.6.1 (8d0f1dd)
C            3.23720132972391        1.16630909158653        0.08434468864950
N            2.29877796055224        0.07527476373246        0.03981602671198
C            2.58028186251803       -1.21425391179017        0.03006175752192
N            1.43813944744728       -1.93419254010258        0.00098261751768
C            0.39035684826767       -1.05887462812143       -0.00790371763344
C            0.93510047688824        0.21347817468824        0.01709077332874
C            0.09450143016486        1.40504290868848       -0.00410946993748
O            0.49712746915594        2.54126690785742       -0.00342325656480
N           -1.25076628431515        1.06271869620815       -0.03085477937476
C           -2.21907191394203        2.15522079838987       -0.05001256521996
C           -1.81739470187490       -0.20012724136556       -0.04692818139228
O           -2.99983858926755       -0.37846413507442       -0.07008877579474
N           -0.92618577614240       -1.30210203518959       -0.03682761236648
C           -1.46982251276835       -2.64643077634382       -0.06029819901142
H            3.71247229913541        1.21471443890471        1.06488839270555
H            4.00791460421487        1.03430799217987       -0.67357688121503
H            2.69909982127087        2.09770098766290       -0.09130154035862
H            3.56654087521359       -1.63682977417947        0.04233139674524
H           -1.67107945562430        3.09322822573871       -0.02552706696334
H           -2.82428927394145        2.09428605349656       -0.95318074103337
H           -2.87644002486466        2.07745706351925        0.81450059976605
H           -1.17061985538665       -3.19584861009707        0.83242224714061
H           -1.14560246782873       -3.17511580834413       -0.95688266944647
H           -2.55549768731684       -2.55659960601237       -0.07459039105944
H            1.38130842369251       -2.94313824728853       -0.01389874052104
25
 energy: -3.934762915255 xtb: 6.6.1 (8d0f1dd)
C            3.37049098617677        1.15448394881365        0.09655708538426
N            2.34007886976352        0.13579616512261        0.04116765325550
C            2.60498211411840       -1.23456198108846        0.03017653428075
N            1.39802214041827       -1.91282776417879       -0.00021983413149
C            0.39359380622935       -1.02045135837919       -0.00911826171067
C            0.92808970251129        0.26721157369184        0.01502451111202
C            0.07746547341165        1.39790792756549       -0.00845855576621
O            0.42811116136048        2.59459963289056       -0.00818609834960
N           -1.30959163733101        1.03729110302900       -0.03490108474938
C           -2.28412532840928        2.11926415769008       -0.05430368726462
C           -1.85237203564892       -0.20456471883786       -0.05046594626244
O           -3.05487793258482       -0.40908971366226       -0.07400984057596
N           -0.95224554192174       -1.28401828912385       -0.03850327541878
C           -1.47862569239427       -2.62963281755329       -0.05897581941187
H            3.91627103988859        1.19927119218933        1.05663925049644
H            4.15410371440557        1.03147531030324       -0.66962781777507
H            2.80852537510722        2.07041423160948       -0.05992000770449
H            3.56828773515482       -1.67556465655516        0.04018714935071
H           -1.72770079123748        3.05349727546193       -0.03264514228182
H           -2.89504058419353        2.06101605034305       -0.95645948741270
H           -2.94401982514661        2.04753311758648        0.81148361517962
H           -1.17477451206738       -3.18355932048904        0.83317953814976
H           -1.14957763504201       -3.16696940390473       -0.95248364364158
H           -2.56566913144443       -2.54677549964318       -0.07373149787478
H            1.31281283384799       -2.91271737413686       -0.01537142468303
25
 energy: 3.923798693749 xtb: 6.6.1 (8d0f1dd)
C            3.48178466479226        1.13315128867995        0.10546675183733
N            2.37000918975290        0.17131430054267        0.04539767641550
C            2.60719117877935       -1.23532871344959        0.03209106383931
N            1.37405579170938       -1.88480091309685       -0.00041492114364
C            0.39254589251511       -0.98612116009785       -0.00948588035089
C            0.92751221855350        0.31028103550142        0.01578640342737
C            0.05496186467358        1.40328709716642       -0.01152148003520
O            0.35262158476980        2.62328642954533       -0.01232673291293
N           -1.35695369489439        1.02577816578303       -0.03952395201232
C           -2.34188357639168        2.09516804093826       -0.05957962318493
C           -1.87764439858477       -0.21180962142763       -0.05414984251725
O           -3.08229033181837       -0.44091389026749       -0.07853875398558
N           -0.96455924396896       -1.26914217774920       -0.03997323961829
C           -1.48241439223968       -2.61775360782501       -0.05711836750618
H            4.09132659614073        1.16029689868772        1.04203453229949
H            4.26794260952529        1.01873983899361       -0.67236963474628
H            2.92888770145588        2.05747324654933       -0.02047892830060
H            3.55872774307182       -1.69185379560820        0.03761750012049
H           -1.78652210630209        3.02939853061257       -0.04164413161004
H           -2.95862892181467        2.03127065217626       -0.95891890330426
H           -3.00299193925470        2.02220154257568        0.80674448565205
H           -1.18351966094182       -3.17378603442649        0.83640051161120
H           -1.15743213863351       -3.16232069943958       -0.94878680259329
H           -2.57106069707493       -2.53646456142866       -0.07271655331357
H            1.27054837115243       -2.88232310419166       -0.01695726587285
25
 energy: 18.199373644676 xtb: 6.6.1 (8d0f1dd)
C            3.60497974200717        1.11040193364445        0.11541165677379
N            2.40398077346508        0.20793973051659        0.05093746602239
C            2.60721535735424       -1.23141409862950        0.03519650942928
N            1.35495401254704       -1.85429473852162       -0.00043127341530
C            0.39034893868385       -0.95204642053712       -0.00984326688721
C            0.92693412964709        0.35375249052516        0.01720707385852
C            0.02679577676902        1.41071957275029       -0.01505877149927
O            0.26359945726266        2.64771031971654       -0.01739941475973
N           -1.41095590676005        1.01315984201853       -0.04569958571113
C           -2.40051823431791        2.07417179523985       -0.06626432095638
C           -1.90760393479616       -0.22509282897832       -0.05894111120169
O           -3.11175114505740       -0.48117820731668       -0.08438715348064
N           -0.97658524542716       -1.25867896199827       -0.04179889426285
C           -1.49027384208331       -2.61041830017729       -0.05434293269798
H            4.28437268378249        1.11681055852632        1.02347059945797
H            4.39203165207910        1.02055372653791       -0.68044697578759
H            3.05440548984194        2.04115888511148        0.03262372913293
H            3.54900075738189       -1.70124533074694        0.03324986298374
H           -1.83934095574504        3.00423173187163       -0.05370557325974
H           -3.02388025463028        2.00750009007184       -0.96218553587898
H           -3.06136466860694        2.00513551209418        0.80200628463496
H           -1.20284448518584       -3.16911326932216        0.84174615281591
H           -1.17506658387742       -3.16481808641063       -0.94401599798605
H           -2.58083431842095       -2.52562355200505       -0.07137289488964
H            1.23461510905939       -2.85029360523710       -0.01892172024068
25
 energy: 35.397796461270 xtb: 6.6.1 (8d0f1dd)
C            3.72709599888514        1.08522760667819        0.12446928778887
N            2.43706961475708        0.23921301099829        0.05339939767399
C            2.60497258279390       -1.22287968286026        0.03729743493043
N            1.34227601823632       -1.82547372727667       -0.00102312716411
C            0.38649981419693       -0.92073296675948       -0.01074686155086
C            0.92587169903683        0.39249701350029        0.01706538796621
C           -0.00225077932628        1.42272842165347       -0.01877748224666
O            0.18298070962355        2.66760447208928       -0.02250264974763
N           -1.46228213007930        1.00538082695140       -0.05172655924743
C           -2.46024799046203        2.05644347376291       -0.07283423284939
C           -1.93714829981477       -0.23685203875744       -0.06327392959352
O           -3.13900821965313       -0.51590286381634       -0.08936246877151
N           -0.98690911057678       -1.24980874602830       -0.04323907074394
C           -1.49797262271759       -2.60501929846360       -0.05070524088762
H            4.46089579878804        1.06663858213696        1.00772535726615
H            4.51671121424365        1.02008017736283       -0.68616461885908
H            3.18134292501936        2.02153899823356        0.08443969959815
H            3.53962485707809       -1.70237530390694        0.02681506452764
H           -1.90174349750548        2.98740360919540       -0.06653727364107
H           -3.09003800735608        1.98376800720930       -0.96485916003188
H           -3.11984770757276        1.98903133575761        0.79757618270098
H           -1.22144454385763       -3.16475964921956        0.84820845810380
H           -1.19246637593868       -3.16794488987628       -0.93853308193435
H           -2.59038093535920       -2.51647202295049       -0.06897583714070
H            1.20861329253328       -2.82030555686996       -0.02070076395186
25
 energy: 51.969091032122 xtb: 6.6.1 (8d0f1dd)
C            3.85189737894637        1.05500259715417        0.13194220949896
N            2.46843896460089        0.25979185481382        0.05094117228663
C            2.59437019724511       -1.20519743494894        0.03902267636042
N            1.33855795006240       -1.79758699859924       -0.00218999166217
C            0.37739924864840       -0.89340920370006       -0.01261704097535
C            0.92190791593965        0.42355679424265        0.01419891329260
C           -0.03222378857297        1.44321225288223       -0.02248120230009
O            0.11390845241949        2.67658779371605       -0.02706505444295
N           -1.50966691369069        1.00637616292649       -0.05716821478694
C           -2.52090191250435        2.04463071417319       -0.07857870152607
C           -1.96650974982359       -0.24620131935023       -0.06662348197056
O           -3.16113839469160       -0.54117805621950       -0.09263643014830
N           -0.99543198720277       -1.24309602008263       -0.04420927672000
C           -1.50472869033979       -2.60313519761186       -0.04641985301238
H            4.61354416615498        1.01246745749525        0.99667696794698
H            4.64898271367042        1.01692680805144       -0.68652497583470
H            3.30644688778723        1.98977511586903        0.12894562784395
H            3.52720901260923       -1.68899853550628        0.01787739522121
H           -1.97868238272622        2.98420944786895       -0.07902428014398
H           -3.15588005438506        1.95913784828181       -0.96639999999342
H           -3.17783157353402        1.97250240395816        0.79398821068050
H           -1.23712398234479       -3.16052989419516        0.85547068289223
H           -1.20801564831124       -3.17061226376815       -0.93307525993188
H           -2.59915345130680       -2.51240649817254       -0.06542409377065
H            1.19683994632219       -2.79279704053449       -0.02159208660935
25
 energy: 61.862281017483 xtb: 6.6.1 (8d0f1dd)
C            3.96413728186698        1.01729114364107        0.13485989755024
N            2.48804125551792        0.24712242616954        0.04219813701085
C            2.56066829669603       -1.16416991294958        0.04138540700542
N            1.35187079758229       -1.77252855358952       -0.00329022232782
C            0.35463081872557       -0.87615185784442       -0.01474556022573
C            0.91089108256952        0.43335207913411        0.00952332989380
C           -0.05937616798833        1.48522341263534       -0.02328033274159
O            0.07245289969500        2.67311595279968       -0.02777668685935
N           -1.53335065817891        1.02461689986890       -0.05984582453650
C           -2.57345962294796        2.04090556240347       -0.08216179806782
C           -1.98866414484588       -0.24758621464112       -0.06733063892479
O           -3.16605151075592       -0.53999088722679       -0.09293601223665
N           -0.99681855074525       -1.23852604420080       -0.04385147235426
C           -1.50502767087430       -2.60537158173974       -0.04285401553117
H            4.70121039469726        0.94998747458238        0.99429347829344
H            4.76582571425586        0.99070548621009       -0.68168574043324
H            3.41325319543153        1.94046739161210        0.14999977440065
H            3.50382258440281       -1.64553152244963        0.00767432754363
H           -2.07988627095274        3.00718407052515       -0.08764963320109
H           -3.20912201092651        1.92852410712051       -0.96647947367653
H           -3.22701992056855        1.94803009726494        0.79083093060674
H           -1.23727139060449       -3.15206530504381        0.86159178726011
H           -1.20957200402412       -3.16550490470511       -0.93009973712546
H           -2.60098769430917       -2.51845858353666       -0.06152759999706
H            1.21201760125391       -2.77161194729592       -0.01980840913117
25
 energy: 75.084966078663 xtb: 6.6.1 (8d0f1dd)
C            4.07166355362023        0.98663434875724        0.14232333903662
N            2.50483741439937        0.25106738270519        0.02859344449658
C            2.54510339116476       -1.13280681566443        0.03397233836927
N            1.34560529000475       -1.74840578274650       -0.00688404500884
C            0.33905448878006       -0.85415034884531       -0.01734718243093
C            0.90021638623435        0.45538903915011        0.00380973224352
C           -0.08124102899874        1.51123444331429       -0.02327289285864
O            0.01660760725980        2.71784260130138       -0.02787796522102
N           -1.54958068670152        1.02573229055090       -0.06192793626623
C           -2.62233180565194        2.02154905361110       -0.08732357411270
C           -2.00519419446419       -0.24562316351308       -0.06802546888019
O           -3.18185820221676       -0.54273581267125       -0.09367762232606
N           -1.00453924663401       -1.22770108088177       -0.04219639301722
C           -1.50774120542642       -2.59873771882524       -0.03810473147203
H            4.81508951399841        0.88011003081246        0.99786771207885
H            4.87425917423799        0.95049860915761       -0.67377872874891
H            3.51936910321613        1.90554534079262        0.17368225232653
H            3.48697709717363       -1.61765485659560       -0.00107764502339
H           -2.17677184016744        3.01441462385921       -0.09781582488556
H           -3.26094352831675        1.88982763459304       -0.96850809285329
H           -3.27640173905573        1.91573872640302        0.78514934882764
H           -1.23501189559995       -3.14117145330641        0.86744483042882
H           -1.20826070776442       -3.15872632239197       -0.92434513173492
H           -2.60385120619131       -2.52202046461143       -0.05645350239308
H            1.20715857207223       -2.74682151621097       -0.01719234838015
25
 energy: 84.407192477987 xtb: 6.6.1 (8d0f1dd)
C            4.21767750068095        0.95304359970122        0.15813173391096
N            2.51091098820039        0.25923142780662       -0.01239141351183
C            2.51659874160010       -1.09195002000321        0.01336601395356
N            1.33510006075000       -1.72109491509493       -0.01221025384643
C            0.31257576500645       -0.83204074765236       -0.02045028613530
C            0.87183473231985        0.47530177885306       -0.00818341692585
C           -0.11791752715664        1.53406141933012       -0.01501385654821
O           -0.03720552285510        2.73031201240888       -0.02480781586891
N           -1.58192884508885        1.03204158930532       -0.06407021507105
C           -2.67424610717898        2.01048995776381       -0.09410265824577
C           -2.03158420630002       -0.24634874624921       -0.06826504792634
O           -3.20327848495643       -0.55170198657304       -0.09535581985310
N           -1.02035816528527       -1.22135400223964       -0.03547087345235
C           -1.51201080169267       -2.59915917788229       -0.03136278717508
H            4.95898952721345        0.83852779415048        1.00970231183560
H            5.01923402980705        0.93427330275026       -0.66309481685809
H            3.63008509137535        1.84900731095355        0.20019347955753
H            3.46079022047659       -1.57987890578544       -0.00370411961978
H           -2.26076163665428        3.01706393355484       -0.10704954091307
H           -3.31028110214865        1.85780682734644       -0.97420343579114
H           -3.32509824959243        1.88854322322278        0.77926335543065
H           -1.23420601204617       -3.13750517686519        0.87435874666217
H           -1.20721735398570       -3.15477099467586       -0.91818212988584
H           -2.60881531521619       -2.53336773565012       -0.05107680770995
H            1.20332697769973       -2.72150297973179       -0.00898643381770
25
 energy: 85.912136796266 xtb: 6.6.1 (8d0f1dd)
C            4.37498432028753        0.92574236858252        0.17447305124657
N            2.49042687768252        0.25809430117756       -0.04192519341044
C            2.47666626673637       -1.03850030004492       -0.00393486457240
N            1.32624234357875       -1.70229037894052       -0.01654770706098
C            0.27611137116287       -0.82265971775602       -0.02272258227410
C            0.82512288365997        0.47267181614392       -0.01710732931931
C           -0.16256612793020        1.54758272146905       -0.01282374389280
O           -0.08362854367848        2.72095026049561       -0.02165528080870
N           -1.61306885218062        1.03632670634187       -0.06718598862315
C           -2.70642996467864        2.00945430253122       -0.09759668393786
C           -2.05838394966218       -0.25253705801297       -0.06834394642664
O           -3.22195697752774       -0.56212026962138       -0.09615248967735
N           -1.03839762954864       -1.22512180572372       -0.03004164219759
C           -1.51966154894679       -2.60837186984859       -0.02789216965570
H            5.09673786562167        0.84797132269183        1.02481312058338
H            5.16354716965418        0.94939937124837       -0.65983687174637
H            3.69720995568278        1.77142015916609        0.21327480584075
H            3.43082337062409       -1.52715291403895        0.00014838684909
H           -2.30162670354726        3.01611218720889       -0.11080421304940
H           -3.33691834394839        1.84753931083713       -0.97783658361527
H           -3.35190315377816        1.87954010242769        0.77751300875536
H           -1.23611201123043       -3.14123052295543        0.87779482288818
H           -1.20846044216532       -3.15652706620906       -0.91590783168749
H           -2.61654741761309       -2.55007905560441       -0.04854226767261
H            1.21000354671777       -2.70718518282155       -0.00412589434049
25
 energy: 88.762307357753 xtb: 6.6.1 (8d0f1dd)
C            4.75102086085656        0.92142603291176        0.22878902875250
N            2.34591977828766        0.25996712613444       -0.18762804195041
C            2.37529470147517       -0.93284915595225       -0.05312335623816
N            1.29662019568332       -1.70507109404862       -0.02001179486559
C            0.18779303634956       -0.82858648695455       -0.02199382807576
C            0.66815601652372        0.42645517182211       -0.04284544612148
C           -0.27869194330833        1.55507335858835        0.01057896371821
O           -0.11406769314547        2.67559781051787       -0.00952580892992
N           -1.65298932707864        1.05592104831710       -0.07233656951217
C           -2.73963774401697        2.01853567376894       -0.10321783079110
C           -2.09073266080800       -0.25733996143437       -0.06649278241475
O           -3.24212292644377       -0.57061324586608       -0.09848261461295
N           -1.07742065528386       -1.24477173764483       -0.00589345105597
C           -1.53276282699533       -2.63125258874136       -0.02187700780700
H            5.34866484281973        0.96918654574372        1.10629428646812
H            5.42654488105489        1.01947584206036       -0.66079167685942
H            3.75881824375387        1.60076833191192        0.20936207631459
H            3.36376685439804       -1.44292235817094        0.02897213266487
H           -2.33685391143475        3.01021209497279       -0.10996543474175
H           -3.35171481402367        1.83782692781523       -0.98405537210093
H           -3.36873583221065        1.86429184578690        0.77587676844436
H           -1.22791223273094       -3.15465658499804        0.87974506969136
H           -1.19660210772981       -3.15566418917628       -0.91566709973501
H           -2.62502200037996       -2.58349961221950       -0.04754183460522
H            1.22488156936018       -2.71848200640035        0.00886553655826
25
 energy: 77.891010482164 xtb: 6.6.1 (8d0f1dd)
C            4.86974363613169        0.95793051851358        0.27391219293303
N            2.25600166895793        0.29414429594563       -0.32171837226997
C            2.36381423577886       -0.94451774337158       -0.05419975374337
N            1.28906744225743       -1.72723488251359       -0.00527438008030
C            0.17844945123199       -0.84972183118892       -0.01670478348634
C            0.61403423310651        0.41628818685135       -0.06733586138642
C           -0.31876379811970        1.53539011741464        0.01910475210840
O           -0.08913979281977        2.68829255460499       -0.00750898727590
N           -1.65825627405102        1.05696011825356       -0.07605676706316
C           -2.74355143884478        2.01976136863042       -0.10179105881920
C           -2.09027947260852       -0.25890929647244       -0.06484874582995
O           -3.25051052193318       -0.56599967669374       -0.09966640646485
N           -1.10022034037716       -1.26041187867111        0.01259916552953
C           -1.54660835024734       -2.63891100149046       -0.02075373283344
H            5.44678565571916        1.06739130742957        1.16108633055830
H            5.48525538600707        1.04053741351378       -0.63244281432611
H            3.74033227133225        1.51699668480139        0.18798966623874
H            3.36158392229889       -1.42979745233373        0.02839625018147
H           -2.33425951030136        3.01048369587380       -0.10506729389787
H           -3.35458231613716        1.84339343624731       -0.98120441249491
H           -3.36927841100517        1.86497032790608        0.77857620481685
H           -1.23290844720297       -3.16528383632559        0.87598929855854
H           -1.19973805614414       -3.15381828945495       -0.91890287872221
H           -2.63627982931887       -2.59490067201376       -0.05065555050385
H            1.23152296126193       -2.73400467671203        0.01351185046766
25
 energy: 76.835418623444 xtb: 6.6.1 (8d0f1dd)
C            5.00278737113310        0.97928389208812        0.31959189006488
N            2.18105659077708        0.32080676474912       -0.36220092276448
C            2.34360135535684       -0.93562279951789       -0.07529330216436
N            1.27837441104326       -1.72832290573652        0.00913191889759
C            0.16004922782340       -0.87685813360478       -0.01579871059625
C            0.58222328009063        0.41349766325205       -0.09769861236577
C           -0.35301692619623        1.51666258739636       -0.01429235873835
O           -0.08651169616883        2.67762043396921        0.00043757637347
N           -1.68005537940471        1.04913059745142       -0.08223485694894
C           -2.75878439940578        2.02101720564772       -0.09944159001081
C           -2.11370659602174       -0.26966214919712       -0.06404718470203
O           -3.28115203858931       -0.56107582693974       -0.09791806769782
N           -1.13962697480078       -1.27884683768776        0.02025791804843
C           -1.57283509047313       -2.65678836679514       -0.01888233425083
H            5.62449653586288        1.17924184814423        1.18929519042789
H            5.62380195955678        1.08504000865154       -0.59614987162944
H            3.73414273438656        1.37577185515354        0.18861840076158
H            3.34332110430863       -1.36086222315551       -0.00086241036564
H           -2.33776664920626        3.01488044447074       -0.10397735938807
H           -3.36958445185605        1.85484758756858       -0.98181354830424
H           -3.38319444338727        1.87652883623863        0.78301492456085
H           -1.24793032560738       -3.18197108842963        0.87554226367670
H           -1.21499767245831       -3.16450245061689       -0.91781927634943
H           -2.66319455429901       -2.62802067902624       -0.04932476320296
H            1.24071693250823       -2.73276747532979        0.01889899886270
25
 energy: 74.948089793192 xtb: 6.6.1 (8d0f1dd)
C            5.17022452297503        1.09781046211636        0.30285375757631
N            1.96795017686733        0.34360075759072       -0.20692417912421
C            2.31368608358662       -0.92676873857114       -0.09027339430290
N            1.23113599523859       -1.73312610271235        0.02403397764499
C            0.14549782771527       -0.94036141662606       -0.01812814385763
C            0.60565231012033        0.37913398666020       -0.10901008672407
C           -0.36874485705749        1.46768407532772       -0.06025289017755
O           -0.09144153330641        2.66560969640421       -0.01272388814684
N           -1.68712029745808        1.01515826470050       -0.06094001565299
C           -2.75510003101830        2.01734362257424       -0.08673669601169
C           -2.14115150072547       -0.29142343374605       -0.06052379350012
O           -3.32627738348575       -0.55346588903855       -0.09491236550810
N           -1.18891155342229       -1.29061675407518       -0.00570114197592
C           -1.60899344470894       -2.67543219634021       -0.03205082159183
H            5.81158149782416        1.36295362888733        1.15636688906687
H            5.88577690202209        1.19717774841262       -0.56933234503638
H            3.66827188070004        1.12931518084660        0.16515252345691
H            3.31363826086839       -1.26900343443281       -0.02287233518228
H           -2.29575431003468        3.00966535997664       -0.08799958916249
H           -3.36738853180198        1.88942685601450       -0.98132043077490
H           -3.39101433447779        1.90478354332073        0.79042658580464
H           -1.27137307144069       -3.20340566657390        0.86294504959043
H           -1.24171450114349       -3.18830723678250       -0.92459640654889
H           -2.69967545221713       -2.67646862351182       -0.05325320493611
H            1.23345964935330       -2.74225490167758        0.00280685726953
25
 energy: 87.359490020597 xtb: 6.6.1 (8d0f1dd)
C            5.14714961096753        1.17750127218671        0.24309254089305
N            1.92848152050667        0.32821914593404       -0.09536449240999
C            2.28349193637812       -0.92940395276266       -0.04425906486276
N            1.21870601749315       -1.76945558284690        0.00883055735084
C            0.11964903216853       -0.98182369925944       -0.01685863535754
C            0.61304071026165        0.32683106127245       -0.06041332340821
C           -0.33442700865869        1.44824073103900       -0.03217712492122
O           -0.04938930513869        2.59659762855722       -0.03451154757006
N           -1.66450184484742        1.01682751348425       -0.05379666036509
C           -2.69990510847097        2.04081415846632       -0.07812139562462
C           -2.13711872983096       -0.29281769517070       -0.06618184540706
O           -3.31138140770780       -0.53646938361872       -0.09394660225619
N           -1.19211693283594       -1.30967197755038       -0.02807164310857
C           -1.62462322148666       -2.69512509515795       -0.04727722808045
H            5.73757686253656        1.47576816785098        1.14139486516312
H            5.89833220085566        1.29060192115717       -0.60501979958778
H            3.53351358543187        1.11015123099043        0.10922916894602
H            3.30940315205265       -1.27057547121079       -0.00602312852905
H           -2.21496690234581        3.00767845111704       -0.06959568737815
H           -3.30865851898622        1.92239612214743       -0.97262040189050
H           -3.33862891847632        1.92420349232014        0.79621277238248
H           -1.28154955175415       -3.21383542878832        0.84890626150695
H           -1.25370775511738       -3.20170910624214       -0.94001153061807
H           -2.71427967038840       -2.68806297893652       -0.06556503469333
H            1.24812455236563       -2.78785173623444       -0.01081710797914
25