25
 energy: 0.000000000000 xtb: 6.6.1 (8d0f1dd)
C            3.23720163006194        1.16630919979326        0.08434469647475
N            2.29877817382611        0.07527477071623        0.03981603040599
C            2.58028210190900       -1.21425402444508        0.03006176031096
N            1.43813958087363       -1.93419271955128        0.00098261760884
C            0.39035688448383       -1.05887472636071       -0.00790371836672
C            0.93510056364412        0.21347819449412        0.01709077491437
C            0.09450143893243        1.40504303904423       -0.00410947031874
O            0.49712751527797        2.54126714362870       -0.00342325688240
N           -1.25076640035757        1.06271879480407       -0.03085478223738
C           -2.21907211982101        2.15522099834493       -0.05001256985998
C           -1.81739487048744       -0.20012725993278       -0.04692818574614
O           -2.99983886758376       -0.37846417018721       -0.07008878229737
N           -0.92618586207120       -1.30210215599479       -0.03682761578324
C           -1.46982264913417       -2.64643102187190       -0.06029820460571
H            3.71247264356769        1.21471455160235        1.06488849150277
H            4.00791497605742        1.03430808813993       -0.67357694370751
H            2.69910007168542        2.09770118228144       -0.09130154882931
H            3.56654120610678       -1.63682992603973        0.04233140067262
H           -1.67107961066214        3.09322851271934       -0.02552706933167
H           -2.82428953597071        2.09428624779827       -0.95318082946668
H           -2.87644029173232        2.07745725625962        0.81450067533302
H           -1.17061996399332       -3.19584890659852        0.83242232437030
H           -1.14560257411436       -3.17511610292205       -0.95688275822323
H           -2.55549792440841       -2.55659984320617       -0.07459039797972
H            1.38130855184625       -2.94313852034425       -0.01389874181052
25
 energy: -5.275971108210 xtb: 6.6.1 (8d0f1dd)
C            3.27595211473405        1.16905142750054        0.08862600442528
N            2.31386037089742        0.10098340764332        0.03929141081943
C            2.59689421817898       -1.22815433450846        0.02973034906004
N            1.42363967587836       -1.93354349824522        0.00043070952369
C            0.39360132054677       -1.04918356266440       -0.00840871474694
C            0.93069752441709        0.23028646621562        0.01576276948545
C            0.09268900238421        1.39967485070541       -0.00562298176072
O            0.48335119451862        2.56739619205618       -0.00493628152875
N           -1.26988749477045        1.05066994475658       -0.03187470193707
C           -2.23602016080385        2.14263170049989       -0.05092106706206
C           -1.83067181531534       -0.20153930279319       -0.04795212301089
O           -3.02697157449129       -0.38738175205550       -0.07116996689651
N           -0.93748933765580       -1.29814413169796       -0.03735219817731
C           -1.47429032964804       -2.64160837080129       -0.06000710030228
H            3.77012815976939        1.21854603489410        1.06541102330807
H            4.05105184057525        1.03980433320503       -0.67283161423170
H            2.72043373252783        2.08850825866721       -0.08399185654295
H            3.57347803105162       -1.65605868912077        0.04177274575783
H           -1.67977831236357        3.07685238056475       -0.02705614351223
H           -2.84242243984486        2.08651979579698       -0.95468581648145
H           -2.89396379483077        2.07051814499526        0.81471589764119
H           -1.17124615437300       -3.19288090041190        0.83221695653567
H           -1.14622135957917       -3.17315821188813       -0.95545252052905
H           -2.56009026106748       -2.55353915390797       -0.07441453039263
H            1.35549051720025       -2.93722242723407       -0.01424635329680
25
 energy: -5.128878483061 xtb: 6.6.1 (8d0f1dd)
C            3.34252708505474        1.16038466481979        0.09473478245840
N            2.33377834101790        0.12836890243077        0.03976883057972
C            2.60506374850333       -1.23625947575645        0.03022230157413
N            1.40243883406322       -1.91823836239090        0.00011416500394
C            0.39488963219972       -1.02723854431727       -0.00898112721116
C            0.92815450313126        0.25885073860316        0.01469702417644
C            0.08399340323706        1.39576255875438       -0.00809261511698
O            0.44134148454322        2.58757214692369       -0.00793434144200
N           -1.30015271165500        1.03870022292658       -0.03417785450398
C           -2.27029916644637        2.12407335265430       -0.05334443393734
C           -1.84589270651260       -0.20374387096786       -0.04983595939471
O           -3.04732946597530       -0.40459175700577       -0.07326862382931
N           -0.94873087642961       -1.28676535073660       -0.03818523026466
C           -1.47652095482941       -2.63140251371370       -0.05916729993330
H            3.87438186283754        1.20437716450155        1.05931566503611
H            4.12149451571211        1.03493714687032       -0.67183343877016
H            2.78635695498755        2.07996919114746       -0.06454673641274
H            3.57049980762643       -1.67555730707955        0.04086693864090
H           -1.71022687066945        3.05618125722544       -0.03110301338385
H           -2.88025086887753        2.06772366544085       -0.95595339316226
H           -2.92980366637229        2.05361893662968        0.81251990511863
H           -1.17246182210342       -3.18490655262877        0.83293190830737
H           -1.14723823105476       -3.16756174321178       -0.95304421605590
H           -2.56316075182891       -2.54653965051133       -0.07388667652535
H            1.31936258777677       -2.91868621843591       -0.01478266480467
25
 energy: -0.879074094932 xtb: 6.6.1 (8d0f1dd)
C            3.43558061563985        1.13709991452713        0.10175054632153
N            2.35758073817076        0.15618646239612        0.04229234843488
C            2.60434935366168       -1.23641657174298        0.03182867729357
N            1.38089092579969       -1.89195111531824        0.00021407884143
C            0.39421601997884       -0.99429179685146       -0.00923836895764
C            0.92896712465296        0.29824814367725        0.01505435049631
C            0.06549439152854        1.40569399306806       -0.01072130450086
O            0.37678615458771        2.61556042391336       -0.01156822036298
N           -1.33906499921820        1.03324963898911       -0.03793057887843
C           -2.32537114999524        2.10163146865300       -0.05788163219605
C           -1.86494481397404       -0.20664216458295       -0.05274527195940
O           -3.06686400748546       -0.42955217036474       -0.07689189308017
N           -0.95645902648419       -1.26962380022101       -0.03920765646884
C           -1.47391443740954       -2.61741111126984       -0.05743880521544
H            4.01800478854091        1.15559526376291        1.04757351504917
H            4.21213617445221        1.00625019759137       -0.67502369812899
H            2.90745264346909        2.07580340579587       -0.03105070205145
H            3.55925119537322       -1.69213950025500        0.03920426401942
H           -1.77583170193998        3.03899467866338       -0.03876434894128
H           -2.94038285993288        2.03394685941859       -0.95759417779278
H           -2.98618207188010        2.02324125460533        0.80761644690889
H           -1.17164795210044       -3.17081986390960        0.83596794611638
H           -1.14594205618932       -3.15756745172007       -0.95004846628071
H           -2.56185721449984       -2.53550286367011       -0.07270458324373
H            1.27996683319005       -2.89055469298344       -0.01565856927551
25
 energy: 8.232504289921 xtb: 6.6.1 (8d0f1dd)
C            3.54476883217337        1.11204546960227        0.11084867562400
N            2.38676917853279        0.18837539859699        0.04701376285215
C            2.60168039178236       -1.23223835486376        0.03522174278345
N            1.36187228379345       -1.86040805106885        0.00087744248561
C            0.39266196688444       -0.95912658320276       -0.00932422185056
C            0.92961065199510        0.34171921522805        0.01649404407266
C            0.04115195913450        1.41623798965106       -0.01429917575947
O            0.28967529273036        2.64076304436311       -0.01672544887042
N           -1.38792708557116        1.02341199604694       -0.04395389250742
C           -2.38149250767962        2.08069605329017       -0.06449351858883
C           -1.89013321961365       -0.21780736629045       -0.05741158350177
O           -3.08994285699182       -0.46817189364755       -0.08272971579459
N           -0.96471604440820       -1.25649782377832       -0.04078744237117
C           -1.47571552147619       -2.60772533080763       -0.05460062540642
H            4.19293358174363        1.10017755852509        1.02935782027958
H            4.31446867619904        0.99706788911025       -0.68690632917927
H            3.03709842262041        2.06832051497710        0.02336792390992
H            3.54684027653573       -1.70394133518889        0.03577610623830
H           -1.83002461771415        3.01583181403843       -0.05058144938419
H           -3.00295947498652        2.00679928846775       -0.96063651309884
H           -3.04207411462100        2.00242816636136        0.80256681035745
H           -1.18347044782238       -3.16222908755426        0.84160391536584
H           -1.15595998715184       -3.15591967524332       -0.94547864914234
H           -2.56537993281329       -2.52291976311956       -0.07133754204464
H            1.24247896466088       -2.85786053132109       -0.01682824032173
25
 energy: 17.535148444596 xtb: 6.6.1 (8d0f1dd)
C            3.63842609547308        1.08427204270671        0.11760276497343
N            2.41074361661766        0.21222710564089        0.04894564407610
C            2.59893698767010       -1.22473976035302        0.03649860395971
N            1.34911589778379       -1.83386191553921        0.00074018129400
C            0.39083109523604       -0.92743121726012       -0.00955968430670
C            0.93143087178731        0.37817609029419        0.01700848506426
C            0.01901725073028        1.43271705046374       -0.01699925037596
O            0.22588425970643        2.66675797141477       -0.02061598221508
N           -1.42574314681441        1.02155883002271       -0.04856944407322
C           -2.43806201700911        2.06150485323151       -0.07026613255961
C           -1.91027115221428       -0.22173528330412       -0.06078862362555
O           -3.10850886859130       -0.49201886797501       -0.08699823274669
N           -0.96930062237186       -1.24205543820204       -0.04154869807550
C           -1.47349316684140       -2.59668150400684       -0.05139925899725
H            4.32934054141050        1.03409602301622        1.01629885474734
H            4.40117401696312        0.96887978538643       -0.69416950207599
H            3.16487471327735        2.06140346144816        0.06697850770034
H            3.53623559483203       -1.70918018417467        0.03137295485935
H           -1.90292608528926        3.00550310559481       -0.06156137984622
H           -3.06495604428442        1.97439099550379       -0.96268039937643
H           -3.09822758568806        1.97600179185665        0.79745498353309
H           -1.18578794196723       -3.14978299477874        0.84719026692004
H           -1.15736059387450       -3.14945198838231       -0.94081385560671
H           -2.56436649796157       -2.51193043869800       -0.06907457371061
H            1.21520744935591       -2.82959091173442       -0.01801233338879
25
 energy: 25.290232989839 xtb: 6.6.1 (8d0f1dd)
C            3.72860903014106        1.05004545361390        0.12318728173137
N            2.43323531312025        0.22856105243471        0.04826740194446
C            2.59273619779517       -1.20806127465195        0.03683796546598
N            1.34584882490206       -1.80792360221068       -0.00017900571505
C            0.38665437643297       -0.89777756490112       -0.01023422111202
C            0.93327187647827        0.40916897610061        0.01635580526321
C           -0.00517549753434        1.45643209753840       -0.01958527802738
O            0.17382249742997        2.68632575233539       -0.02403292841742
N           -1.45847177635051        1.02718894986004       -0.05294552754530
C           -2.49533838366968        2.04675018999370       -0.07587020261110
C           -1.92941183673007       -0.22310932493490       -0.06368371568256
O           -3.12306244418646       -0.50788925470775       -0.09042442537828
N           -0.97051575685102       -1.22885666101707       -0.04179886788146
C           -1.46992268233281       -2.58754572271997       -0.04711291773385
H            4.43932839646589        0.95693625848142        1.00554183736111
H            4.48524242403796        0.93636107818830       -0.69893162333788
H            3.29364384088431        2.04304732334341        0.10799474928929
H            3.52541049413746       -1.70138697216068        0.02434441737384
H           -1.98937266608594        3.00683628519833       -0.07369559973556
H           -3.12676622415863        1.94008043992837       -0.96401673353024
H           -3.15335314455920        1.94927512378849        0.79302207949915
H           -1.18629643210823       -3.13704458547047        0.85428211235808
H           -1.15748625717993       -3.14310757556787       -0.93534041239345
H           -2.56190013931714       -2.50302905501247       -0.06553055217211
H            1.20148463717485       -2.80224878527799       -0.01941774286550
25
 energy: 27.935744264071 xtb: 6.6.1 (8d0f1dd)
C            3.80158768412980        1.00252316299874        0.12543973676443
N            2.44916671800832        0.22376690216478        0.04438419575145
C            2.57367733636367       -1.16698762779541        0.03712276951952
N            1.36191697580094       -1.78221780500364       -0.00182473447991
C            0.37540993148980       -0.87274893932608       -0.01115243901014
C            0.93457540502783        0.42651331646439        0.01468232520125
C           -0.03194418554209        1.49814796423745       -0.02075714290354
O            0.14550958608675        2.69742894692122       -0.02500745468241
N           -1.47155883576413        1.04815251677180       -0.05625007535471
C           -2.54783867342426        2.03923873331849       -0.08102228456664
C           -1.94255392878413       -0.21845654419051       -0.06526760240169
O           -3.12436063345113       -0.50342392527669       -0.09227123666385
N           -0.96287610100316       -1.21771080654747       -0.04103387347220
C           -1.46169276390354       -2.58172097936609       -0.04160804849422
H            4.48783444186777        0.85279082106474        0.99736840314951
H            4.54840651156167        0.88560239460628       -0.70183976990156
H            3.41914169243185        2.00584909250907        0.14120906939289
H            3.51009172411558       -1.66339758223321        0.01358798831987
H           -2.10196236867107        3.03116713454684       -0.08673070694109
H           -3.18061810988057        1.89912030527361       -0.96426095326833
H           -3.20108344481390        1.91802056851095        0.78911960229735
H           -1.17878464678320       -3.12200887844180        0.86307367649245
H           -1.15059845134470       -3.13415198506926       -0.92946003169845
H           -2.55435690126779       -2.49979756080253       -0.06024827500087
H            1.21512570568597       -2.77667062316353       -0.02021924190174
25
 energy: 34.285245656552 xtb: 6.6.1 (8d0f1dd)
C            3.86562356611869        0.96424861046394        0.13070833121392
N            2.46037472556208        0.23684859698696        0.03900237741555
C            2.56412929207624       -1.14303594071679        0.03170772635106
N            1.35404998131660       -1.75712169303966       -0.00535723061951
C            0.37043137075400       -0.84333729219524       -0.01288161762795
C            0.93163454512160        0.45688038254787        0.01160896321429
C           -0.04792377224761        1.52517800952789       -0.02201709474313
O            0.10791984889094        2.73854479997938       -0.02546021527937
N           -1.48129253602491        1.05815079679321       -0.05870980695276
C           -2.59424243959007        2.02060105922133       -0.08704434937189
C           -1.94791746495136       -0.20904136814723       -0.06612710530966
O           -3.12882391250584       -0.50027250052502       -0.09349800125844
N           -0.96356979893576       -1.19902380803205       -0.04005502271829
C           -1.45157516973332       -2.56741437199398       -0.03573091159700
H            4.55814308146500        0.74831994926644        0.99687416408243
H            4.60220459329287        0.82115017398650       -0.70415766850052
H            3.53251842448794        1.99039940847582        0.17383297556537
H            3.49794878701196       -1.64556153783313        0.00348751764503
H           -2.20504326264579        3.03970906348315       -0.09932192589922
H           -3.22813559802681        1.84734409272063       -0.96659421140700
H           -3.24584540041798        1.87520767451225        0.78274507523068
H           -1.16157435096092       -3.10145275590989        0.87068615665812
H           -1.13455352195250       -3.11975548763846       -0.92185474216104
H           -2.54454002393694       -2.49689457821729       -0.05391065537960
H            1.20227370376811       -2.75064268154440       -0.02089883240371
25
 energy: 33.432788641341 xtb: 6.6.1 (8d0f1dd)
C            3.86805349090295        0.94731745408104        0.13292520698414
N            2.45827591573181        0.23706931574412        0.03428108212098
C            2.55793904782738       -1.13085373505004        0.02648692570857
N            1.35256171794572       -1.74952404149712       -0.00905374657127
C            0.36823679559665       -0.83471976685069       -0.01448266034273
C            0.92776814889153        0.46507907335577        0.00918635798863
C           -0.05201683922357        1.53688622019316       -0.02141565346996
O            0.10759311680245        2.75007597847637       -0.02222799002688
N           -1.47414493909384        1.06880568254009       -0.05916474096712
C           -2.60055622890463        2.01792458227141       -0.08902356558695
C           -1.94301816077137       -0.20046560977535       -0.06560905001980
O           -3.12341848550144       -0.49156772864939       -0.09242288826335
N           -0.96228157139825       -1.19094101797974       -0.03897078087310
C           -1.44319975277313       -2.56118735081479       -0.03231151960998
H            4.53967652707073        0.71088377150761        1.00144536073367
H            4.59944723913863        0.79320988023717       -0.70186428377505
H            3.55463449883179        1.97257763850891        0.17699313517089
H            3.49283093669288       -1.63404346013551       -0.00268380631251
H           -2.23831607606041        3.04232821162793       -0.10293906562467
H           -3.22903465491592        1.82676331739456       -0.96801999712156
H           -3.24851978367257        1.85787825504584        0.78091791806751
H           -1.14640110906227       -3.09094087775638        0.87464135941027
H           -1.12094392253221       -3.11151197932894       -0.91803919894856
H           -2.53591555626993       -2.49861138122058       -0.04953713433464
H            1.20296431268327       -2.74340382975323       -0.02207736818917
25
 energy: 31.854708864377 xtb: 6.6.1 (8d0f1dd)
C            3.86110850006411        0.93646824140490        0.13563840184851
N            2.45515303040722        0.24104027955093        0.02858277668834
C            2.55501600725286       -1.12741659450327        0.01880735501386
N            1.34864572280524       -1.74540949735046       -0.01352995555203
C            0.36873132796154       -0.82861651713712       -0.01588984164280
C            0.92355066796947        0.47277237065467        0.00740520702260
C           -0.05501106510259        1.54205337432236       -0.02070640122018
O            0.10882812370911        2.75522787831290       -0.01869585170874
N           -1.46994564707399        1.07669227840512       -0.06020567112950
C           -2.60161099125203        2.01717660774188       -0.09197909184131
C           -1.93831583259247       -0.19405986381174       -0.06490469237399
O           -3.11928062768319       -0.48703362406132       -0.09135041367349
N           -0.96225802087520       -1.18436999314032       -0.03724294640254
C           -1.43499534227484       -2.55576408689910       -0.02822052509290
H            4.52180392170880        0.68243383047363        1.00449564784692
H            4.58728747220102        0.77653544906243       -0.70075609273803
H            3.56753053710263        1.96733688607631        0.18769602492588
H            3.48955393088474       -1.63177559560777       -0.00930905064852
H           -2.25528660693343        3.04164097485655       -0.10778412981318
H           -3.22479959917158        1.81286797172245       -0.97044792809716
H           -3.24620622815202        1.84748661854012        0.77795667413665
H           -1.13198843466621       -3.08172584475247        0.87926387966161
H           -1.10813578057954       -3.10477308251411       -0.91348384393712
H           -2.52758854122899       -2.50031154273552       -0.04448223636615
H            1.20042814345559       -2.73944791643883       -0.02382339875937
25
 energy: 28.913701158635 xtb: 6.6.1 (8d0f1dd)
C            3.84123589830798        0.92651479893136        0.14008656812921
N            2.45125844390532        0.24470504644649        0.02061424783051
C            2.55421285969962       -1.12732180229315        0.00663995275171
N            1.34651625599043       -1.74361762027554       -0.02043423116896
C            0.37162723995179       -0.82493705557558       -0.01706397393257
C            0.92048836969933        0.47779202238848        0.00649052321307
C           -0.05688930558314        1.54502480406757       -0.01940820241761
O            0.11238548804629        2.75731809951489       -0.01353655188603
N           -1.46398651055254        1.08387847025735       -0.06204728301996
C           -2.59747497586048        2.01814683487134       -0.09699524708756
C           -1.93194901547472       -0.18871029383012       -0.06368032765447
O           -3.11323561276768       -0.48217764258441       -0.08992538428544
N           -0.96072156105869       -1.17862161548104       -0.03395930959466
C           -1.42550767948585       -2.55051875593215       -0.02196498004474
H            4.49298504882620        0.65063030157018        1.00688793143225
H            4.55986154582899        0.76858934148045       -0.70066195553982
H            3.57299451220066        1.96475761918709        0.20843813420336
H            3.48824330822737       -1.63206956049895       -0.01909556601258
H           -2.26499136638712        3.04427085819199       -0.11702730059893
H           -3.21647647502500        1.80202467922778       -0.97411108977092
H           -3.23908651728103        1.84323673975998        0.77294981463636
H           -1.11640307341005       -3.07181080334317        0.88628959461399
H           -1.09460397877531       -3.09825955621183       -0.90667943666921
H           -2.51801266149982       -2.50200916687947       -0.03705499994429
H            1.19974443041367       -2.73780714081732       -0.02771703103535
25
 energy: 27.314265296317 xtb: 6.6.1 (8d0f1dd)
C            3.82840117339549        0.92022981587023        0.14496138640248
N            2.45023397174286        0.24752857686904        0.01433173358306
C            2.55508436118118       -1.12810751484022       -0.00441298885353
N            1.34666105033451       -1.74239605443757       -0.02682424200056
C            0.37426536254388       -0.82273981275076       -0.01741147159727
C            0.92064790359001        0.48006169058393        0.00688996760191
C           -0.05802019775002        1.54660122623628       -0.01854496898330
O            0.11144286374292        2.75828740227985       -0.00982012987054
N           -1.46254894785488        1.08628055612182       -0.06432411782470
C           -2.59603826459914        2.01869367928599       -0.10246386620328
C           -1.92971648655415       -0.18751982104601       -0.06300339855483
O           -3.11080445853927       -0.48107826179643       -0.08919264502446
N           -0.95879534287286       -1.17567740226602       -0.03062842452875
C           -1.41987392338495       -2.54800256026062       -0.01584774752350
H            4.48013632531440        0.62430472890046        1.00624604162802
H            4.54123191830516        0.77312406837816       -0.70189782855422
H            3.57883500667649        1.96307144905689        0.23444744353203
H            3.48884647137660       -1.63269407535522       -0.02832664229181
H           -2.26711960809452        3.04630209727578       -0.12762575429645
H           -3.21482213888733        1.79734515135553       -0.97820053709972
H           -3.23650184982671        1.84647587366582        0.76843351717293
H           -1.10834751384360       -3.06606442791835        0.89326312259913
H           -1.08804558135134       -3.09599457574708       -0.89993631203704
H           -2.51244949995161       -2.50249007249771       -0.03022968344718
H            1.19951207324312       -2.73651313479155       -0.03284855768106
25
 energy: 25.654630490361 xtb: 6.6.1 (8d0f1dd)
C            3.81315205226263        0.91409066619975        0.15308511699375
N            2.44919558950683        0.25050718881393        0.00496770994639
C            2.55674162459141       -1.12888369325950       -0.02218366751205
N            1.34814039193240       -1.74122190454267       -0.03715353155913
C            0.37704549235346       -0.82092327239170       -0.01740123572868
C            0.92282434240325        0.48079745083234        0.00830423910765
C           -0.05835679520895        1.54804205657450       -0.01746972332494
O            0.10846033988050        2.75907637914243       -0.00506050064080
N           -1.46263685490293        1.08637538107772       -0.06825820916284
C           -2.59446434709006        2.01975554413243       -0.11165827972643
C           -1.92903766370538       -0.18845774548501       -0.06219665415627
O           -3.10951540190512       -0.48173140453566       -0.08837767754167
N           -0.95584348041511       -1.17368511005803       -0.02500491389190
C           -1.41414557588592       -2.54680444385134       -0.00579738952792
H            4.46842679163379        0.58772397910948        1.00273062030141
H            4.51912521969619        0.79202052522001       -0.70372959179483
H            3.58484157554152        1.95936914689175        0.28039991890940
H            3.49086253616093       -1.63234955571735       -0.04283337735193
H           -2.26173049823846        3.04771518075555       -0.14553292405566
H           -3.21551362376826        1.79491651314573       -0.98527012800360
H           -3.23455308094615        1.85798194696284        0.76158388085245
H           -1.10077389634841       -3.06076581038377        0.90467529565582
H           -1.08268527665872       -3.09637506125379       -0.88877761483889
H           -2.50685082921492       -2.50305186885445       -0.01925729402532
H            1.19950603626168       -2.73509348635297       -0.04275017277663
25
 energy: 24.406012624504 xtb: 6.6.1 (8d0f1dd)
C            3.80014673014504        0.90996917582731        0.16396230233537
N            2.44689575349011        0.25328398986933       -0.00739372789380
C            2.55781736526592       -1.12839069345561       -0.04627553244192
N            1.34961953349981       -1.74009329679326       -0.05086472333584
C            0.37831912384468       -0.81970915077241       -0.01730375816191
C            0.92587813375879        0.48013795528334        0.00999610214904
C           -0.05730162811646        1.54902706118957       -0.01658417178738
O            0.10498814942279        2.75969389783176       -0.00030746800210
N           -1.46401575889987        1.08403496722332       -0.07336328096415
C           -2.59273821728469        2.02124099124983       -0.12380539850033
C           -1.93008059307791       -0.19095816694229       -0.06114357363134
O           -3.10982033238287       -0.48405383572140       -0.08732261160920
N           -0.95312290504788       -1.17328112847312       -0.01742445483800
C           -1.40957474577858       -2.54753645284804        0.00762624267067
H            4.46058141352942        0.54474013691824        0.99632099737920
H            4.50002069003014        0.82534170583594       -0.70402662934785
H            3.58902411901713        1.95278018439866        0.34277542353113
H            3.49311586926289       -1.62976642216050       -0.06111110182657
H           -2.24918483118934        3.04788126689194       -0.16895007274272
H           -3.21798843886215        1.79384226049641       -0.99468654152734
H           -3.23331019572090        1.87573412015935        0.75270713889023
H           -1.09428171935236       -3.05695534389116        0.91972267828599
H           -1.07929623486958       -3.09999742214725       -0.87379084613530
H           -2.50238622817847       -2.50435216979342       -0.00455452420690
H            1.19890961543052       -2.73358502800430       -0.05716857214163
25