25
 energy: -42.199457410894 gnorm: 0.004058584766 xtb: 6.6.1 (8d0f1dd)
C            3.23907341298617        1.20727070571592        0.07269469216847
N            2.33226249657814        0.09282187559452        0.05885659011167
C            2.66717404665037       -1.20985246762734        0.07699781163718
N            1.54142712279394       -1.97247404478604        0.05221422675710
C            0.46487266103794       -1.12768933559702        0.01921606635624
C            0.95774430715884        0.17833699510385        0.02190331782072
C            0.10810985800480        1.32816305626489       -0.03767442558700
O            0.43784312488831        2.49901724273367       -0.06906511953700
N           -1.25958385296242        0.94380843131820       -0.05501179867901
C           -2.25337907880440        2.00153610835316       -0.08743677631932
C           -1.70339227930058       -0.33314927326822       -0.03040241674958
O           -3.01821126935344       -0.51888059449336        0.01295890097355
N           -0.87318751941787       -1.42475971111727       -0.03053473665581
C           -1.35890095225747       -2.70319956823449       -0.03100985478590
H            3.80160327310651        1.22897695271720        1.00752721867706
H            3.94176280424694        1.13423989451735       -0.75802627655437
H            2.66094221840179        2.12607046560685       -0.01932403911978
H            3.66468445272354       -1.59390559021889        0.10578924803443
H           -1.71695613445605        2.94849906848052       -0.09587365866896
H           -2.86965046498430        1.91229247094882       -0.98110749940929
H           -2.89461329731971        1.94256445493523        0.79135850654278
H           -0.67993873972153       -3.50530062644657        0.14546096683785
H           -2.32420543213216       -2.92004249769730       -0.43682685768609
H           -3.22469143140221       -1.43608919450624        0.25767004723648
H            1.51964218763485       -2.98001627669744        0.04081748449859
