25
 energy: -43.834358472981 gnorm: 0.115238447035 xtb: 6.6.1 (8d0f1dd)
C            3.24563605411812        1.17009579962705        0.09458408251884
N            2.30415146117389        0.08209391105356        0.04464353717735
C            2.58623440578595       -1.22400606481983        0.02433623375476
N            1.43202391279740       -1.93879180627286       -0.00503837233683
C            0.39017824275691       -1.05934440177932       -0.01194850342977
C            0.93265385439706        0.21558785517007        0.01198449936683
C            0.09490684940884        1.40104893667934       -0.00741678208395
O            0.49458560308708        2.54995097586245       -0.00970282556212
N           -1.25472051802578        1.05838804179622       -0.03200143027589
C           -2.22194001393108        2.15091005531147       -0.04981889017027
C           -1.82102042376875       -0.20124911007773       -0.04691499895245
O           -3.00721449271535       -0.38009329737232       -0.06849354645756
N           -0.93023977948404       -1.30309918115070       -0.03772879869979
C           -1.47508690402509       -2.64661850270684       -0.05918755411769
H            3.73879753377656        1.25038408632824        1.07120551311037
H            4.02663671683216        1.02217472129437       -0.64621165458565
H            2.71411895972106        2.09264238406697       -0.10742519940666
H            3.56735610734591       -1.65511219604626        0.02416632311577
H           -1.66996453418985        3.08728971172677       -0.02470636240864
H           -2.82872853734583        2.09323740460624       -0.95312894522265
H           -2.88086458764525        2.07391280013168        0.81556699587127
H           -1.17636154899594       -3.19637151076098        0.83422398719468
H           -1.15371717004219       -3.17855481279693       -0.95454685928934
H           -2.56183800281931       -2.55610269975516       -0.07186495584890
H            1.36947342751560       -2.94606388158832       -0.02248262789489
25
 energy: -43.838837131297 gnorm: 0.041234623356 xtb: 6.6.1 (8d0f1dd)
C            3.25082244375090        1.17711539653216        0.09183095242532
N            2.31232243897511        0.09751780177969        0.04290784681971
C            2.60166146281514       -1.23786051845824        0.02756003240531
N            1.42365844740010       -1.94067224371699       -0.00423759395249
C            0.39638506220699       -1.05526171038476       -0.01156843640686
C            0.93047660202517        0.22396620473345        0.01340377994735
C            0.10231331666484        1.39290222643452       -0.00763239036406
O            0.49370854887522        2.56222214783246       -0.01036728849180
N           -1.26268180159139        1.04823763421880       -0.03198610340740
C           -2.22234598791143        2.14405829433900       -0.04957131471200
C           -1.82506318534473       -0.20149925926073       -0.04716670924677
O           -3.02203770265890       -0.38450645840069       -0.06864591181720
N           -0.93601700048662       -1.30053657606663       -0.03825070284116
C           -1.47518851104182       -2.64209006653804       -0.05914440995212
H            3.72909230233266        1.24462204673069        1.07593507600519
H            4.03021002566518        1.02895020570636       -0.65708101990666
H            2.70964787105669        2.09897753033963       -0.10395350848596
H            3.57611445919781       -1.67151841953061        0.02645446851069
H           -1.65831764100079        3.07385574387862       -0.02431507997202
H           -2.82871593805104        2.09252115550546       -0.95377916293474
H           -2.88061964350804        2.07381680317622        0.81639745604940
H           -1.17244913144099       -3.19317611009527        0.83356208916190
H           -1.14954110489919       -3.17549912740186       -0.95418929514584
H           -2.56090920479546       -2.54990603359634       -0.07207514863308
H            1.35253048749272       -2.94392744922973       -0.02199475968785
25
 energy: -43.839529291258 gnorm: 0.015718751097 xtb: 6.6.1 (8d0f1dd)
C            3.25186722320805        1.17409115820797        0.09635461779223
N            2.30822501134098        0.10638486182635        0.04742183292703
C            2.60568271432438       -1.24008091199291        0.02912789961527
N            1.42174739707255       -1.94170219141381       -0.00604217211329
C            0.39969401850633       -1.05945320739628       -0.01150874604018
C            0.92210289402937        0.22573392893575        0.01566307956010
C            0.11006050853963        1.38525530632846       -0.00676827836512
O            0.49610746650640        2.56173376816039       -0.00827513082417
N           -1.26712102349019        1.04914512997044       -0.03214758619973
C           -2.22380872816848        2.14939294362623       -0.04998164034412
C           -1.81747838653134       -0.19756003340185       -0.04723897327235
O           -3.01719342502226       -0.38276141158579       -0.06897819800210
N           -0.93916206179364       -1.30276244705827       -0.03856643355904
C           -1.47752343993701       -2.64458921173958       -0.05862323040000
H            3.73740956473580        1.25075852826280        1.07479809058539
H            4.03013932985255        1.01337917607694       -0.65036608620327
H            2.71599882944518        2.09667245321270       -0.11106158514676
H            3.57811243170125       -1.65867110142854        0.01998459519680
H           -1.67438196648063        3.08938949024834       -0.02486375989479
H           -2.83090410599753        2.09545517284793       -0.95327433337059
H           -2.88333808310586        2.07609254926946        0.81415434241267
H           -1.17718861014147       -3.19986915015722        0.83341287721208
H           -1.15495295792595       -3.18257974563209       -0.95344542273990
H           -2.56291542902345       -2.55680055498401       -0.07130409115393
H            1.36387744408345       -2.94434528165621       -0.02637880230539
25
 energy: -43.839680313313 gnorm: 0.010801354985 xtb: 6.6.1 (8d0f1dd)
C            3.24678937424824        1.17309314737258        0.09483023237720
N            2.30555983268845        0.10401195241143        0.04129990889292
C            2.60171704783555       -1.24320892496765        0.02793532234018
N            1.41773448091283       -1.94190455437948       -0.00454959246002
C            0.39886718099214       -1.06075625089542       -0.01328727661062
C            0.91959953239549        0.22496497231540        0.01111684839617
C            0.11183340893665        1.38301076289271       -0.01007147308927
O            0.49136659169646        2.55953783469080       -0.01332031231564
N           -1.26849771958491        1.04796515484302       -0.03289297997371
C           -2.22039354270650        2.14794097066993       -0.04890939040810
C           -1.81608361009488       -0.19732122834078       -0.04699803172342
O           -3.01514065663618       -0.38455244444280       -0.06751604689695
N           -0.93982765491894       -1.30156455142774       -0.03893317752888
C           -1.47552884270259       -2.64189902232281       -0.05930185738500
H            3.73266562532992        1.24501491430089        1.07320972512510
H            4.02575480804847        1.03055896957025       -0.65441327514057
H            2.70686488698226        2.09606880058587       -0.10073314536115
H            3.57334477335786       -1.66124495247572        0.02550077487337
H           -1.65742790914295        3.07945730887518       -0.02431317769462
H           -2.82717094071878        2.09508831473943       -0.95273884171180
H           -2.87724898550017        2.07590851773349        0.81774874609409
H           -1.17258826040328       -3.19392617229285        0.83380162483564
H           -1.14972770701291       -3.17586232604168       -0.95534023961610
H           -2.56088661679254       -2.55272233407241       -0.07258153920145
H            1.36348151851843       -2.94534964081445       -0.01744996045054
25
 energy: -43.839734306711 gnorm: 0.005704321445 xtb: 6.6.1 (8d0f1dd)
C            3.25240563014936        1.17126214242419        0.09281381638606
N            2.30893868147161        0.10223406163028        0.04202266647260
C            2.60123610184874       -1.24327493136267        0.02863690126558
N            1.41757235102628       -1.93920174728825       -0.00624661409431
C            0.39898510276406       -1.05820664405681       -0.01146000504986
C            0.92249925224510        0.22719574812223        0.01422740258963
C            0.11170982539790        1.38691286046254       -0.00438501400705
O            0.48830757396993        2.56238645219991       -0.00594648749301
N           -1.26959830158073        1.04962880147528       -0.03080430646200
C           -2.22555574128929        2.14502793360612       -0.05023840219697
C           -1.81745794397836       -0.19675872192843       -0.04657928306641
O           -3.01602277648391       -0.38537415029693       -0.06967744390866
N           -0.93903158966472       -1.29921695245743       -0.03749966369804
C           -1.47523652537735       -2.63988237815305       -0.05834929616754
H            3.73355405169912        1.24567465189965        1.07407126855170
H            4.03374132621301        1.02370576589342       -0.65356065101716
H            2.71724004607966        2.09623816775488       -0.10838103148329
H            3.57379275407214       -1.66524588972051        0.02456585580716
H           -1.66410904598985        3.07659485492572       -0.02445235914171
H           -2.83006044393981        2.09037297066167       -0.95562739174107
H           -2.88536545688347        2.07188946368515        0.81425039729101
H           -1.17329823973128       -3.19222352661532        0.83459794335222
H           -1.15005002894059       -3.17461932131682       -0.95377998692646
H           -2.56084056968881       -2.54973573567274       -0.07161966346789
H            1.36170058233936       -2.94307465734490       -0.02448578642767
25
 energy: -43.839779190346 gnorm: 0.004449969038 xtb: 6.6.1 (8d0f1dd)
C            3.24988284384820        1.17355732135887        0.09485973752293
N            2.30958714942945        0.10161042032641        0.04461443519073
C            2.60263690250511       -1.24266191780816        0.02974663493109
N            1.41961735290317       -1.93972214211641       -0.00518229504973
C            0.39902629352604       -1.06008159871549       -0.01116984066636
C            0.92315915377289        0.22572047403570        0.01430028790996
C            0.11368203203322        1.38677508768697       -0.00869457044844
O            0.49182797414860        2.56137253291486       -0.01198098501118
N           -1.26858763189622        1.04994194963779       -0.03303858241328
C           -2.22283243042658        2.14801222038556       -0.04933128608035
C           -1.81800444541684       -0.19728902424188       -0.04734711582613
O           -3.01700517969029       -0.38462185128930       -0.06863504536791
N           -0.93943230907913       -1.30129577759215       -0.03824753770189
C           -1.47649409182246       -2.64328947158578       -0.05910842526931
H            3.73196727352981        1.24998464452318        1.07590604480418
H            4.02949072981397        1.02307158886430       -0.65279156807903
H            2.71205368923914        2.09726770017240       -0.10753580645211
H            3.57695220182216       -1.66342957615432        0.02301928592431
H           -1.66434494427725        3.08157306392556       -0.02483059343266
H           -2.83106961031472        2.09597040827659       -0.95213700273769
H           -2.88029322499433        2.07669172835417        0.81687353372396
H           -1.17547800186548       -3.19775034476084        0.83282785178054
H           -1.15315884750772       -3.18013918788551       -0.95392846443435
H           -2.56236781078579       -2.55504798906336       -0.07185151358347
H            1.36424154723318       -2.94391104072197       -0.02424431386698
25
 energy: -43.839796782432 gnorm: 0.002316189156 xtb: 6.6.1 (8d0f1dd)
C            3.24951393841941        1.17273459140549        0.09446945958539
N            2.30842976262393        0.10221648719321        0.04317662023941
C            2.60164439097901       -1.24264611089019        0.02823758343803
N            1.41862025380149       -1.93987430863271       -0.00487319219856
C            0.39870510837704       -1.06023517719954       -0.01205485491666
C            0.92171518160122        0.22600840291819        0.01387310096736
C            0.11403732964213        1.38603988297215       -0.00686262772193
O            0.49117710956107        2.56129482649087       -0.00887273302786
N           -1.26910523190697        1.04935372640352       -0.03201850911309
C           -2.22256788855836        2.14750289839019       -0.05001398860817
C           -1.81764638793577       -0.19714862975965       -0.04709555544440
O           -3.01662298325515       -0.38462703198859       -0.06845502356444
N           -0.93974899912059       -1.30099379831552       -0.03847335411165
C           -1.47582621203030       -2.64240158694848       -0.05892818334078
H            3.73561718084227        1.24538466337006        1.07346014106173
H            4.02745512595775        1.02423219201143       -0.65501316103045
H            2.71139480647457        2.09693357107588       -0.10363412891674
H            3.57544930780767       -1.66172049642443        0.02252704593892
H           -1.66487293804982        3.08183528204055       -0.02422544008819
H           -2.82791085923930        2.09411533550431       -0.95469160195258
H           -2.88200763399777        2.07486145584251        0.81459511665541
H           -1.17372853553690       -3.19515819981220        0.83384466627488
H           -1.15103476114195       -3.17765699294932       -0.95430201971114
H           -2.56153333530323       -2.55359472416155       -0.07194664996395
H            1.36390288571667       -2.94414704000899       -0.02062984508371
25
 energy: -43.839796707171 gnorm: 0.002447099255 xtb: 6.6.1 (8d0f1dd)
C            3.24994984475491        1.17247959231398        0.09437455713617
N            2.30843461251879        0.10221504221865        0.04227055735388
C            2.60114086629732       -1.24291734457948        0.02902138665697
N            1.41824236342340       -1.93977248329391       -0.00616708774380
C            0.39874903055939       -1.06014319844709       -0.01301143746676
C            0.92145257460513        0.22630648210699        0.01222161166014
C            0.11410586443674        1.38583241235878       -0.00843721002165
O            0.48986660634072        2.56142810526321       -0.01059006305004
N           -1.26955675798601        1.04881516524428       -0.03235071302499
C           -2.22289655198149        2.14651775785413       -0.04900943424368
C           -1.81741135767344       -0.19730123886002       -0.04698216995152
O           -3.01618583348911       -0.38521068162098       -0.06809991201037
N           -0.93959289757230       -1.30069262780803       -0.03879235724020
C           -1.47585400467243       -2.64160154703925       -0.05890840494179
H            3.73215931601149        1.24763509332404        1.07498437444556
H            4.03140414608572        1.02386137870247       -0.65137060677973
H            2.71300728497960        2.09618406438572       -0.10778599923723
H            3.57451620936822       -1.66212885698327        0.02557608687871
H           -1.66310650938045        3.07963499630478       -0.02456545675302
H           -2.83004165171176        2.09301876610712       -0.95261437201582
H           -2.88057572379169        2.07429961807507        0.81712532931848
H           -1.17380587807165       -3.19396496827423        0.83411521959527
H           -1.15109001941601       -3.17643210242100       -0.95451332706286
H           -2.56143406365141       -2.55170202654610       -0.07191213469025
H            1.36357914574444       -2.94405217985865       -0.02248557144462
25
 energy: -43.839806333836 gnorm: 0.001012645605 xtb: 6.6.1 (8d0f1dd)
C            3.24999962344082        1.17286693716080        0.09425446788907
N            2.30903783053946        0.10175111345164        0.04351261612218
C            2.60151500729194       -1.24297197177851        0.02896894967598
N            1.41873676889975       -1.93970254621113       -0.00543237190895
C            0.39879832437049       -1.06019135434042       -0.01117224726285
C            0.92200578208116        0.22617360871140        0.01440619229873
C            0.11429065178706        1.38628670293532       -0.00683938214211
O            0.49033227164657        2.56152844632685       -0.00972414313776
N           -1.26941858334392        1.04922970645714       -0.03203023269989
C           -2.22294169382099        2.14706481007863       -0.04987248951124
C           -1.81760713524403       -0.19721997351935       -0.04679738608703
O           -3.01634889533934       -0.38495897356157       -0.06916027230731
N           -0.93951210840119       -1.30086871586429       -0.03772279805158
C           -1.47600839643977       -2.64229388695692       -0.05877036994514
H            3.73339980701990        1.24799794016367        1.07442124274159
H            4.02974073778251        1.02470087721685       -0.65355242077016
H            2.71236510873483        2.09660279635164       -0.10638291952885
H            3.57523627399046       -1.66291830811102        0.02301825988379
H           -1.66307642090405        3.08000264653506       -0.02486216191693
H           -2.82964789081483        2.09443674490774       -0.95385659272459
H           -2.88164388857361        2.07562605427544        0.81555245668212
H           -1.17463771564834       -3.19585453237772        0.83365406802045
H           -1.15154851242898       -3.17771181437852       -0.95406995935742
H           -2.56170495498510       -2.55329540379435       -0.07197565047849
H            1.36369462408733       -2.94397168515119       -0.02347399011677
25
 energy: -43.839798283825 gnorm: 0.001846827591 xtb: 6.6.1 (8d0f1dd)
C            3.25016202314441        1.17253640011126        0.09458018794852
N            2.30915653310800        0.10177371064938        0.04293860548739
C            2.60167221787667       -1.24269358574830        0.02893683431731
N            1.41899944866540       -1.93952166239190       -0.00479416772945
C            0.39881783280978       -1.05999853723377       -0.01288127257795
C            0.92211370510941        0.22639467055288        0.01264786518979
C            0.11468092565052        1.38675117254903       -0.00891089445274
O            0.49111227668641        2.56186082334891       -0.01092477402994
N           -1.26930544633662        1.04973454499292       -0.03304813035228
C           -2.22338414942610        2.14727562446939       -0.04913727293541
C           -1.81772175804273       -0.19682160423776       -0.04795707192000
O           -3.01658898415094       -0.38446489448887       -0.06806267217222
N           -0.93948694223422       -1.30062602194545       -0.03943347195012
C           -1.47580651627746       -2.64221867904355       -0.05924642382339
H            3.73444033848298        1.24543619818035        1.07456416692024
H            4.02886746776875        1.02311865456284       -0.65403281012481
H            2.71284103618872        2.09690832938249       -0.10467923619425
H            3.57569470617281       -1.66245380028461        0.02432616723819
H           -1.66632727247053        3.08191174395994       -0.02335110029694
H           -2.83004966206342        2.09424302969859       -0.95300772081242
H           -2.88179869984856        2.07379158966296        0.81625824737511
H           -1.17334237183028       -3.19478649168119        0.83343211416215
H           -1.15181695315888       -3.17836359512476       -0.95432957423189
H           -2.56157123414283       -2.55364467823989       -0.07162713740069
H            1.36369809404683       -2.94383372317368       -0.02016759226736
25
 energy: -43.836368196262 gnorm: 0.087701579982 xtb: 6.6.1 (8d0f1dd)
C            3.25412762409909        1.17381694356017        0.10479129960558
N            2.30943581702976        0.08851262926008        0.04975794636289
C            2.59153954574670       -1.23344323223912        0.01808779439617
N            1.42605447424131       -1.94248107572300       -0.01124876312554
C            0.39000537712489       -1.05968225054293       -0.01597908527583
C            0.93084640178652        0.21820339398446        0.00921310277033
C            0.09529643804981        1.39702296507424       -0.01067339149818
O            0.49132868094401        2.55463662335418       -0.01608111415104
N           -1.25869762242274        1.05408670942664       -0.03316100220388
C           -2.22486280694762        2.14664525209743       -0.04966605990942
C           -1.82460776837411       -0.20242068569727       -0.04689811062639
O           -3.01438255763616       -0.38182134834115       -0.06678121835260
N           -0.93427310395165       -1.30403251796221       -0.03868103669619
C           -1.48032715114408       -2.64677061073133       -0.05801296297683
H            3.76474498138646        1.28624617425777        1.07758373545978
H            4.04560261440936        1.00928472202933       -0.61949099507243
H            2.72907489434189        2.08897691875958       -0.12397126654557
H            3.56774303540958       -1.67133146366574        0.00487833829323
H           -1.66907632569487        3.08135290915120       -0.02384931443656
H           -2.83316728848963        2.09218747866276       -0.95306922135567
H           -2.88519926702182        2.07025373473480        0.81615126006371
H           -1.18205107470881       -3.19669159152652        0.83614844059638
H           -1.16182081146750       -3.18199439272561       -0.95217645330959
H           -2.56803881189603       -2.55551089298671       -0.06898558954570
H            1.35815953767966       -2.94822594845181       -0.03148975386702
25
 energy: -43.839043344038 gnorm: 0.034622548381 xtb: 6.6.1 (8d0f1dd)
C            3.25755391641637        1.17652138010726        0.09615236723840
N            2.31625395652023        0.09949840403931        0.04792446599577
C            2.60359891600403       -1.24277764484818        0.02475545639312
N            1.42030679513745       -1.94094788911747       -0.00946123188581
C            0.39650501641999       -1.05464452638731       -0.01442532492340
C            0.93073255871449        0.22542283469570        0.01350267240326
C            0.10286153971699        1.39012166485447       -0.00958431276461
O            0.48926317944868        2.56191924902479       -0.01598596076174
N           -1.26493601107146        1.04588600356185       -0.03273365115800
C           -2.22414160039990        2.14142847030433       -0.04938544338902
C           -1.82625127068714       -0.20248237439570       -0.04689473259562
O           -3.02360426445580       -0.38623136836979       -0.06686202660637
N           -0.93761924224256       -1.30044401839620       -0.03921459947743
C           -1.47841623424818       -2.64143637324495       -0.05799570445536
H            3.73407725834491        1.26522986924881        1.08344371674120
H            4.04802816084249        1.01449137825367       -0.63854993408444
H            2.72239112702601        2.09600708963460       -0.12001312281685
H            3.57474525122990       -1.68177623297112        0.00951808871372
H           -1.65840105479610        3.07019942327484       -0.02328853732571
H           -2.83130159703959        2.09155207209815       -0.95346561330765
H           -2.88312800245137        2.07068990336162        0.81645051251869
H           -1.17658975483012       -3.19241995510458        0.83534005611503
H           -1.15579308437542       -3.17756742660810       -0.95236825478612
H           -2.56448196802777       -2.54765060935345       -0.06950553843897
H            1.34580124129783       -2.94376887990331       -0.03095676874247
25
 energy: -43.839564387019 gnorm: 0.016169747678 xtb: 6.6.1 (8d0f1dd)
C            3.26511304932858        1.17564843791172        0.10570692852249
N            2.31639587719232        0.10714645047625        0.05910678211048
C            2.60739909437419       -1.24597349716946        0.02711031429212
N            1.41721545145119       -1.94133560575704       -0.01295534081440
C            0.39915486399518       -1.05701094951061       -0.01526797980636
C            0.92591028400352        0.22781920651780        0.01724824934779
C            0.10989971004391        1.38391178256581       -0.01119048206609
O            0.48940885813827        2.56286125737227       -0.01604827351175
N           -1.27044699059788        1.04480421462429       -0.03466097611443
C           -2.22755509117969        2.14334958652314       -0.05004835985928
C           -1.82260276383330       -0.20014777488954       -0.04805639710723
O           -3.02334454593048       -0.38559885211999       -0.06706575292376
N           -0.94224251351889       -1.30228157508582       -0.04090176336249
C           -1.48343912987840       -2.64362890780092       -0.05702476479824
H            3.75684872968596        1.28472817419344        1.07962165644928
H            4.05168015016196        1.00221728529755       -0.62972528483233
H            2.73297149292956        2.09598730570424       -0.12443633442789
H            3.57599681935818       -1.67604364896192       -0.00162264243856
H           -1.67190517778043        3.07913195298321       -0.02414769031238
H           -2.83602455850268        2.09257655112447       -0.95286132871346
H           -2.88676099288009        2.07047419428257        0.81461209046658
H           -1.18343093893193       -3.19838106821610        0.83553619491470
H           -1.16419302358377       -3.18548555235170       -0.95076658200977
H           -2.56909012744244       -2.55402169966416       -0.06788586323299
H            1.35049630589114       -2.94392682429025       -0.03787982117238
25
 energy: -43.839748360750 gnorm: 0.009605464477 xtb: 6.6.1 (8d0f1dd)
C            3.25550066671849        1.17420322249862        0.10379233775827
N            2.31110140462404        0.10350569585997        0.04996411296476
C            2.60283384878478       -1.24778539665094        0.02414853504302
N            1.41545203181926       -1.94346675988703       -0.01151594686961
C            0.39792795807237       -1.06043869045555       -0.01806189198166
C            0.92214274974127        0.22526099076770        0.00988388068091
C            0.11189383767513        1.38283775999077       -0.01266818120576
O            0.48882041047595        2.56019214561397       -0.01776366743399
N           -1.27030587374182        1.04603137546857       -0.03348530636317
C           -2.22278180569609        2.14622817598710       -0.04840272769263
C           -1.81998278313966       -0.19902472484605       -0.04658746828876
O           -3.01962843674987       -0.38493653255517       -0.06510656116582
N           -0.94232814650242       -1.30255959425431       -0.04070321336633
C           -1.47993941526839       -2.64354342633438       -0.05822438798883
H            3.74757285976170        1.27824816227383        1.07847146044218
H            4.04409411144463        1.01445410757662       -0.63026810522706
H            2.71945116143491        2.09304133995183       -0.12089659552409
H            3.57221387284167       -1.67456249346038        0.00547182125171
H           -1.65967939388976        3.07764885752677       -0.02281695024270
H           -2.83000433814341        2.09588703091376       -0.95227874793489
H           -2.88136094916709        2.07431514081488        0.81725869653882
H           -1.17730312747652       -3.19620520712395        0.83473811214816
H           -1.15687289794117       -3.18042193404223       -0.95351319048078
H           -2.56571311892851       -2.55477900583244       -0.07011675384214
H            1.35435020574450       -2.94730979604271       -0.02492268261999
25
 energy: -43.839769361511 gnorm: 0.006507685117 xtb: 6.6.1 (8d0f1dd)
C            3.26018889295358        1.17125621462894        0.10111152758486
N            2.31300698836959        0.10242833645636        0.04764098595012
C            2.60183479458564       -1.24633726532856        0.02343522100651
N            1.41606320217978       -1.94020227180460       -0.01383297277332
C            0.39837953250829       -1.05788194169326       -0.01562903633140
C            0.92388585743207        0.22787844443237        0.01207342517480
C            0.11129304333329        1.38672060719477       -0.00735981630772
O            0.48468792004065        2.56289442544410       -0.01283812334724
N           -1.27114962884899        1.04747033403460       -0.03186700930547
C           -2.22806743801326        2.14204808201963       -0.05032337883093
C           -1.81975530102480       -0.19861554830234       -0.04619754313936
O           -3.01827041640373       -0.38676662354306       -0.06810950745010
N           -0.94035878814894       -1.29992904446418       -0.03823154632154
C           -1.47960479215632       -2.63985898263005       -0.05621555902222
H            3.74708447058062        1.26809047426164        1.08061400065814
H            4.05052468804713        1.00999716163062       -0.63125713873903
H            2.73067737800706        2.09348218406540       -0.12222409394213
H            3.57221946491383       -1.67516537703646        0.00605236073550
H           -1.66610294458446        3.07341689958538       -0.02439797270932
H           -2.83371358040296        2.08798885138645       -0.95535912373078