25
 energy: -42.118509705100 gnorm: 0.004829204666 xtb: 6.6.1 (8d0f1dd)
C            3.55889853186430        0.98153559340830       -0.07912123508773
N            2.49279826903099       -0.03149015118318        0.00055117472960
C            2.61161010736243       -1.34079612210503        0.17808657923534
N            1.38723929353376       -1.91806209310381        0.18351896198815
C            0.46385235545540       -0.92857887922473        0.03164930958461
C            1.15411803973535        0.27817941077166       -0.10002659537434
C            0.47323468102557        1.48915452124569       -0.43423902647974
O            3.17768705894124        2.13446289752565        0.53648508175446
N           -0.85116327312627        1.35907910648350       -0.34898427093935
C           -3.50797019371030        1.45512000881904        0.01940131907255
C           -1.49783612312063        0.25976042775321       -0.10294401808251
O           -2.79809005653021        0.21565542220384        0.04748607965390
N           -0.88241070653910       -0.98668527778420       -0.00975127559416
C           -1.60601820635478       -2.24347409440692        0.02122457094332
H            4.43607878233695        0.59161894382236        0.45036842507826
H            3.80143703456855        1.10992449702056       -1.14852723330738
H            2.46738298821414        2.58366239533761        0.04324325874840
H            3.53507389608891       -1.87227219610335        0.30144355971629
H           -3.04979071042664        2.17200225333141        0.70106553398886
H           -3.50994160736859        1.86677747917446       -0.99062975999356
H           -4.52161900816831        1.21695950879073        0.33384645371977
H           -1.45884773838814       -2.74058193013991        0.98116632777014
H           -1.26421928223078       -2.89018465757496       -0.78869372251933
H           -2.66509191888903       -2.03825823929781       -0.10942944734632
H            1.21401930079541       -2.90527028316427        0.31398156664102
