      -----------------------------------------------------------      
     |                   =====================                   |     
     |                           x T B                           |     
     |                   =====================                   |     
     |                         S. Grimme                         |     
     |          Mulliken Center for Theoretical Chemistry        |     
     |                    University of Bonn                     |     
      -----------------------------------------------------------      

   * xtb version 6.6.1 (8d0f1dd) compiled by 'conda@1efc2f54142f' on 2023-08-01

   xtb is free software: you can redistribute it and/or modify it under
   the terms of the GNU Lesser General Public License as published by
   the Free Software Foundation, either version 3 of the License, or
   (at your option) any later version.
   
   xtb is distributed in the hope that it will be useful,
   but WITHOUT ANY WARRANTY; without even the implied warranty of
   MERCHANTABILITY or FITNESS FOR A PARTICULAR PURPOSE.  See the
   GNU Lesser General Public License for more details.
   
   Cite this work as:
   * C. Bannwarth, E. Caldeweyher, S. Ehlert, A. Hansen, P. Pracht,
     J. Seibert, S. Spicher, S. Grimme, WIREs Comput. Mol. Sci., 2020, 11,
     e01493. DOI: 10.1002/wcms.1493
   
   for GFN2-xTB:
   * C. Bannwarth, S. Ehlert and S. Grimme., J. Chem. Theory Comput., 2019,
     15, 1652-1671. DOI: 10.1021/acs.jctc.8b01176
   for GFN1-xTB:
   * S. Grimme, C. Bannwarth, P. Shushkov, J. Chem. Theory Comput., 2017,
     13, 1989-2009. DOI: 10.1021/acs.jctc.7b00118
   for GFN0-xTB:
   * P. Pracht, E. Caldeweyher, S. Ehlert, S. Grimme, ChemRxiv, 2019, preprint.
     DOI: 10.26434/chemrxiv.8326202.v1
   for GFN-FF:
   * S. Spicher and S. Grimme, Angew. Chem. Int. Ed., 2020, 59, 15665-15673.
     DOI: 10.1002/anie.202004239
   
   for ALPB and GBSA implicit solvation:
   * S. Ehlert, M. Stahn, S. Spicher, S. Grimme, J. Chem. Theory Comput.,
     2021, 17, 4250-4261. DOI: 10.1021/acs.jctc.1c00471
   
   for DFT-D4:
   * E. Caldeweyher, C. Bannwarth and S. Grimme, J. Chem. Phys., 2017,
     147, 034112. DOI: 10.1063/1.4993215
   * E. Caldeweyher, S. Ehlert, A. Hansen, H. Neugebauer, S. Spicher,
     C. Bannwarth and S. Grimme, J. Chem. Phys., 2019, 150, 154122.
     DOI: 10.1063/1.5090222
   * E. Caldeweyher, J.-M. Mewes, S. Ehlert and S. Grimme, Phys. Chem. Chem. Phys.
     2020, 22, 8499-8512. DOI: 10.1039/D0CP00502A
   
   for sTDA-xTB:
   * S. Grimme and C. Bannwarth, J. Chem. Phys., 2016, 145, 054103.
     DOI: 10.1063/1.4959605
   
   in the mass-spec context:
   * V. Asgeirsson, C. Bauer and S. Grimme, Chem. Sci., 2017, 8, 4879.
     DOI: 10.1039/c7sc00601b
   * J. Koopman and S. Grimme, ACS Omega 2019, 4, 12, 15120-15133.
     DOI: 10.1021/acsomega.9b02011
   
   for metadynamics refer to:
   * S. Grimme, J. Chem. Theory Comput., 2019, 155, 2847-2862
     DOI: 10.1021/acs.jctc.9b00143
   
   for SPH calculations refer to:
   * S. Spicher and S. Grimme, J. Chem. Theory Comput., 2021, 17, 1701-1714
     DOI: 10.1021/acs.jctc.0c01306
   
   with help from (in alphabetical order)
   P. Atkinson, C. Bannwarth, F. Bohle, G. Brandenburg, E. Caldeweyher
   M. Checinski, S. Dohm, S. Ehlert, S. Ehrlich, I. Gerasimov, C. Hölzer
   A. Katbashev, J. Koopman, C. Lavigne, S. Lehtola, F. März, M. Müller,
   F. Musil, H. Neugebauer, J. Pisarek, C. Plett, P. Pracht, F. Pultar,
   J. Seibert, P. Shushkov, S. Spicher, M. Stahn, M. Steiner, T. Strunk,
   J. Stückrath, T. Rose, and J. Unsleber
   
 * started run on 2024/06/05 at 19:57:57.679     

           -------------------------------------------------
          |                Calculation Setup                |
           -------------------------------------------------

          program call               : xtb struc.xyz --opt loose --input .xc1 --gfn2
          hostname                   : n-62-21-71
          coordinate file            : struc.xyz
          omp threads                :                     1

   ID    Z sym.   atoms
    1    6 C      1, 3, 5-7, 10, 11, 14
    2    7 N      2, 4, 9, 13
    3    8 O      8, 12
    4    1 H      15-25
constraining bond 5 18 to    5.1400000 Å, actual value:    3.2287314 Å

           -------------------------------------------------
          |                 G F N 2 - x T B                 |
           -------------------------------------------------

        Reference                      10.1021/acs.jctc.8b01176
      * Hamiltonian:
        H0-scaling (s, p, d)           1.850000    2.230000    2.230000
        zeta-weighting                 0.500000
      * Dispersion:
        s8                             2.700000
        a1                             0.520000
        a2                             5.000000
        s9                             5.000000
      * Repulsion:
        kExp                           1.500000    1.000000
        rExp                           1.000000
      * Coulomb:
        alpha                          2.000000
        third order                    shell-resolved
        anisotropic                    true
        a3                             3.000000
        a5                             4.000000
        cn-shift                       1.200000
        cn-exp                         4.000000
        max-rad                        5.000000


          ...................................................
          :                      SETUP                      :
          :.................................................:
          :  # basis functions                  67          :
          :  # atomic orbitals                  67          :
          :  # shells                           39          :
          :  # electrons                        74          :
          :  max. iterations                   250          :
          :  Hamiltonian                  GFN2-xTB          :
          :  restarted?                      false          :
          :  GBSA solvation                  false          :
          :  PC potential                    false          :
          :  electronic temp.         2500.0000000     K    :
          :  accuracy                    1.0000000          :
          :  -> integral cutoff          0.2500000E+02      :
          :  -> integral neglect         0.1000000E-07      :
          :  -> SCF convergence          0.1000000E-05 Eh   :
          :  -> wf. convergence          0.1000000E-03 e    :
          :  Broyden damping             0.4000000          :
          ...................................................

 iter      E             dE          RMSdq      gap      omega  full diag
   1    -42.5894761 -0.425895E+02  0.446E+00    3.52       0.0  T
   2    -42.7660496 -0.176573E+00  0.253E+00    3.37       1.0  T
   3    -42.7736311 -0.758158E-02  0.147E+00    3.27       1.0  T
   4    -42.7712089  0.242228E-02  0.522E-01    3.20       1.0  T
   5    -42.7763755 -0.516665E-02  0.115E-01    3.24       1.0  T
   6    -42.7764786 -0.103096E-03  0.599E-02    3.22       1.0  T
   7    -42.7764977 -0.190557E-04  0.265E-02    3.24       1.0  T
   8    -42.7765022 -0.458752E-05  0.826E-03    3.24       2.4  T
   9    -42.7765028 -0.511866E-06  0.435E-03    3.24       4.6  T
  10    -42.7765028 -0.741126E-07  0.110E-03    3.24      18.2  T
  11    -42.7765028 -0.615289E-08  0.514E-04    3.24      38.9  T
  12    -42.7765028 -0.131732E-08  0.162E-04    3.24     123.6  T

   *** convergence criteria satisfied after 12 iterations ***

         #    Occupation            Energy/Eh            Energy/eV
      -------------------------------------------------------------
         1        2.0000           -0.9218663             -25.0853
       ...           ...                  ...                  ...
        31        2.0000           -0.6245728             -16.9955
        32        2.0000           -0.6188521             -16.8398
        33        2.0000           -0.5946289             -16.1807
        34        1.9999           -0.5766508             -15.6915
        35        1.9996           -0.5616187             -15.2824
        36        1.9994           -0.5584494             -15.1962
        37        1.9993           -0.5575820             -15.1726 (HOMO)
        38        0.0017           -0.4385664             -11.9340 (LUMO)
        39        0.0000           -0.4059970             -11.0477
        40        0.0000           -0.3720875             -10.1250
        41                         -0.2883077              -7.8453
        42                         -0.2064013              -5.6165
       ...                                ...                  ...
        67                          0.5638960              15.3444
      -------------------------------------------------------------
                  HL-Gap            0.1190156 Eh            3.2386 eV
             Fermi-level           -0.4943591 Eh          -13.4522 eV

 SCC (total)                   0 d,  0 h,  0 min,  0.063 sec
 SCC setup                      ...        0 min,  0.000 sec (  0.375%)
 Dispersion                     ...        0 min,  0.000 sec (  0.471%)
 classical contributions        ...        0 min,  0.000 sec (  0.120%)
 integral evaluation            ...        0 min,  0.005 sec (  8.347%)
 iterations                     ...        0 min,  0.031 sec ( 49.232%)
 molecular gradient             ...        0 min,  0.026 sec ( 41.197%)
 printout                       ...        0 min,  0.000 sec (  0.236%)

         :::::::::::::::::::::::::::::::::::::::::::::::::::::
         ::                     SUMMARY                     ::
         :::::::::::::::::::::::::::::::::::::::::::::::::::::
         :: total energy             -35.722828202006 Eh    ::
         :: gradient norm              5.107776266012 Eh/a0 ::
         :: HOMO-LUMO gap              3.238579380711 eV    ::
         ::.................................................::
         :: SCC energy               -42.776502838750 Eh    ::
         :: -> isotropic ES            0.143394945287 Eh    ::
         :: -> anisotropic ES         -0.005231236584 Eh    ::
         :: -> anisotropic XC          0.012162721064 Eh    ::
         :: -> dispersion             -0.022660936007 Eh    ::
         :: repulsion energy           0.531105277918 Eh    ::
         :: add. restraining           6.522455199817 Eh    ::
         :: total charge               1.000000000000 e     ::
         :::::::::::::::::::::::::::::::::::::::::::::::::::::

      ----------------------------------------------------------- 
     |                   =====================                   |
     |                        A N C O P T                        |
     |                   =====================                   |
     |               Approximate Normal Coordinate               |
     |                Rational Function Optimizer                |
      ----------------------------------------------------------- 

          ...................................................
          :                      SETUP                      :
          :.................................................:
          :   optimization level             loose          :
          :   max. optcycles                   200          :
          :   ANC micro-cycles                  20          :
          :   degrees of freedom                69          :
          :.................................................:
          :   RF solver                   davidson          :
          :   write xtbopt.log                true          :
          :   linear?                        false          :
          :   energy convergence         0.5000000E-04 Eh   :
          :   grad. convergence          0.4000000E-02 Eh/α :
          :   maxmium RF displ.          1.0000000          :
          :   Hlow (freq-cutoff)         0.1000000E-01      :
          :   Hmax (freq-cutoff)         5.0000000          :
          :   S6 in model hess.         20.0000000          :
          ...................................................

generating ANC from model Hessian ...
Using Lindh-Hessian (1995)
 Shifting diagonal of input Hessian by    1.0314502556720540     
 Lowest  eigenvalues of input Hessian
    0.010000    0.270462    0.000000    0.000000    0.000000    0.000000
    0.000000    0.000000    1.034520    1.037007    1.037591    1.040837
    1.041787    1.043499    1.043773    1.045927    1.054442    1.057952
 Highest eigenvalues
    3.071483    3.174470    3.251052    3.422043    3.537825    4.432817


........................................................................
.............................. CYCLE    1 ..............................
........................................................................

 iter      E             dE          RMSdq      gap      omega  full diag
   1    -42.7765028 -0.427765E+02  0.540E-05    3.24       0.0  T
   2    -42.7765028 -0.643041E-11  0.289E-05    3.24     692.1  T
   3    -42.7765028  0.881073E-12  0.138E-05    3.24    1448.6  T
     SCC iter.                  ...        0 min,  0.005 sec
     gradient                   ...        0 min,  0.017 sec
 * total energy  :   -35.7228282 Eh     change       -0.6633627E-10 Eh
   gradient norm :     5.1077762 Eh/α   predicted     0.0000000E+00 (-100.00%)
   displ. norm   :     0.6974386 α      lambda       -0.3523481E+01
   maximum displ.:     0.5666454 α      in ANC's #69, #60, #58, ...

........................................................................
.............................. CYCLE    2 ..............................
........................................................................

 iter      E             dE          RMSdq      gap      omega  full diag
   1    -42.6766911 -0.426767E+02  0.133E+00    2.95       0.0  T
   2    -42.6931270 -0.164359E-01  0.876E-01    3.33       1.0  T
   3    -42.6993399 -0.621282E-02  0.475E-01    3.26       1.0  T
   4    -42.6997584 -0.418555E-03  0.172E-01    3.29       1.0  T
   5    -42.7000801 -0.321717E-03  0.215E-02    3.28       1.0  T
   6    -42.7000823 -0.221179E-05  0.139E-02    3.29       1.4  T
   7    -42.7000830 -0.664953E-06  0.631E-03    3.28       3.2  T
   8    -42.7000837 -0.667626E-06  0.146E-03    3.28      13.7  T
   9    -42.7000837 -0.158009E-07  0.607E-04    3.28      33.0  T
  10    -42.7000837 -0.126838E-08  0.237E-04    3.28      84.4  T
     SCC iter.                  ...        0 min,  0.014 sec
     gradient                   ...        0 min,  0.018 sec
 * total energy  :   -38.6713884 Eh     change       -0.2948560E+01 Eh
   gradient norm :     3.4060366 Eh/α   predicted    -0.2622427E+01 ( -11.06%)
   displ. norm   :     0.7282094 α      lambda       -0.2448633E+01
   maximum displ.:     0.5440433 α      in ANC's #69, #60, #58, ...

........................................................................
.............................. CYCLE    3 ..............................
........................................................................

 iter      E             dE          RMSdq      gap      omega  full diag
   1    -42.5506374 -0.425506E+02  0.120E+00    2.74       0.0  T
   2    -42.5628847 -0.122473E-01  0.975E-01    2.77       1.0  T
   3    -42.5775964 -0.147118E-01  0.431E-01    2.81       1.0  T
   4    -42.5774766  0.119766E-03  0.228E-01    2.82       1.0  T
   5    -42.5780096 -0.532935E-03  0.687E-02    2.80       1.0  T
   6    -42.5781304 -0.120840E-03  0.220E-02    2.82       1.0  T
   7    -42.5781378 -0.742408E-05  0.862E-03    2.81       2.3  T
   8    -42.5781382 -0.361469E-06  0.228E-03    2.81       8.8  T
   9    -42.5781383 -0.481150E-07  0.714E-04    2.81      28.0  T
  10    -42.5781383 -0.424976E-08  0.344E-04    2.81      58.1  T
     SCC iter.                  ...        0 min,  0.014 sec
     gradient                   ...        0 min,  0.013 sec
 * total energy  :   -40.5698523 Eh     change       -0.1898464E+01 Eh
   gradient norm :     1.9109613 Eh/α   predicted    -0.1873564E+01 (  -1.31%)
   displ. norm   :     0.7030628 α      lambda       -0.1318339E+01
   maximum displ.:     0.3574516 α      in ANC's #69, #58, #60, ...

........................................................................
.............................. CYCLE    4 ..............................
........................................................................

 iter      E             dE          RMSdq      gap      omega  full diag
   1    -42.4527637 -0.424528E+02  0.805E-01    1.56       0.0  T
   2    -42.4561483 -0.338461E-02  0.499E-01    1.69       1.0  T
   3    -42.4584357 -0.228737E-02  0.315E-01    1.64       1.0  T
   4    -42.4589281 -0.492395E-03  0.145E-01    1.64       1.0  T
   5    -42.4594424 -0.514313E-03  0.409E-02    1.66       1.0  T
   6    -42.4594732 -0.308348E-04  0.174E-02    1.65       1.1  T
   7    -42.4594788 -0.552457E-05  0.114E-02    1.65       1.8  T
   8    -42.4594805 -0.176617E-05  0.284E-03    1.65       7.0  T
   9    -42.4594807 -0.148167E-06  0.779E-04    1.65      25.7  T
  10    -42.4594807 -0.343626E-08  0.403E-04    1.65      49.6  T
     SCC iter.                  ...        0 min,  0.014 sec
     gradient                   ...        0 min,  0.013 sec
 * total energy  :   -41.5346672 Eh     change       -0.9648149E+00 Eh
   gradient norm :     0.9137546 Eh/α   predicted    -0.9850365E+00 (   2.10%)
   displ. norm   :     0.4993431 α      lambda       -0.4436888E+00
   maximum displ.:     0.2741424 α      in ANC's #69, #58, #60, ...

........................................................................
.............................. CYCLE    5 ..............................
........................................................................

 iter      E             dE          RMSdq      gap      omega  full diag
   1    -42.3935146 -0.423935E+02  0.484E-01    1.13       0.0  T
   2    -42.3951623 -0.164771E-02  0.280E-01    1.37       1.0  T
   3    -42.3960663 -0.903989E-03  0.211E-01    1.20       1.0  T
   4    -42.3963603 -0.294078E-03  0.115E-01    1.27       1.0  T
   5    -42.3966480 -0.287635E-03  0.530E-02    1.26       1.0  T
   6    -42.3967090 -0.610569E-04  0.127E-02    1.25       1.6  T
   7    -42.3967128 -0.377476E-05  0.762E-03    1.26       2.6  T
   8    -42.3967138 -0.961793E-06  0.399E-03    1.26       5.0  T
   9    -42.3967140 -0.198263E-06  0.124E-03    1.26      16.1  T
  10    -42.3967140 -0.295297E-07  0.429E-04    1.26      46.7  T
  11    -42.3967140 -0.997616E-09  0.204E-04    1.26      98.2  T
     SCC iter.                  ...        0 min,  0.015 sec
     gradient                   ...        0 min,  0.013 sec
 * total energy  :   -41.8159233 Eh     change       -0.2812560E+00 Eh
   gradient norm :     0.2947294 Eh/α   predicted    -0.2771600E+00 (  -1.46%)
   displ. norm   :     0.2570194 α      lambda       -0.7176668E-01
   maximum displ.:     0.0937074 α      in ANC's #40, #50, #69, ...

........................................................................
.............................. CYCLE    6 ..............................
........................................................................

 iter      E             dE          RMSdq      gap      omega  full diag
   1    -42.3953022 -0.423953E+02  0.398E-01    1.13       0.0  T
   2    -42.3949662  0.335981E-03  0.391E-01    1.10       1.0  T
   3    -42.3989206 -0.395440E-02  0.136E-01    1.13       1.0  T
   4    -42.3989157  0.484944E-05  0.932E-02    1.10       1.0  T
   5    -42.3989821 -0.663587E-04  0.512E-02    1.14       1.0  T
   6    -42.3990531 -0.710384E-04  0.247E-02    1.11       1.0  T
   7    -42.3990696 -0.165121E-04  0.636E-03    1.12       3.1  T
   8    -42.3990703 -0.665318E-06  0.265E-03    1.12       7.6  T
   9    -42.3990703 -0.382638E-07  0.925E-04    1.12      21.6  T
  10    -42.3990704 -0.723898E-08  0.336E-04    1.12      59.5  T
     SCC iter.                  ...        0 min,  0.014 sec
     gradient                   ...        0 min,  0.013 sec
 * total energy  :   -41.8653707 Eh     change       -0.4944745E-01 Eh
   gradient norm :     0.2184576 Eh/α   predicted    -0.3825376E-01 ( -22.64%)
   displ. norm   :     0.2611683 α      lambda       -0.4442357E-01
   maximum displ.:     0.1044018 α      in ANC's #40, #50, #44, ...

........................................................................
.............................. CYCLE    7 ..............................
........................................................................

 iter      E             dE          RMSdq      gap      omega  full diag
   1    -42.4235682 -0.424236E+02  0.493E-01    1.02       0.0  T
   2    -42.4204207  0.314751E-02  0.583E-01    0.87       1.0  T
   3    -42.4296452 -0.922448E-02  0.229E-01    1.02       1.0  T
   4    -42.4290483  0.596860E-03  0.245E-01    0.91       1.0  T
   5    -42.4302371 -0.118876E-02  0.107E-01    0.97       1.0  T
   6    -42.4305229 -0.285804E-03  0.246E-02    0.98       1.0  T
   7    -42.4305414 -0.185212E-04  0.790E-03    0.97       2.5  T
   8    -42.4305422 -0.790852E-06  0.366E-03    0.97       5.5  T
   9    -42.4305423 -0.769015E-07  0.101E-03    0.97      19.7  T
  10    -42.4305423 -0.111971E-07  0.428E-04    0.97      46.8  T
  11    -42.4305423 -0.161303E-08  0.217E-04    0.97      92.1  T
     SCC iter.                  ...        0 min,  0.015 sec
     gradient                   ...        0 min,  0.013 sec
 * total energy  :   -41.9003172 Eh     change       -0.3494655E-01 Eh
   gradient norm :     0.2138707 Eh/α   predicted    -0.2372747E-01 ( -32.10%)
   displ. norm   :     0.4264767 α      lambda       -0.5742650E-01
   maximum displ.:     0.1507987 α      in ANC's #40, #2, #44, ...

........................................................................
.............................. CYCLE    8 ..............................
........................................................................

 iter      E             dE          RMSdq      gap      omega  full diag
   1    -42.4688259 -0.424688E+02  0.801E-01    0.86       0.0  T
   2    -42.4451299  0.236960E-01  0.106E+00    0.53       1.0  T
   3    -42.4717268 -0.265968E-01  0.647E-01    0.98       1.0  T
   4    -42.4817344 -0.100077E-01  0.324E-01    0.74       1.0  T
   5    -42.4823691 -0.634653E-03  0.204E-01    0.73       1.0  T
   6    -42.4837131 -0.134405E-02  0.304E-02    0.79       1.0  T
   7    -42.4837284 -0.152340E-04  0.142E-02    0.78       1.4  T
   8    -42.4837309 -0.253020E-05  0.658E-03    0.78       3.0  T
   9    -42.4837314 -0.457984E-06  0.172E-03    0.78      11.6  T
  10    -42.4837314 -0.493080E-07  0.627E-04    0.78      31.9  T
  11    -42.4837314 -0.203217E-08  0.306E-04    0.78      65.3  T
     SCC iter.                  ...        0 min,  0.015 sec
     gradient                   ...        0 min,  0.013 sec
 * total energy  :   -41.9422898 Eh     change       -0.4197253E-01 Eh
   gradient norm :     0.1996008 Eh/α   predicted    -0.3393579E-01 ( -19.15%)
   displ. norm   :     0.4190852 α      lambda       -0.4147872E-01
   maximum displ.:     0.2154070 α      in ANC's #2, #40, #44, ...

........................................................................
.............................. CYCLE    9 ..............................
........................................................................

 iter      E             dE          RMSdq      gap      omega  full diag
   1    -42.5014273 -0.425014E+02  0.698E-01    0.70       0.0  T
   2    -42.4837027  0.177246E-01  0.855E-01    0.45       1.0  T
   3    -42.4904806 -0.677793E-02  0.727E-01    0.88       1.0  T
   4    -42.5061846 -0.157040E-01  0.243E-01    0.65       1.0  T
   5    -42.5061942 -0.961509E-05  0.177E-01    0.60       1.0  T
   6    -42.5072963 -0.110202E-02  0.300E-02    0.66       1.0  T
   7    -42.5073163 -0.200329E-04  0.145E-02    0.65       1.4  T
   8    -42.5073189 -0.260482E-05  0.571E-03    0.65       3.5  T
   9    -42.5073194 -0.500585E-06  0.119E-03    0.65      16.8  T
  10    -42.5073194 -0.214235E-07  0.536E-04    0.65      37.3  T
  11    -42.5073194 -0.139721E-08  0.203E-04    0.65      98.7  T
     SCC iter.                  ...        0 min,  0.015 sec
     gradient                   ...        0 min,  0.013 sec
 * total energy  :   -41.9738670 Eh     change       -0.3157725E-01 Eh
   gradient norm :     0.1748282 Eh/α   predicted    -0.2438190E-01 ( -22.79%)
   displ. norm   :     0.4040820 α      lambda       -0.3318919E-01
   maximum displ.:     0.2485599 α      in ANC's #2, #33, #35, ...

........................................................................
.............................. CYCLE   10 ..............................
........................................................................

 iter      E             dE          RMSdq      gap      omega  full diag
   1    -42.4991400 -0.424991E+02  0.626E-01    0.61       0.0  T
   2    -42.4883590  0.107810E-01  0.672E-01    0.46       1.0  T
   3    -42.4799671  0.839192E-02  0.792E-01    0.82       1.0  T
   4    -42.5008970 -0.209299E-01  0.152E-01    0.56       1.0  T
   5    -42.5008162  0.808136E-04  0.870E-02    0.62       1.0  T
   6    -42.5011082 -0.292042E-03  0.321E-02    0.58       1.0  T
   7    -42.5011320 -0.237292E-04  0.165E-02    0.59       1.2  T
   8    -42.5011367 -0.477613E-05  0.548E-03    0.58       3.6  T
   9    -42.5011374 -0.626816E-06  0.119E-03    0.58      16.8  T
  10    -42.5011374 -0.324322E-07  0.542E-04    0.58      36.9  T
  11    -42.5011374 -0.258462E-08  0.185E-04    0.58     107.8  T
     SCC iter.                  ...        0 min,  0.015 sec
     gradient                   ...        0 min,  0.013 sec
 * total energy  :   -41.9969587 Eh     change       -0.2309168E-01 Eh
   gradient norm :     0.1443393 Eh/α   predicted    -0.1930419E-01 ( -16.40%)
   displ. norm   :     0.2529143 α      lambda       -0.1875076E-01
   maximum displ.:     0.1653983 α      in ANC's #2, #33, #60, ...

........................................................................
.............................. CYCLE   11 ..............................
........................................................................

 iter      E             dE          RMSdq      gap      omega  full diag
   1    -42.4902906 -0.424903E+02  0.400E-01    0.57       0.0  T
   2    -42.4808008  0.948985E-02  0.567E-01    0.52       1.0  T
   3    -42.4838153 -0.301455E-02  0.491E-01    0.69       1.0  T
   4    -42.4892704 -0.545507E-02  0.243E-01    0.48       1.0  T
   5    -42.4912761 -0.200575E-02  0.892E-02    0.61       1.0  T
   6    -42.4915519 -0.275805E-03  0.332E-02    0.57       1.0  T
   7    -42.4915777 -0.257956E-04  0.154E-02    0.57       1.3  T
   8    -42.4915824 -0.467580E-05  0.468E-03    0.57       4.3  T
   9    -42.4915829 -0.453288E-06  0.108E-03    0.57      18.4  T
  10    -42.4915829 -0.366591E-07  0.319E-04    0.57      62.7  T
  11    -42.4915829 -0.164761E-09  0.171E-04    0.57     116.7  T
     SCC iter.                  ...        0 min,  0.015 sec
     gradient                   ...        0 min,  0.013 sec
 * total energy  :   -42.0114981 Eh     change       -0.1453938E-01 Eh
   gradient norm :     0.1308606 Eh/α   predicted    -0.9975105E-02 ( -31.39%)
   displ. norm   :     0.2984080 α      lambda       -0.2485748E-01
   maximum displ.:     0.1626058 α      in ANC's #2, #60, #33, ...

........................................................................
.............................. CYCLE   12 ..............................
........................................................................

 iter      E             dE          RMSdq      gap      omega  full diag
   1    -42.4860985 -0.424861E+02  0.517E-01    0.54       0.0  T
   2    -42.4504202  0.356782E-01  0.105E+00    0.52       1.0  T
   3    -42.4794787 -0.290585E-01  0.572E-01    0.70       1.0  T
   4    -42.4861939 -0.671516E-02  0.301E-01    0.44       1.0  T
   5    -42.4889524 -0.275855E-02  0.172E-01    0.61       1.0  T
   6    -42.4897858 -0.833371E-03  0.675E-02    0.56       1.0  T
   7    -42.4898951 -0.109333E-03  0.273E-02    0.55       1.0  T
   8    -42.4899105 -0.153721E-04  0.111E-02    0.55       1.8  T
   9    -42.4899126 -0.206402E-05  0.312E-03    0.55       6.4  T
  10    -42.4899129 -0.308361E-06  0.668E-04    0.55      30.0  T
  11    -42.4899129 -0.499208E-08  0.303E-04    0.55      66.0  T
     SCC iter.                  ...        0 min,  0.015 sec
     gradient                   ...        0 min,  0.013 sec
 * total energy  :   -42.0295867 Eh     change       -0.1808865E-01 Eh
   gradient norm :     0.1161314 Eh/α   predicted    -0.1353585E-01 ( -25.17%)
   displ. norm   :     0.2456387 α      lambda       -0.1743685E-01
   maximum displ.:     0.1201591 α      in ANC's #60, #38, #40, ...

........................................................................
.............................. CYCLE   13 ..............................
........................................................................

 iter      E             dE          RMSdq      gap      omega  full diag
   1    -42.4986984 -0.424987E+02  0.426E-01    0.50       0.0  T
   2    -42.4757329  0.229655E-01  0.839E-01    0.50       1.0  T
   3    -42.4946389 -0.189060E-01  0.472E-01    0.65       1.0  T
   4    -42.4990549 -0.441599E-02  0.240E-01    0.43       1.0  T
   5    -42.5005544 -0.149943E-02  0.173E-01    0.58       1.0  T
   6    -42.5015400 -0.985613E-03  0.535E-02    0.53       1.0  T
   7    -42.5016170 -0.769936E-04  0.172E-02    0.52       1.2  T
   8    -42.5016222 -0.522507E-05  0.767E-03    0.52       2.6  T
   9    -42.5016228 -0.650773E-06  0.253E-03    0.52       7.9  T
  10    -42.5016231 -0.233983E-06  0.699E-04    0.52      28.6  T
  11    -42.5016231 -0.603069E-08  0.347E-04    0.52      57.7  T
     SCC iter.                  ...        0 min,  0.015 sec
     gradient                   ...        0 min,  0.013 sec
 * total energy  :   -42.0408351 Eh     change       -0.1124834E-01 Eh
   gradient norm :     0.1008273 Eh/α   predicted    -0.9244562E-02 ( -17.81%)
   displ. norm   :     0.1545227 α      lambda       -0.9047592E-02
   maximum displ.:     0.0599412 α      in ANC's #38, #2, #23, ...

........................................................................
.............................. CYCLE   14 ..............................
........................................................................

 iter      E             dE          RMSdq      gap      omega  full diag
   1    -42.5173788 -0.425174E+02  0.238E-01    0.51       0.0  T
   2    -42.5125930  0.478586E-02  0.399E-01    0.49       1.0  T
   3    -42.5162950 -0.370204E-02  0.246E-01    0.58       1.0  T
   4    -42.5165916 -0.296543E-03  0.171E-01    0.44       1.0  T
   5    -42.5176925 -0.110093E-02  0.941E-02    0.55       1.0  T
   6    -42.5180400 -0.347447E-03  0.201E-02    0.52       1.0  T
   7    -42.5180523 -0.123700E-04  0.626E-03    0.51       3.2  T
   8    -42.5180529 -0.586885E-06  0.241E-03    0.51       8.3  T
   9    -42.5180530 -0.133190E-06  0.805E-04    0.51      24.8  T
  10    -42.5180531 -0.223500E-07  0.312E-04    0.51      64.0  T
     SCC iter.                  ...        0 min,  0.014 sec
     gradient                   ...        0 min,  0.013 sec
 * total energy  :   -42.0475521 Eh     change       -0.6716993E-02 Eh
   gradient norm :     0.0811240 Eh/α   predicted    -0.4632314E-02 ( -31.04%)
   displ. norm   :     0.2344147 α      lambda       -0.1053867E-01
   maximum displ.:     0.1509374 α      in ANC's #1, #2, #23, ...

........................................................................
.............................. CYCLE   15 ..............................
........................................................................

 iter      E             dE          RMSdq      gap      omega  full diag
   1    -42.5391255 -0.425391E+02  0.258E-01    0.54       0.0  T
   2    -42.5318945  0.723102E-02  0.466E-01    0.43       1.0  T
   3    -42.5373265 -0.543206E-02  0.277E-01    0.59       1.0  T
   4    -42.5380905 -0.763932E-03  0.164E-01    0.46       1.0  T
   5    -42.5394242 -0.133369E-02  0.689E-02    0.54       1.0  T
   6    -42.5396249 -0.200735E-03  0.121E-02    0.52       1.6  T
   7    -42.5396286 -0.368319E-05  0.533E-03    0.52       3.8  T
   8    -42.5396290 -0.455692E-06  0.192E-03    0.52      10.4  T
   9    -42.5396291 -0.122519E-06  0.348E-04    0.52      57.5  T
  10    -42.5396291  0.118383E-08  0.282E-04    0.52      70.9  T
     SCC iter.                  ...        0 min,  0.014 sec
     gradient                   ...        0 min,  0.013 sec
 * total energy  :   -42.0537854 Eh     change       -0.6233335E-02 Eh
   gradient norm :     0.0665378 Eh/α   predicted    -0.5558904E-02 ( -10.82%)
   displ. norm   :     0.3879286 α      lambda       -0.6604911E-02
   maximum displ.:     0.3653734 α      in ANC's #1, #2, #50, ...

........................................................................
.............................. CYCLE   16 ..............................
........................................................................

 iter      E             dE          RMSdq      gap      omega  full diag
   1    -42.5524726 -0.425525E+02  0.259E-01    0.55       0.0  T
   2    -42.5518573  0.615317E-03  0.195E-01    0.47       1.0  T
   3    -42.5462345  0.562271E-02  0.406E-01    0.67       1.0  T
   4    -42.5518682 -0.563361E-02  0.160E-01    0.53       1.0  T
   5    -42.5522988 -0.430623E-03  0.976E-02    0.51       1.0  T
   6    -42.5527580 -0.459175E-03  0.140E-02    0.52       1.4  T
   7    -42.5527640 -0.608577E-05  0.564E-03    0.52       3.5  T
   8    -42.5527645 -0.483255E-06  0.217E-03    0.52       9.2  T
   9    -42.5527646 -0.116680E-06  0.379E-04    0.52      52.8  T
  10    -42.5527646 -0.186708E-08  0.190E-04    0.52     105.0  T
     SCC iter.                  ...        0 min,  0.014 sec
     gradient                   ...        0 min,  0.013 sec
 * total energy  :   -42.0549380 Eh     change       -0.1152594E-02 Eh
   gradient norm :     0.0667562 Eh/α   predicted    -0.3800206E-02 ( 229.71%)
   displ. norm   :     0.2380610 α      lambda       -0.4639891E-02
   maximum displ.:     0.2348886 α      in ANC's #1, #60, #40, ...

........................................................................
.............................. CYCLE   17 ..............................
........................................................................

 iter      E             dE          RMSdq      gap      omega  full diag
   1    -42.5561705 -0.425562E+02  0.145E-01    0.53       0.0  T
   2    -42.5544626  0.170788E-02  0.236E-01    0.56       1.0  T
   3    -42.5556948 -0.123220E-02  0.145E-01    0.49       1.0  T
   4    -42.5555534  0.141396E-03  0.128E-01    0.58       1.0  T
   5    -42.5563180 -0.764523E-03  0.291E-02    0.52       1.0  T
   6    -42.5563498 -0.317996E-04  0.525E-03    0.53       3.8  T
   7    -42.5563500 -0.226101E-06  0.338E-03    0.53       5.9  T
   8    -42.5563502 -0.224938E-06  0.684E-04    0.53      29.2  T
   9    -42.5563502 -0.759265E-08  0.253E-04    0.53      79.1  T
     SCC iter.                  ...        0 min,  0.012 sec
     gradient                   ...        0 min,  0.013 sec
 * total energy  :   -42.0576995 Eh     change       -0.2761533E-02 Eh
   gradient norm :     0.0388478 Eh/α   predicted    -0.2451686E-02 ( -11.22%)
   displ. norm   :     0.0538610 α      lambda       -0.1199499E-02
   maximum displ.:     0.0400931 α      in ANC's #1, #2, #59, ...

........................................................................
.............................. CYCLE   18 ..............................
........................................................................

 iter      E             dE          RMSdq      gap      omega  full diag
   1    -42.5563118 -0.425563E+02  0.721E-02    0.52       0.0  T
   2    -42.5541750  0.213673E-02  0.244E-01    0.59       1.0  T
   3    -42.5564133 -0.223831E-02  0.385E-02    0.52       1.0  T
   4    -42.5563946  0.187326E-04  0.341E-02    0.54       1.0  T
   5    -42.5564317 -0.370895E-04  0.214E-02    0.52       1.0  T
   6    -42.5564468 -0.150809E-04  0.455E-03    0.53       4.4  T
   7    -42.5564473 -0.523781E-06  0.164E-03    0.53      12.2  T
   8    -42.5564473 -0.385117E-07  0.847E-04    0.53      23.6  T
   9    -42.5564474 -0.150964E-07  0.116E-04    0.53     173.1  T
     SCC iter.                  ...        0 min,  0.012 sec
     gradient                   ...        0 min,  0.013 sec
 * total energy  :   -42.0585877 Eh     change       -0.8881997E-03 Eh
   gradient norm :     0.0228194 Eh/α   predicted    -0.6015068E-03 ( -32.28%)
   displ. norm   :     0.0774101 α      lambda       -0.1270426E-02
   maximum displ.:     0.0414808 α      in ANC's #23, #15, #20, ...

........................................................................
.............................. CYCLE   19 ..............................
........................................................................

 iter      E             dE          RMSdq      gap      omega  full diag
   1    -42.5608350 -0.425608E+02  0.952E-02    0.51       0.0  T
   2    -42.5578621  0.297291E-02  0.293E-01    0.60       1.0  T
   3    -42.5610055 -0.314344E-02  0.514E-02    0.52       1.0  T
   4    -42.5609157  0.898008E-04  0.567E-02    0.55       1.0  T
   5    -42.5609954 -0.797167E-04  0.337E-02    0.52       1.0  T
   6    -42.5610398 -0.443193E-04  0.864E-03    0.53       2.3  T
   7    -42.5610420 -0.219958E-05  0.219E-03    0.53       9.1  T
   8    -42.5610420 -0.615300E-07  0.107E-03    0.53      18.6  T
   9    -42.5610420 -0.191038E-07  0.156E-04    0.53     128.2  T
  10    -42.5610420  0.849312E-10  0.979E-05    0.53     204.3  T
     SCC iter.                  ...        0 min,  0.014 sec
     gradient                   ...        0 min,  0.013 sec
 * total energy  :   -42.0594279 Eh     change       -0.8402087E-03 Eh
   gradient norm :     0.0185809 Eh/α   predicted    -0.6390371E-03 ( -23.94%)
   displ. norm   :     0.0592084 α      lambda       -0.5542721E-03
   maximum displ.:     0.0343277 α      in ANC's #23, #1, #15, ...

........................................................................
.............................. CYCLE   20 ..............................
........................................................................

 iter      E             dE          RMSdq      gap      omega  full diag
   1    -42.5638020 -0.425638E+02  0.525E-02    0.52       0.0  T
   2    -42.5633343  0.467706E-03  0.122E-01    0.56       1.0  T
   3    -42.5638362 -0.501906E-03  0.345E-02    0.53       1.0  T
   4    -42.5638301  0.611891E-05  0.287E-02    0.54       1.0  T
   5    -42.5638432 -0.130511E-04  0.140E-02    0.53       1.4  T
   6    -42.5638473 -0.411298E-05  0.865E-03    0.53       2.3  T
   7    -42.5638508 -0.355233E-05  0.125E-03    0.53      15.9  T
   8    -42.5638509 -0.247216E-07  0.628E-04    0.53      31.9  T
   9    -42.5638509 -0.593936E-08  0.152E-04    0.53     131.2  T
     SCC iter.                  ...        0 min,  0.012 sec
     gradient                   ...        0 min,  0.013 sec
 * total energy  :   -42.0598221 Eh     change       -0.3941673E-03 Eh
   gradient norm :     0.0185357 Eh/α   predicted    -0.2781463E-03 ( -29.43%)
   displ. norm   :     0.0650556 α      lambda       -0.4903693E-03
   maximum displ.:     0.0337897 α      in ANC's #23, #1, #15, ...
 * RMSD in coord.:     0.6979808 α      energy gain  -0.6336994E+01 Eh

generating ANC from model Hessian ...
Using Lindh-Hessian (1995)
 Shifting diagonal of input Hessian by    1.1094501232950030E-002
 Lowest  eigenvalues of input Hessian
    0.010000    0.010104    0.000000    0.000000    0.000000    0.000000
    0.000000    0.000000    0.014004    0.015415    0.016597    0.019556
    0.020861    0.022775    0.023279    0.024958    0.033573    0.034482
 Highest eigenvalues
    2.020071    2.067498    2.128090    2.394349    2.498048    3.305433


........................................................................
.............................. CYCLE   21 ..............................
........................................................................

 iter      E             dE          RMSdq      gap      omega  full diag
   1    -42.5658483 -0.425658E+02  0.480E-02    0.53       0.0  T
   2    -42.5657561  0.922153E-04  0.621E-02    0.54       1.0  T
   3    -42.5657636 -0.754021E-05  0.558E-02    0.52       1.0  T
   4    -42.5658333 -0.696901E-04  0.287E-02    0.54       1.0  T
   5    -42.5658381 -0.473831E-05  0.231E-02    0.52       1.0  T
   6    -42.5658649 -0.268210E-04  0.352E-03    0.53       5.7  T
   7    -42.5658652 -0.371445E-06  0.919E-04    0.53      21.8  T
   8    -42.5658652 -0.305001E-08  0.376E-04    0.53      53.1  T
     SCC iter.                  ...        0 min,  0.011 sec
     gradient                   ...        0 min,  0.013 sec
 * total energy  :   -42.0601674 Eh     change       -0.3452378E-03 Eh
   gradient norm :     0.0174167 Eh/α   predicted     0.0000000E+00 (-100.00%)
   displ. norm   :     0.1325433 α      lambda       -0.1111924E-02
   maximum displ.:     0.0929074 α      in ANC's #9, #15, #18, ...

........................................................................
.............................. CYCLE   22 ..............................
........................................................................

 iter      E             dE          RMSdq      gap      omega  full diag
   1    -42.5655344 -0.425655E+02  0.929E-02    0.54       0.0  T
   2    -42.5640929  0.144148E-02  0.202E-01    0.47       1.0  T
   3    -42.5654279 -0.133494E-02  0.801E-02    0.54       1.0  T
   4    -42.5655997 -0.171769E-03  0.150E-02    0.53       1.3  T
   5    -42.5656042 -0.454383E-05  0.427E-03    0.52       4.7  T
   6    -42.5656043 -0.103814E-06  0.349E-03    0.53       5.7  T
   7    -42.5656047 -0.363739E-06  0.183E-03    0.52      10.9  T
   8    -42.5656048 -0.924052E-07  0.616E-04    0.52      32.5  T
   9    -42.5656048 -0.984548E-08  0.136E-04    0.52     147.3  T
     SCC iter.                  ...        0 min,  0.012 sec
     gradient                   ...        0 min,  0.013 sec
 * total energy  :   -42.0609840 Eh     change       -0.8166814E-03 Eh
   gradient norm :     0.0087330 Eh/α   predicted    -0.5657324E-03 ( -30.73%)
   displ. norm   :     0.1538530 α      lambda       -0.5972649E-03
   maximum displ.:     0.1258104 α      in ANC's #9, #18, #15, ...

........................................................................
.............................. CYCLE   23 ..............................
........................................................................

 iter      E             dE          RMSdq      gap      omega  full diag
   1    -42.5658552 -0.425659E+02  0.852E-02    0.53       0.0  T
   2    -42.5645969  0.125822E-02  0.188E-01    0.47       1.0  T
   3    -42.5657641 -0.116721E-02  0.742E-02    0.53       1.0  T
   4    -42.5659036 -0.139465E-03  0.236E-02    0.52       1.0  T
   5    -42.5659005  0.310137E-05  0.194E-02    0.51       1.0  T
   6    -42.5659202 -0.196719E-04  0.361E-03    0.52       5.5  T
   7    -42.5659205 -0.328330E-06  0.149E-03    0.52      13.4  T
   8    -42.5659205 -0.137110E-07  0.594E-04    0.52      33.7  T
   9    -42.5659205 -0.900320E-08  0.130E-04    0.52     153.8  T
     SCC iter.                  ...        0 min,  0.037 sec
     gradient                   ...        0 min,  0.023 sec
 * total energy  :   -42.0613202 Eh     change       -0.3361343E-03 Eh
   gradient norm :     0.0047559 Eh/α   predicted    -0.3057464E-03 (  -9.04%)
   displ. norm   :     0.0418250 α      lambda       -0.5539302E-04
   maximum displ.:     0.0363871 α      in ANC's #9, #23, #18, ...

........................................................................
.............................. CYCLE   24 ..............................
........................................................................

 iter      E             dE          RMSdq      gap      omega  full diag
   1    -42.5662793 -0.425663E+02  0.172E-02    0.52       0.0  T
   2    -42.5662582  0.210995E-04  0.251E-02    0.51       1.0  T
   3    -42.5662675 -0.932992E-05  0.201E-02    0.52       1.0  T
   4    -42.5662734 -0.584349E-05  0.140E-02    0.52       1.4  T
   5    -42.5662807 -0.730424E-05  0.369E-03    0.52       5.4  T
   6    -42.5662813 -0.631843E-06  0.818E-04    0.52      24.5  T
   7    -42.5662813 -0.119108E-07  0.414E-04    0.52      48.3  T
     SCC iter.                  ...        0 min,  0.032 sec
     gradient                   ...        0 min,  0.016 sec
 * total energy  :   -42.0613607 Eh     change       -0.4050144E-04 Eh
   gradient norm :     0.0035574 Eh/α   predicted    -0.2776066E-04 ( -31.46%)
   displ. norm   :     0.0341467 α      lambda       -0.3321683E-04
   maximum displ.:     0.0261095 α      in ANC's #9, #2, #15, ...

   *** GEOMETRY OPTIMIZATION CONVERGED AFTER 24 ITERATIONS ***

------------------------------------------------------------------------
 total energy gain   :        -6.3385325 Eh    -3977.4892 kcal/mol
 total RMSD          :         0.7054443 a0        0.3733 Å
 total power (kW/mol):      -693.4089462 (step)********** (real)
------------------------------------------------------------------------

 ANCopt (total)                0 d,  0 h,  0 min,  0.887 sec
 optimizer setup                ...        0 min,  0.000 sec (  0.042%)
 model hessian                  ...        0 min,  0.013 sec (  1.522%)
 ANC generation                 ...        0 min,  0.002 sec (  0.193%)
 coordinate transformation      ...        0 min,  0.000 sec (  0.020%)
 single point calculation       ...        0 min,  0.865 sec ( 97.559%)
 optimization log               ...        0 min,  0.002 sec (  0.251%)
 hessian update                 ...        0 min,  0.000 sec (  0.033%)
 rational function              ...        0 min,  0.002 sec (  0.247%)

================
 final structure:
================
25
 xtb: 6.6.1 (8d0f1dd)
C            3.15468440508891        1.09715091663400        0.01760380101399
N            2.19412887684327        0.02857731798982       -0.00030313125532
C            2.47902664030003       -1.27817496170060       -0.00860906301576
N            1.30227747572565       -1.95209156545738       -0.00756548897038
C            0.25708469875443       -1.06659043709228        0.00080777366825
C            0.83207870208070        0.19951354225244        0.00684403922057
C            0.01665398085556        1.39867107309984       -0.00174555089484
O            0.42775370993413        2.53400161634939       -0.01485192428549
N           -1.34297512843658        1.08711215306982        0.00164702702619
C           -2.28326722387984        2.20007386349357       -0.00163309702381
C           -1.93201868599635       -0.16439037139444        0.00430082433397
O           -3.12081187104413       -0.31846910880627        0.00731639567832
N           -1.06515676865710       -1.28108656394312        0.00162263490197
C           -1.63249028289564       -2.61138217520310       -0.00206557474884
H            3.65506806042597        1.13491641521967        0.98651018752179
H            3.90363421173430        0.93427037625240       -0.75650193648555
H            2.64101409708125        2.04214778079152       -0.15339979382574
H            5.33990937714639       -1.80030440985828       -0.01802466511176
H           -1.71325691386979        3.12594036298844        0.00592762560183
H           -2.91266131057134        2.15008269157469       -0.89012512078460
H           -2.92624000572996        2.14264689595745        0.87652332579593
H           -1.31575806312550       -3.16278213565157        0.88443677216602
H           -1.32954316027043       -3.15231548850583       -0.89986828571606
H           -2.71728353601860       -2.50817712650395        0.00657303425198
H            1.24858022862467       -2.96110211995623       -0.01424819116267

 Bond Distances (Angstroems)
 ---------------------------
C1-N2=1.4370         C1-H15=1.0911        C1-H16=1.0894        C1-H17=1.0891        N2-C1=1.4370         N2-C3=1.3375         
N2-C6=1.3728         C3-N2=1.3375         C3-N4=1.3561         N4-C3=1.3561         N4-C5=1.3699         N4-H25=1.0105        
C5-N4=1.3699         C5-C6=1.3906         C5-N13=1.3395        C6-N2=1.3728         C6-C5=1.3906         C6-C7=1.4502         
C7-C6=1.4502         C7-O8=1.2075         C7-N9=1.3949         O8-C7=1.2075         N9-C7=1.3949         N9-C10=1.4570        
N9-C11=1.3832        C10-N9=1.4570        C10-H19=1.0873       C10-H20=1.0900       C10-H21=1.0899       C11-N9=1.3832        
C11-O12=1.1987       C11-N13=1.4137       O12-C11=1.1987       N13-C5=1.3395        N13-C11=1.4137       N13-C14=1.4462       
C14-N13=1.4462       C14-H22=1.0910       C14-H23=1.0911       C14-H24=1.0897       H15-C1=1.0911        H16-C1=1.0894        
H17-C1=1.0891        H19-C10=1.0873       H20-C10=1.0900       H21-C10=1.0899       H22-C14=1.0910       H23-C14=1.0911       
H24-C14=1.0897       H25-N4=1.0105        
 C  H  Rav=1.0898 sigma=0.0011  Rmin=1.0873  Rmax=1.0911     9
 C  C  Rav=1.4204 sigma=0.0298  Rmin=1.3906  Rmax=1.4502     2
 N  H  Rav=1.0105 sigma=0.0000  Rmin=1.0105  Rmax=1.0105     1
 N  C  Rav=1.3916 sigma=0.0400  Rmin=1.3375  Rmax=1.4570    11
 O  C  Rav=1.2031 sigma=0.0044  Rmin=1.1987  Rmax=1.2075     2

 selected bond angles (degree)
 --------------------
H15-C1-N2=110.08               H16-C1-N2=109.85               H16-C1-H15=108.72              H17-C1-N2=109.15               
H17-C1-H15=109.01              H17-C1-H16=110.02              C3-N2-C1=125.75                C6-N2-C1=124.79                
C6-N2-C3=109.45                N4-C3-N2=107.50                C5-N4-C3=109.93                H25-N4-C3=122.84               
H25-N4-C5=127.23               C6-C5-N4=105.85                N13-C5-N4=130.51               N13-C5-C6=123.64               
C5-C6-N2=107.27                C7-C6-N2=131.36                C7-C6-C5=121.36                O8-C7-C6=125.88                
N9-C7-C6=111.31                N9-C7-O8=122.81                C10-N9-C7=117.29               C11-N9-C7=128.11               
C11-N9-C10=114.60              H19-C10-N9=108.19              H20-C10-N9=109.84              H20-C10-H19=110.33             
H21-C10-N9=109.80              H21-C10-H19=110.40             H21-C10-H20=108.28             

 selected dihedral angles (degree)
 ---------------------------------
C3-N2-C1-H15=289.86           C3-N2-C1-H16= 49.54           C3-N2-C1-H17=170.26           C6-N2-C1-H15=108.93           
C6-N2-C1-H16=228.61           C6-N2-C1-H17=349.32           N4-C3-N2-C1=179.22            N4-C3-N2-C6=  0.03            
C5-N4-C3-N2=  0.03            H25-N4-C3-N2=179.91           C6-C5-N4-C3=359.92            C6-C5-N4-H25=180.05           
N13-C5-N4-C3=179.83           N13-C5-N4-H25=359.96          C5-C6-N2-C1=180.72            C5-C6-N2-C3=359.92            
C7-C6-N2-C1=  1.79            C7-C6-N2-C3=180.99            N2-C6-C5-N4=  0.10            N2-C6-C5-N13=180.18           
C7-C6-C5-N4=179.16            C7-C6-C5-N13=359.24           O8-C7-C6-N2=359.83            O8-C7-C6-C5=181.02            
N9-C7-C6-N2=179.59            N9-C7-C6-C5=  0.78            C10-N9-C7-C6=179.80           C10-N9-C7-O8=359.57           
C11-N9-C7-C6=359.61           C11-N9-C7-O8=179.38           H19-C10-N9-C7=359.31          H19-C10-N9-C11=179.48         
H20-C10-N9-C7=119.80          H20-C10-N9-C11=299.96         H21-C10-N9-C7=238.77          H21-C10-N9-C11= 58.94         
           -------------------------------------------------
          |                Final Singlepoint                |
           -------------------------------------------------

          ...................................................
          :                      SETUP                      :
          :.................................................:
          :  # basis functions                  67          :
          :  # atomic orbitals                  67          :
          :  # shells                           39          :
          :  # electrons                        74          :
          :  max. iterations                   250          :
          :  Hamiltonian                  GFN2-xTB          :
          :  restarted?                      false          :
          :  GBSA solvation                  false          :
          :  PC potential                    false          :
          :  electronic temp.         2500.0000000     K    :
          :  accuracy                    1.0000000          :
          :  -> integral cutoff          0.2500000E+02      :
          :  -> integral neglect         0.1000000E-07      :
          :  -> SCF convergence          0.1000000E-05 Eh   :
          :  -> wf. convergence          0.1000000E-03 e    :
          :  Broyden damping             0.4000000          :
          ...................................................

 iter      E             dE          RMSdq      gap      omega  full diag
   1    -42.5662813 -0.425663E+02  0.113E-04    0.52       0.0  T
   2    -42.5662813  0.561850E-08  0.386E-04    0.52      51.8  T
   3    -42.5662813 -0.563220E-08  0.901E-05    0.52     221.9  T

   *** convergence criteria satisfied after 3 iterations ***

         #    Occupation            Energy/Eh            Energy/eV
      -------------------------------------------------------------
         1        2.0000           -0.8961752             -24.3862
       ...           ...                  ...                  ...
        31        1.9996           -0.6067304             -16.5100
        32        1.9995           -0.6053354             -16.4720
        33        1.9957           -0.5885711             -16.0158
        34        1.9741           -0.5743189             -15.6280
        35        1.9462           -0.5684146             -15.4673
        36        1.8198           -0.5583061             -15.1923
        37        1.6574           -0.5524797             -15.0337 (HOMO)
        38        0.6079           -0.5334387             -14.5156 (LUMO)
        39        0.0000           -0.4204986             -11.4423
        40                         -0.3925975             -10.6831
        41                         -0.3737361             -10.1699
        42                         -0.2925384              -7.9604
       ...                                ...                  ...
        67                          0.5491013              14.9418
      -------------------------------------------------------------
                  HL-Gap            0.0190410 Eh            0.5181 eV
             Fermi-level           -0.5399986 Eh          -14.6941 eV

 SCC (total)                   0 d,  0 h,  0 min,  0.062 sec
 SCC setup                      ...        0 min,  0.000 sec (  0.317%)
 Dispersion                     ...        0 min,  0.000 sec (  0.297%)
 classical contributions        ...        0 min,  0.000 sec (  0.113%)
 integral evaluation            ...        0 min,  0.015 sec ( 24.122%)
 iterations                     ...        0 min,  0.005 sec (  7.520%)
 molecular gradient             ...        0 min,  0.042 sec ( 67.402%)
 printout                       ...        0 min,  0.000 sec (  0.204%)

         :::::::::::::::::::::::::::::::::::::::::::::::::::::
         ::                     SUMMARY                     ::
         :::::::::::::::::::::::::::::::::::::::::::::::::::::
         :: total energy             -42.061360670920 Eh    ::
         :: gradient norm              0.003554261979 Eh/a0 ::
         :: HOMO-LUMO gap              0.518131726179 eV    ::
         ::.................................................::
         :: SCC energy               -42.566281341558 Eh    ::
         :: -> isotropic ES            0.128978255828 Eh    ::
         :: -> anisotropic ES         -0.004748649369 Eh    ::
         :: -> anisotropic XC          0.010841805115 Eh    ::
         :: -> dispersion             -0.022621266938 Eh    ::
         :: repulsion energy           0.504796292044 Eh    ::
         :: add. restraining           0.000035468466 Eh    ::
         :: total charge               1.000000000163 e     ::
         :::::::::::::::::::::::::::::::::::::::::::::::::::::

           -------------------------------------------------
          |                Property Printout                |
           -------------------------------------------------

    * Orbital Energies and Occupations

         #    Occupation            Energy/Eh            Energy/eV
      -------------------------------------------------------------
         1        2.0000           -0.8961752             -24.3862
       ...           ...                  ...                  ...
        25        2.0000           -0.6649419             -18.0940
        26        2.0000           -0.6630741             -18.0432
        27        2.0000           -0.6365107             -17.3203
        28        2.0000           -0.6318743             -17.1942
        29        2.0000           -0.6255853             -17.0230
        30        1.9999           -0.6159229             -16.7601
        31        1.9996           -0.6067304             -16.5100
        32        1.9995           -0.6053354             -16.4720
        33        1.9957           -0.5885711             -16.0158
        34        1.9741           -0.5743189             -15.6280
        35        1.9462           -0.5684146             -15.4673
        36        1.8198           -0.5583061             -15.1923
        37        1.6574           -0.5524797             -15.0337 (HOMO)
        38        0.6079           -0.5334387             -14.5156 (LUMO)
        39        0.0000           -0.4204986             -11.4423
        40                         -0.3925975             -10.6831
        41                         -0.3737361             -10.1699
        42                         -0.2925384              -7.9604
        43                         -0.2087057              -5.6792
        44                         -0.1698315              -4.6213
        45                         -0.1414950              -3.8503
        46                         -0.1302814              -3.5451
        47                         -0.0686989              -1.8694
        48                         -0.0381797              -1.0389
       ...                                ...                  ...
        67                          0.5491013              14.9418
      -------------------------------------------------------------
                  HL-Gap            0.0190410 Eh            0.5181 eV
             Fermi-level           -0.5399986 Eh          -14.6941 eV

     #   Z          covCN         q      C6AA      α(0)
     1   6 C        3.692    -0.086    22.334     6.762
     2   7 N        2.845     0.077    19.909     6.627
     3   6 C        2.061    -0.051    32.340     9.186
     4   7 N        2.813    -0.062    22.431     7.034
     5   6 C        3.006     0.117    25.402     8.268
     6   6 C        3.095    -0.009    28.138     8.694
     7   6 C        2.764     0.274    22.365     7.745
     8   8 O        0.858    -0.343    20.575     6.082
     9   7 N        2.745    -0.079    22.778     7.088
    10   6 C        3.710    -0.062    21.837     6.678
    11   6 C        2.729     0.319    21.576     7.605
    12   8 O        0.859    -0.342    20.557     6.079
    13   7 N        2.738    -0.042    22.049     6.974
    14   6 C        3.697    -0.071    22.033     6.714
    15   1 H        0.924     0.105     1.737     2.061
    16   1 H        0.925     0.104     1.747     2.067
    17   1 H        0.925     0.123     1.589     1.971
    18   1 H        0.000     0.173     3.109     3.224
    19   1 H        0.925     0.115     1.650     2.009
    20   1 H        0.925     0.104     1.752     2.070
    21   1 H        0.925     0.104     1.749     2.068
    22   1 H        0.924     0.093     1.852     2.128
    23   1 H        0.924     0.093     1.850     2.127
    24   1 H        0.925     0.128     1.548     1.945
    25   1 H        0.860     0.218     1.020     1.582

 Mol. C6AA /au·bohr⁶  :       6656.617037
 Mol. C8AA /au·bohr⁸  :     152526.305542
 Mol. α(0) /au        :        124.787955


Wiberg/Mayer (AO) data.
largest (>0.10) Wiberg bond orders for each atom

 ---------------------------------------------------------------------------
     #   Z sym  total        # sym  WBO       # sym  WBO       # sym  WBO
 ---------------------------------------------------------------------------
     1   6 C    3.916 --     2 N    0.995    17 H    0.961    16 H    0.961
                            15 H    0.953
     2   7 N    3.656 --     3 C    1.359     6 C    1.179     1 C    0.995
     3   6 C    3.007 --     2 N    1.359     4 N    1.294    18 H    0.183
     4   7 N    3.589 --     3 C    1.294     5 C    1.187    25 H    0.924
     5   6 C    3.910 --     6 C    1.315    13 N    1.227     4 N    1.187
     6   6 C    3.821 --     5 C    1.315     2 N    1.179     7 C    1.062
     7   6 C    3.953 --     8 O    1.692     9 N    1.101     6 C    1.062
     8   8 O    2.010 --     7 C    1.692     9 N    0.138
     9   7 N    3.537 --    11 C    1.125     7 C    1.101    10 C    0.970
                             8 O    0.138    12 O    0.131
    10   6 C    3.899 --     9 N    0.970    19 H    0.968    21 H    0.958
                            20 H    0.958
    11   6 C    3.955 --    12 O    1.707     9 N    1.125    13 N    1.031
    12   8 O    2.026 --    11 C    1.707     9 N    0.131    13 N    0.106
    13   7 N    3.491 --     5 C    1.227    11 C    1.031    14 C    0.980
                            12 O    0.106
    14   6 C    3.912 --    13 N    0.980    24 H    0.964    22 H    0.961
                            23 H    0.961
    15   1 H    0.980 --     1 C    0.953
    16   1 H    0.983 --     1 C    0.961
    17   1 H    0.982 --     1 C    0.961
    18   1 H    0.213 --     3 C    0.183
    19   1 H    0.986 --    10 C    0.968
    20   1 H    0.977 --    10 C    0.958
    21   1 H    0.977 --    10 C    0.958
    22   1 H    0.978 --    14 C    0.961
    23   1 H    0.978 --    14 C    0.961
    24   1 H    0.983 --    14 C    0.964
    25   1 H    0.952 --     4 N    0.924
 ---------------------------------------------------------------------------

Topologies differ in total number of bonds
Writing topology from bond orders to xtbtopo.mol

molecular dipole:
                 x           y           z       tot (Debye)
 q only:        2.535      -1.958       0.003
   full:        2.358      -2.242       0.011       8.270
molecular quadrupole (traceless):
                xx          xy          yy          xz          yz          zz
 q only:       21.206      -9.629       1.585       0.042       0.166     -22.791
  q+dip:       15.388      -9.596       2.105       0.129       0.206     -17.493
   full:       14.260      -9.386       1.454       0.132       0.212     -15.714

           -------------------------------------------------
          |                Geometry Summary                 |
           -------------------------------------------------

      molecular mass/u    :      195.1988581
   center of mass at/Å    :       -0.0677738       0.0051907       0.0001498
  moments of inertia/u·Å² :        0.4779173E+03   0.7344353E+03   0.1202812E+04
rotational constants/cm⁻¹ :        0.3527312E-01   0.2295319E-01   0.1401519E-01

 * 24 selected distances

     #   Z          #   Z                                           value/Å
     1   6 C        2   7 N                                       1.4369542
     2   7 N        3   6 C                                       1.3374743
     3   6 C        4   7 N                                       1.3560618
     4   7 N        5   6 C                                       1.3698944
     2   7 N        6   6 C                                       1.3727532
     5   6 C        6   6 C                                       1.3905661
     7   6 C        8   8 O                                       1.2075390
     7   6 C        9   7 N                                       1.3948735
     9   7 N       10   6 C                                       1.4569983 (max)
     9   7 N       11   6 C                                       1.3831986
    11   6 C       12   8 O                                       1.1987405
     5   6 C       13   7 N                                       1.3395268
    11   6 C       13   7 N                                       1.4136716
    13   7 N       14   6 C                                       1.4462253
     1   6 C       15   1 H                                       1.0911415
     1   6 C       16   1 H                                       1.0893557
     1   6 C       17   1 H                                       1.0890908
    10   6 C       19   1 H                                       1.0872892
    10   6 C       20   1 H                                       1.0899791
    10   6 C       21   1 H                                       1.0898948
    14   6 C       22   1 H                                       1.0909848
    14   6 C       23   1 H                                       1.0910709
    14   6 C       24   1 H                                       1.0897259
     4   7 N       25   1 H                                       1.0104606 (min)

 * 5 distinct bonds (by element types)

   Z      Z             #   av. dist./Å        max./Å        min./Å
   1 H    6 C           9     1.0898370     1.0911415     1.0872892
   6 C    6 C           1     1.3905661     1.3905661     1.3905661
   1 H    7 N           1     1.0104606     1.0104606     1.0104606
   6 C    7 N          11     1.3916029     1.4569983     1.3374743
   6 C    8 O           2     1.2031398     1.2075390     1.1987405


optimized geometry written to: xtbopt.xyz


           -------------------------------------------------
          | TOTAL ENERGY              -42.061360670920 Eh   |
          | GRADIENT NORM               0.003554261979 Eh/α |
          | HOMO-LUMO GAP               0.518131726179 eV   |
           -------------------------------------------------

------------------------------------------------------------------------
 * finished run on 2024/06/05 at 19:57:58.747     
------------------------------------------------------------------------
 total:
 * wall-time:     0 d,  0 h,  0 min,  1.068 sec
 *  cpu-time:     0 d,  0 h,  0 min,  0.851 sec
 * ratio c/w:     0.797 speedup
 SCF:
 * wall-time:     0 d,  0 h,  0 min,  0.063 sec
 *  cpu-time:     0 d,  0 h,  0 min,  0.037 sec
 * ratio c/w:     0.589 speedup
 ANC optimizer:
 * wall-time:     0 d,  0 h,  0 min,  0.970 sec
 *  cpu-time:     0 d,  0 h,  0 min,  0.802 sec
 * ratio c/w:     0.826 speedup

