25
 energy: 6.902652594641 xtb: 6.6.1 (8d0f1dd)
C            3.34236037225754        1.12130760824194        0.09762427185403
N            2.36716152598863        0.08398365330407        0.02294021259146
C            2.64124902242047       -1.27830270779394        0.00711413817304
N            1.44238186683963       -1.95117042224824       -0.04386389154848
C            0.44783741974103       -1.03747913740129       -0.00902712018358
C            0.96436029342615        0.25185561388847        0.03147207373012
C            0.13401669766416        1.42636777308219        0.04125496224161
O            0.56052853505872        2.58014020017954        0.07775155044461
N           -1.35947484192597        1.16655972772266       -0.01232160161358
C           -2.48846158276645        2.20498951166348       -0.09403312364120
C           -1.80755619635299       -0.12604222567791       -0.00414016357171
O           -2.99094264814669       -0.40310941563900       -0.00591260096681
N           -0.89830507609511       -1.23170181541640       -0.00652873387926
C           -1.41756892179660       -2.59468296975802       -0.04494988823195
H            3.80860440962990        1.16128763391235        1.08662459032092
H            4.12295937546163        0.95554441510297       -0.65110222284187
H            2.84395216104731        2.06627218582080       -0.08451445183879
H            3.60621802851529       -1.73162711708478        0.00357323906008
H           -2.02777352909245        3.19537451376087       -0.07733016124534
H           -3.10999551366985        2.09939652156768       -0.98990043878619
H           -3.18171946539633        2.12850135489541        0.74679448559630
H           -1.09011534030911       -3.16541657729395        0.83044258106847
H           -1.09104605196683       -3.12770331456038       -0.94503997329905
H           -2.50423173557372       -2.53425189093213       -0.04520924753956
H            1.35845888281435       -2.95688633887959       -0.08640857660976
