      -----------------------------------------------------------      
     |                   =====================                   |     
     |                           x T B                           |     
     |                   =====================                   |     
     |                         S. Grimme                         |     
     |          Mulliken Center for Theoretical Chemistry        |     
     |                    University of Bonn                     |     
      -----------------------------------------------------------      

   * xtb version 6.6.1 (8d0f1dd) compiled by 'conda@1efc2f54142f' on 2023-08-01

   xtb is free software: you can redistribute it and/or modify it under
   the terms of the GNU Lesser General Public License as published by
   the Free Software Foundation, either version 3 of the License, or
   (at your option) any later version.
   
   xtb is distributed in the hope that it will be useful,
   but WITHOUT ANY WARRANTY; without even the implied warranty of
   MERCHANTABILITY or FITNESS FOR A PARTICULAR PURPOSE.  See the
   GNU Lesser General Public License for more details.
   
   Cite this work as:
   * C. Bannwarth, E. Caldeweyher, S. Ehlert, A. Hansen, P. Pracht,
     J. Seibert, S. Spicher, S. Grimme, WIREs Comput. Mol. Sci., 2020, 11,
     e01493. DOI: 10.1002/wcms.1493
   
   for GFN2-xTB:
   * C. Bannwarth, S. Ehlert and S. Grimme., J. Chem. Theory Comput., 2019,
     15, 1652-1671. DOI: 10.1021/acs.jctc.8b01176
   for GFN1-xTB:
   * S. Grimme, C. Bannwarth, P. Shushkov, J. Chem. Theory Comput., 2017,
     13, 1989-2009. DOI: 10.1021/acs.jctc.7b00118
   for GFN0-xTB:
   * P. Pracht, E. Caldeweyher, S. Ehlert, S. Grimme, ChemRxiv, 2019, preprint.
     DOI: 10.26434/chemrxiv.8326202.v1
   for GFN-FF:
   * S. Spicher and S. Grimme, Angew. Chem. Int. Ed., 2020, 59, 15665-15673.
     DOI: 10.1002/anie.202004239
   
   for ALPB and GBSA implicit solvation:
   * S. Ehlert, M. Stahn, S. Spicher, S. Grimme, J. Chem. Theory Comput.,
     2021, 17, 4250-4261. DOI: 10.1021/acs.jctc.1c00471
   
   for DFT-D4:
   * E. Caldeweyher, C. Bannwarth and S. Grimme, J. Chem. Phys., 2017,
     147, 034112. DOI: 10.1063/1.4993215
   * E. Caldeweyher, S. Ehlert, A. Hansen, H. Neugebauer, S. Spicher,
     C. Bannwarth and S. Grimme, J. Chem. Phys., 2019, 150, 154122.
     DOI: 10.1063/1.5090222
   * E. Caldeweyher, J.-M. Mewes, S. Ehlert and S. Grimme, Phys. Chem. Chem. Phys.
     2020, 22, 8499-8512. DOI: 10.1039/D0CP00502A
   
   for sTDA-xTB:
   * S. Grimme and C. Bannwarth, J. Chem. Phys., 2016, 145, 054103.
     DOI: 10.1063/1.4959605
   
   in the mass-spec context:
   * V. Asgeirsson, C. Bauer and S. Grimme, Chem. Sci., 2017, 8, 4879.
     DOI: 10.1039/c7sc00601b
   * J. Koopman and S. Grimme, ACS Omega 2019, 4, 12, 15120-15133.
     DOI: 10.1021/acsomega.9b02011
   
   for metadynamics refer to:
   * S. Grimme, J. Chem. Theory Comput., 2019, 155, 2847-2862
     DOI: 10.1021/acs.jctc.9b00143
   
   for SPH calculations refer to:
   * S. Spicher and S. Grimme, J. Chem. Theory Comput., 2021, 17, 1701-1714
     DOI: 10.1021/acs.jctc.0c01306
   
   with help from (in alphabetical order)
   P. Atkinson, C. Bannwarth, F. Bohle, G. Brandenburg, E. Caldeweyher
   M. Checinski, S. Dohm, S. Ehlert, S. Ehrlich, I. Gerasimov, C. Hölzer
   A. Katbashev, J. Koopman, C. Lavigne, S. Lehtola, F. März, M. Müller,
   F. Musil, H. Neugebauer, J. Pisarek, C. Plett, P. Pracht, F. Pultar,
   J. Seibert, P. Shushkov, S. Spicher, M. Stahn, M. Steiner, T. Strunk,
   J. Stückrath, T. Rose, and J. Unsleber
   
 * started run on 2024/06/05 at 19:58:42.541     

           -------------------------------------------------
          |                Calculation Setup                |
           -------------------------------------------------

          program call               : xtb xtbopt.xyz --opt crude --input .xc2 --gfn2
          hostname                   : n-62-29-9
          coordinate file            : xtbopt.xyz
          omp threads                :                     1

   ID    Z sym.   atoms
    1    6 C      1, 3, 5-7, 10, 11, 14
    2    7 N      2, 4, 9, 13
    3    8 O      8, 12
    4    1 H      15-25
########################################################################
[WARNING] Please study the warnings concerning your input carefully
-1- readin_getIntValue: could not parse ''
########################################################################

           -------------------------------------------------
          |                 G F N 2 - x T B                 |
           -------------------------------------------------

        Reference                      10.1021/acs.jctc.8b01176
      * Hamiltonian:
        H0-scaling (s, p, d)           1.850000    2.230000    2.230000
        zeta-weighting                 0.500000
      * Dispersion:
        s8                             2.700000
        a1                             0.520000
        a2                             5.000000
        s9                             5.000000
      * Repulsion:
        kExp                           1.500000    1.000000
        rExp                           1.000000
      * Coulomb:
        alpha                          2.000000
        third order                    shell-resolved
        anisotropic                    true
        a3                             3.000000
        a5                             4.000000
        cn-shift                       1.200000
        cn-exp                         4.000000
        max-rad                        5.000000

q/qsh data taken from xtbrestart
CAMM data taken from xtbrestart

          ...................................................
          :                      SETUP                      :
          :.................................................:
          :  # basis functions                  67          :
          :  # atomic orbitals                  67          :
          :  # shells                           39          :
          :  # electrons                        74          :
          :  max. iterations                   250          :
          :  Hamiltonian                  GFN2-xTB          :
          :  restarted?                       true          :
          :  GBSA solvation                  false          :
          :  PC potential                    false          :
          :  electronic temp.         7500.0000000     K    :
          :  accuracy                    1.0000000          :
          :  -> integral cutoff          0.2500000E+02      :
          :  -> integral neglect         0.1000000E-07      :
          :  -> SCF convergence          0.1000000E-05 Eh   :
          :  -> wf. convergence          0.1000000E-03 e    :
          :  Broyden damping             0.4000000          :
          ...................................................

 iter      E             dE          RMSdq      gap      omega  full diag
   1    -42.6692897 -0.426693E+02  0.161E-05    0.24       0.0  T
   2    -42.6692897  0.203642E-10  0.249E-05    0.24     804.3  T
   3    -42.6692897 -0.319957E-10  0.422E-06    0.24    4737.6  T

   *** convergence criteria satisfied after 3 iterations ***

         #    Occupation            Energy/Eh            Energy/eV
      -------------------------------------------------------------
         1        2.0000           -0.8939240             -24.3249
       ...           ...                  ...                  ...
        31        1.9669           -0.6174433             -16.8015
        32        1.9203           -0.5959990             -16.2180
        33        1.8886           -0.5876516             -15.9908
        34        1.8867           -0.5872316             -15.9794
        35        1.8003           -0.5726553             -15.5827
        36        1.7789           -0.5699513             -15.5092
        37        1.4815           -0.5453572             -14.8399 (HOMO)
        38        1.3274           -0.5365716             -14.6009 (LUMO)
        39        0.0458           -0.4312634             -11.7353
        40        0.0140           -0.4027150             -10.9584
        41        0.0042           -0.3743009             -10.1852
        42        0.0001           -0.2947756              -8.0213
       ...           ...                  ...                  ...
        67                          0.5441610              14.8074
      -------------------------------------------------------------
                  HL-Gap            0.0087856 Eh            0.2391 eV
             Fermi-level           -0.5204232 Eh          -14.1614 eV

 SCC (total)                   0 d,  0 h,  0 min,  0.023 sec
 SCC setup                      ...        0 min,  0.000 sec (  1.344%)
 Dispersion                     ...        0 min,  0.000 sec (  1.713%)
 classical contributions        ...        0 min,  0.000 sec (  0.461%)
 integral evaluation            ...        0 min,  0.005 sec ( 21.657%)
 iterations                     ...        0 min,  0.006 sec ( 24.912%)
 molecular gradient             ...        0 min,  0.011 sec ( 49.087%)
 printout                       ...        0 min,  0.000 sec (  0.765%)

         :::::::::::::::::::::::::::::::::::::::::::::::::::::
         ::                     SUMMARY                     ::
         :::::::::::::::::::::::::::::::::::::::::::::::::::::
         :: total energy             -42.166696042953 Eh    ::
         :: gradient norm              0.048400736013 Eh/a0 ::
         :: HOMO-LUMO gap              0.239069412021 eV    ::
         ::.................................................::
         :: SCC energy               -42.669289721847 Eh    ::
         :: -> isotropic ES            0.132490622594 Eh    ::
         :: -> anisotropic ES         -0.010391471621 Eh    ::
         :: -> anisotropic XC          0.019625690524 Eh    ::
         :: -> dispersion             -0.021186034188 Eh    ::
         :: repulsion energy           0.502536358000 Eh    ::
         :: add. restraining           0.000000000000 Eh    ::
         :: total charge               1.000000000075 e     ::
         :::::::::::::::::::::::::::::::::::::::::::::::::::::

      ----------------------------------------------------------- 
     |                   =====================                   |
     |                        A N C O P T                        |
     |                   =====================                   |
     |               Approximate Normal Coordinate               |
     |                Rational Function Optimizer                |
      ----------------------------------------------------------- 

          ...................................................
          :                      SETUP                      :
          :.................................................:
          :   optimization level             crude          :
          :   max. optcycles                   200          :
          :   ANC micro-cycles                  20          :
          :   degrees of freedom                69          :
          :.................................................:
          :   RF solver                   davidson          :
          :   write xtbopt.log                true          :
          :   linear?                        false          :
          :   energy convergence         0.5000000E-03 Eh   :
          :   grad. convergence          0.1000000E-01 Eh/α :
          :   maxmium RF displ.          1.0000000          :
          :   Hlow (freq-cutoff)         0.1000000E-01      :
          :   Hmax (freq-cutoff)         5.0000000          :
          :   S6 in model hess.         20.0000000          :
          ...................................................

generating ANC from model Hessian ...
Using Lindh-Hessian (1995)
 Shifting diagonal of input Hessian by    9.4822844078810385E-003
 Lowest  eigenvalues of input Hessian
    0.000000    0.000000    0.000000    0.000000    0.000000    0.000000
    0.010000    0.010893    0.012443    0.013501    0.014959    0.017571
    0.020016    0.021767    0.023156    0.024324    0.025510    0.032154
 Highest eigenvalues
    1.875484    1.978764    2.116873    2.278447    2.355893    2.526040


........................................................................
.............................. CYCLE    1 ..............................
........................................................................

 iter      E             dE          RMSdq      gap      omega  full diag
   1    -42.6692897 -0.426693E+02  0.275E-06    0.24       0.0  T
   2    -42.6692897 -0.213163E-13  0.175E-06    0.24   11429.9  T
   3    -42.6692897 -0.106581E-12  0.119E-06    0.24   16767.2  T
     SCC iter.                  ...        0 min,  0.005 sec
     gradient                   ...        0 min,  0.011 sec
 * total energy  :   -42.1666960 Eh     change       -0.1705303E-12 Eh
   gradient norm :     0.0484007 Eh/α   predicted     0.0000000E+00 (-100.00%)
   displ. norm   :     0.4808825 α      lambda       -0.1265561E-01
   maximum displ.:     0.2719713 α      in ANC's #12, #10, #8, ...

........................................................................
.............................. CYCLE    2 ..............................
........................................................................

 iter      E             dE          RMSdq      gap      omega  full diag
   1    -42.6930942 -0.426931E+02  0.193E-01    0.25       0.0  T
   2    -42.6931138 -0.195683E-04  0.121E-01    0.24       1.0  T
   3    -42.6928246  0.289193E-03  0.957E-02    0.24       1.0  T
   4    -42.6930980 -0.273397E-03  0.420E-02    0.24       1.0  T
   5    -42.6931740 -0.759947E-04  0.812E-03    0.24       2.5  T
   6    -42.6931748 -0.826383E-06  0.389E-03    0.24       5.1  T
   7    -42.6931750 -0.171887E-06  0.200E-03    0.24      10.0  T
   8    -42.6931751 -0.133105E-06  0.487E-04    0.24      41.1  T
   9    -42.6931751 -0.359923E-08  0.203E-04    0.24      98.5  T
     SCC iter.                  ...        0 min,  0.014 sec
     gradient                   ...        0 min,  0.011 sec
 * total energy  :   -42.1769319 Eh     change       -0.1023583E-01 Eh
   gradient norm :     0.0276378 Eh/α   predicted    -0.7791307E-02 ( -23.88%)
   displ. norm   :     0.6096881 α      lambda       -0.9698777E-02
   maximum displ.:     0.3410360 α      in ANC's #10, #12, #8, ...

........................................................................
.............................. CYCLE    3 ..............................
........................................................................

 iter      E             dE          RMSdq      gap      omega  full diag
   1    -42.7095534 -0.427096E+02  0.226E-01    0.27       0.0  T
   2    -42.7095206  0.328391E-04  0.143E-01    0.26       1.0  T
   3    -42.7092616  0.258909E-03  0.124E-01    0.26       1.0  T
   4    -42.7096444 -0.382784E-03  0.562E-02    0.27       1.0  T
   5    -42.7097674 -0.122975E-03  0.101E-02    0.26       2.0  T
   6    -42.7097697 -0.229046E-05  0.644E-03    0.26       3.1  T
   7    -42.7097706 -0.884383E-06  0.144E-03    0.26      13.9  T
   8    -42.7097706 -0.131953E-07  0.662E-04    0.26      30.2  T
   9    -42.7097706 -0.916764E-08  0.302E-04    0.26      66.2  T
     SCC iter.                  ...        0 min,  0.013 sec
     gradient                   ...        0 min,  0.011 sec
 * total energy  :   -42.1837969 Eh     change       -0.6865003E-02 Eh
   gradient norm :     0.0167742 Eh/α   predicted    -0.6652260E-02 (  -3.10%)
   displ. norm   :     0.4822744 α      lambda       -0.3559785E-02
   maximum displ.:     0.2691332 α      in ANC's #10, #8, #12, ...

........................................................................
.............................. CYCLE    4 ..............................
........................................................................

 iter      E             dE          RMSdq      gap      omega  full diag
   1    -42.7128035 -0.427128E+02  0.153E-01    0.30       0.0  T
   2    -42.7127107  0.927990E-04  0.108E-01    0.29       1.0  T
   3    -42.7127969 -0.862151E-04  0.821E-02    0.30       1.0  T
   4    -42.7129438 -0.146884E-03  0.382E-02    0.30       1.0  T
   5    -42.7129929 -0.490877E-04  0.101E-02    0.30       2.0  T
   6    -42.7129966 -0.376175E-05  0.365E-03    0.30       5.5  T
   7    -42.7129968 -0.135402E-06  0.116E-03    0.30      17.2  T
   8    -42.7129968 -0.746464E-08  0.390E-04    0.30      51.3  T
   9    -42.7129968 -0.362893E-08  0.176E-04    0.30     113.6  T
     SCC iter.                  ...        0 min,  0.013 sec
     gradient                   ...        0 min,  0.011 sec
 * total energy  :   -42.1863191 Eh     change       -0.2522205E-02 Eh
   gradient norm :     0.0168082 Eh/α   predicted    -0.2193877E-02 ( -13.02%)
   displ. norm   :     0.3641543 α      lambda       -0.1561704E-02
   maximum displ.:     0.1992860 α      in ANC's #10, #3, #8, ...

........................................................................
.............................. CYCLE    5 ..............................
........................................................................

 iter      E             dE          RMSdq      gap      omega  full diag
   1    -42.7133148 -0.427133E+02  0.111E-01    0.34       0.0  T
   2    -42.7132671  0.477276E-04  0.786E-02    0.34       1.0  T
   3    -42.7133033 -0.361767E-04  0.606E-02    0.34       1.0  T
   4    -42.7133922 -0.888731E-04  0.245E-02    0.34       1.0  T
   5    -42.7134122 -0.200077E-04  0.793E-03    0.34       2.5  T
   6    -42.7134145 -0.228313E-05  0.239E-03    0.34       8.4  T
   7    -42.7134145 -0.431025E-07  0.935E-04    0.34      21.4  T
   8    -42.7134145 -0.820152E-08  0.261E-04    0.34      76.5  T
     SCC iter.                  ...        0 min,  0.012 sec
     gradient                   ...        0 min,  0.011 sec
 * total energy  :   -42.1873600 Eh     change       -0.1040943E-02 Eh
   gradient norm :     0.0104939 Eh/α   predicted    -0.8844008E-03 ( -15.04%)
   displ. norm   :     0.1994193 α      lambda       -0.4807728E-03
   maximum displ.:     0.1074162 α      in ANC's #3, #1, #10, ...

........................................................................
.............................. CYCLE    6 ..............................
........................................................................

 iter      E             dE          RMSdq      gap      omega  full diag
   1    -42.7143027 -0.427143E+02  0.680E-02    0.37       0.0  T
   2    -42.7143034 -0.755818E-06  0.420E-02    0.38       1.0  T
   3    -42.7142814  0.220190E-04  0.339E-02    0.37       1.0  T
   4    -42.7143186 -0.372407E-04  0.729E-03    0.37       2.7  T
   5    -42.7143201 -0.147577E-05  0.425E-03    0.37       4.7  T
   6    -42.7143207 -0.598982E-06  0.151E-03    0.37      13.2  T
   7    -42.7143207 -0.360761E-07  0.719E-04    0.37      27.8  T
   8    -42.7143208 -0.107274E-07  0.226E-04    0.37      88.5  T
     SCC iter.                  ...        0 min,  0.012 sec
     gradient                   ...        0 min,  0.011 sec
 * total energy  :   -42.1876754 Eh     change       -0.3153961E-03 Eh
   gradient norm :     0.0057311 Eh/α   predicted    -0.2499606E-03 ( -20.75%)
   displ. norm   :     0.1313211 α      lambda       -0.1798947E-03
   maximum displ.:     0.0808958 α      in ANC's #1, #3, #2, ...

   *** GEOMETRY OPTIMIZATION CONVERGED AFTER 6 ITERATIONS ***

------------------------------------------------------------------------
 total energy gain   :        -0.0209794 Eh      -13.1648 kcal/mol
 total RMSD          :         0.4096334 a0        0.2168 Å
 total power (kW/mol):        -9.1802260 (step) -313.9759 (real)
------------------------------------------------------------------------

 ANCopt (total)                0 d,  0 h,  0 min,  0.175 sec
 optimizer setup                ...        0 min,  0.000 sec (  0.218%)
 model hessian                  ...        0 min,  0.006 sec (  3.240%)
 ANC generation                 ...        0 min,  0.001 sec (  0.563%)
 coordinate transformation      ...        0 min,  0.000 sec (  0.038%)
 single point calculation       ...        0 min,  0.166 sec ( 94.389%)
 optimization log               ...        0 min,  0.002 sec (  1.039%)
 hessian update                 ...        0 min,  0.000 sec (  0.038%)
 rational function              ...        0 min,  0.000 sec (  0.241%)

================
 final structure:
================
25
 xtb: 6.6.1 (8d0f1dd)
C            3.58852879162100        1.50703554716946        0.11349284179233
N            2.16543190655489       -0.54869287199131       -0.07887102780014
C            3.27376298676538        0.07596434894347       -0.05903062169215
N            0.55463996682878       -2.76867551921453        0.01636217229174
C            0.06487452000202       -1.58756862743651        0.00601267928689
C            0.84763538612484       -0.36405672128525       -0.03480860958511
C            0.15924591531607        0.92074555306040       -0.06953513549323
O            0.73388207441219        1.99619990997200       -0.11791220131656
N           -1.22359645222718        0.86694389390483       -0.03498632678144
C           -1.96279262325675        2.11531543231502       -0.05055103263835
C           -1.98929250490074       -0.28715549399175        0.00770264931289
O           -3.19527495537675       -0.23014488575222        0.02853721315357
N           -1.30557689091816       -1.48522132642614        0.02390684207299
C           -2.07664118980977       -2.70824515022151        0.04358753338361
H            4.22120420869185        1.64130823630979        0.99321589818066
H            4.17685118522522        1.83668872569065       -0.74805269835306
H            2.69248730033154        2.12133904428429        0.20030234267992
H            4.13942941585880       -0.57679933577264       -0.18576738599034
H           -1.25127011283144        2.94031702229782       -0.07350584178387
H           -2.61218605374900        2.15348269730642       -0.92797469067394
H           -2.59456523872180        2.18462262849752        0.83767653031857
H           -1.81468023048183       -3.29868659278090        0.92384891677926
H           -1.84766652921814       -3.30501469216917       -0.84193439707884
H           -3.13620698733124       -2.45174351109766        0.06121776685285
H            1.55220762518843       -2.92971977001302       -0.00176179901874

 Bond Distances (Angstroems)
 ---------------------------
C1-C3=1.4754         C1-H15=1.0919        C1-H16=1.0941        C1-H17=1.0899        N2-C3=1.2724         N2-C6=1.3314         
C3-C1=1.4754         C3-N2=1.2724         C3-H18=1.0916        N4-C5=1.2787         N4-H25=1.0106        C5-N4=1.2787         
C5-C6=1.4531         C5-N13=1.3744        C6-N2=1.3314         C6-C5=1.4531         C6-C7=1.4580         C7-C6=1.4580         
C7-O8=1.2203         C7-N9=1.3843         O8-C7=1.2203         N9-C7=1.3843         N9-C10=1.4509        N9-C11=1.3857        
C10-N9=1.4509        C10-H19=1.0897       C10-H20=1.0923       C10-H21=1.0922       C11-N9=1.3857        C11-O12=1.2075       
C11-N13=1.3795       O12-C11=1.2075       N13-C5=1.3744        N13-C11=1.3795       N13-C14=1.4459       C14-N13=1.4459       
C14-H22=1.0918       C14-H23=1.0921       C14-H24=1.0903       H15-C1=1.0919        H16-C1=1.0941        H17-C1=1.0899        
H18-C3=1.0916        H19-C10=1.0897       H20-C10=1.0923       H21-C10=1.0922       H22-C14=1.0918       H23-C14=1.0921       
H24-C14=1.0903       H25-N4=1.0106        
 C  H  Rav=1.0916 sigma=0.0013  Rmin=1.0897  Rmax=1.0941    10
 C  C  Rav=1.4622 sigma=0.0096  Rmin=1.4531  Rmax=1.4754     3
 N  H  Rav=1.0106 sigma=0.0000  Rmin=1.0106  Rmax=1.0106     1
 N  C  Rav=1.3670 sigma=0.0598  Rmin=1.2724  Rmax=1.4509     9
 O  C  Rav=1.2139 sigma=0.0064  Rmin=1.2075  Rmax=1.2203     2

 selected bond angles (degree)
 --------------------
H15-C1-C3=109.70               H16-C1-C3=108.35               H16-C1-H15=106.61              H17-C1-C3=112.37               
H17-C1-H15=110.05              H17-C1-H16=109.57              C6-N2-C3=142.52                N2-C3-C1=131.59                
H18-C3-C1=115.11               H18-C3-N2=113.29               H25-N4-C5=121.68               C6-C5-N4=124.87                
N13-C5-N4=116.78               N13-C5-C6=118.35               C5-C6-N2=114.67                C7-C6-N2=126.07                
C7-C6-C5=119.23                O8-C7-C6=123.73                N9-C7-C6=115.90                N9-C7-O8=120.37                
C10-N9-C7=118.37               C11-N9-C7=125.81               C11-N9-C10=115.81              H19-C10-N9=108.60              
H20-C10-N9=109.97              H20-C10-H19=110.17             H21-C10-N9=109.91              H21-C10-H19=110.29             
H21-C10-H20=107.89             

 selected dihedral angles (degree)
 ---------------------------------
N2-C3-C1-H15=120.17           N2-C3-C1-H16=236.19           N2-C3-C1-H17=357.40           H18-C3-C1-H15=300.72          
H18-C3-C1-H16= 56.74          H18-C3-C1-H17=177.95          C1-C3-N2-C6=  3.91            H18-C3-N2-C6=183.36           
C6-C5-N4-H25=  0.15           N13-C5-N4-H25=179.58          C5-C6-N2-C3=184.85            C7-C6-N2-C3=  7.02            
N2-C6-C5-N4=  0.79            N2-C6-C5-N13=181.37           C7-C6-C5-N4=178.78            C7-C6-C5-N13=359.36           
O8-C7-C6-N2=358.48            O8-C7-C6-C5=180.74            N9-C7-C6-N2=178.91            N9-C7-C6-C5=  1.17            
C10-N9-C7-C6=179.26           C10-N9-C7-O8=359.68           C11-N9-C7-C6=358.93           C11-N9-C7-O8=179.35           
H19-C10-N9-C7=359.11          H19-C10-N9-C11=179.40         H20-C10-N9-C7=119.74          H20-C10-N9-C11=300.03         
H21-C10-N9-C7=238.37          H21-C10-N9-C11= 58.67         
           -------------------------------------------------
          |                Final Singlepoint                |
           -------------------------------------------------

          ...................................................
          :                      SETUP                      :
          :.................................................:
          :  # basis functions                  67          :
          :  # atomic orbitals                  67          :
          :  # shells                           39          :
          :  # electrons                        74          :
          :  max. iterations                   250          :
          :  Hamiltonian                  GFN2-xTB          :
          :  restarted?                      false          :
          :  GBSA solvation                  false          :
          :  PC potential                    false          :
          :  electronic temp.         7500.0000000     K    :
          :  accuracy                    1.0000000          :
          :  -> integral cutoff          0.2500000E+02      :
          :  -> integral neglect         0.1000000E-07      :
          :  -> SCF convergence          0.1000000E-05 Eh   :
          :  -> wf. convergence          0.1000000E-03 e    :
          :  Broyden damping             0.4000000          :
          ...................................................

 iter      E             dE          RMSdq      gap      omega  full diag
   1    -42.7143208 -0.427143E+02  0.105E-04    0.37       0.0  T
   2    -42.7143208  0.855707E-10  0.931E-05    0.37     214.8  T
   3    -42.7143208 -0.275108E-09  0.488E-05    0.37     409.9  T

   *** convergence criteria satisfied after 3 iterations ***

         #    Occupation            Energy/Eh            Energy/eV
      -------------------------------------------------------------
         1        2.0000           -0.8961833             -24.3864
       ...           ...                  ...                  ...
        31        1.9690           -0.6214097             -16.9094
        32        1.9222           -0.5989870             -16.2993
        33        1.8855           -0.5893504             -16.0370
        34        1.8722           -0.5865723             -15.9614
        35        1.8009           -0.5751288             -15.6501
        36        1.7614           -0.5703058             -15.5188
        37        1.5406           -0.5515617             -15.0088 (HOMO)
        38        1.3053           -0.5377998             -14.6343 (LUMO)
        39        0.0386           -0.4295224             -11.6879
        40        0.0120           -0.4014832             -10.9249
        41        0.0040           -0.3751576             -10.2086
        42        0.0001           -0.2884709              -7.8497
       ...           ...                  ...                  ...
        67                          0.5635430              15.3348
      -------------------------------------------------------------
                  HL-Gap            0.0137620 Eh            0.3745 eV
             Fermi-level           -0.5228215 Eh          -14.2267 eV

 SCC (total)                   0 d,  0 h,  0 min,  0.021 sec
 SCC setup                      ...        0 min,  0.000 sec (  0.852%)
 Dispersion                     ...        0 min,  0.000 sec (  0.904%)
 classical contributions        ...        0 min,  0.000 sec (  0.353%)
 integral evaluation            ...        0 min,  0.004 sec ( 20.617%)
 iterations                     ...        0 min,  0.005 sec ( 23.501%)
 molecular gradient             ...        0 min,  0.011 sec ( 53.048%)
 printout                       ...        0 min,  0.000 sec (  0.663%)

         :::::::::::::::::::::::::::::::::::::::::::::::::::::
         ::                     SUMMARY                     ::
         :::::::::::::::::::::::::::::::::::::::::::::::::::::
         :: total energy             -42.187675424139 Eh    ::
         :: gradient norm              0.005732110328 Eh/a0 ::
         :: HOMO-LUMO gap              0.374481887236 eV    ::
         ::.................................................::
         :: SCC energy               -42.714320752619 Eh    ::
         :: -> isotropic ES            0.133349294173 Eh    ::
         :: -> anisotropic ES         -0.010347683127 Eh    ::
         :: -> anisotropic XC          0.018039321191 Eh    ::
         :: -> dispersion             -0.021539681766 Eh    ::
         :: repulsion energy           0.526571706139 Eh    ::
         :: add. restraining           0.000000000000 Eh    ::
         :: total charge               1.000000000230 e     ::
         :::::::::::::::::::::::::::::::::::::::::::::::::::::

           -------------------------------------------------
          |                Property Printout                |
           -------------------------------------------------

    * Orbital Energies and Occupations

         #    Occupation            Energy/Eh            Energy/eV
      -------------------------------------------------------------
         1        2.0000           -0.8961833             -24.3864
       ...           ...                  ...                  ...
        25        1.9960           -0.6706033             -18.2480
        26        1.9916           -0.6527536             -17.7623
        27        1.9880           -0.6442700             -17.5315
        28        1.9769           -0.6284591             -17.1012
        29        1.9759           -0.6274777             -17.0745
        30        1.9753           -0.6269171             -17.0593
        31        1.9690           -0.6214097             -16.9094
        32        1.9222           -0.5989870             -16.2993
        33        1.8855           -0.5893504             -16.0370
        34        1.8722           -0.5865723             -15.9614
        35        1.8009           -0.5751288             -15.6501
        36        1.7614           -0.5703058             -15.5188
        37        1.5406           -0.5515617             -15.0088 (HOMO)
        38        1.3053           -0.5377998             -14.6343 (LUMO)
        39        0.0386           -0.4295224             -11.6879
        40        0.0120           -0.4014832             -10.9249
        41        0.0040           -0.3751576             -10.2086
        42        0.0001           -0.2884709              -7.8497
        43        0.0000           -0.1955130              -5.3202
        44        0.0000           -0.1417861              -3.8582
        45                         -0.1021467              -2.7796
        46                         -0.0758858              -2.0650
        47                         -0.0335343              -0.9125
        48                         -0.0327943              -0.8924
       ...                                ...                  ...
        67                          0.5635430              15.3348
      -------------------------------------------------------------
                  HL-Gap            0.0137620 Eh            0.3745 eV
             Fermi-level           -0.5228215 Eh          -14.2267 eV

     #   Z          covCN         q      C6AA      α(0)
     1   6 C        3.752    -0.132    23.101     6.854
     2   7 N        1.837    -0.086    23.669     7.210
     3   6 C        2.820     0.087    26.063     8.365
     4   7 N        1.795    -0.237    27.021     7.700
     5   6 C        2.840     0.163    24.474     8.107
     6   6 C        2.889     0.026    27.422     8.585
     7   6 C        2.766     0.265    22.522     7.772
     8   8 O        0.859    -0.341    20.530     6.075
     9   7 N        2.741    -0.059    22.382     7.026
    10   6 C        3.707    -0.060    21.799     6.674
    11   6 C        2.720     0.319    21.585     7.606
    12   8 O        0.860    -0.329    20.308     6.042
    13   7 N        2.757    -0.025    21.731     6.923
    14   6 C        3.706    -0.074    22.060     6.714
    15   1 H        0.924     0.129     1.540     1.941
    16   1 H        0.924     0.132     1.522     1.929
    17   1 H        0.925     0.140     1.460     1.890
    18   1 H        0.924     0.119     1.618     1.989
    19   1 H        0.925     0.127     1.557     1.951
    20   1 H        0.924     0.121     1.605     1.981
    21   1 H        0.924     0.121     1.607     1.982
    22   1 H        0.924     0.125     1.575     1.963
    23   1 H        0.924     0.124     1.580     1.966
    24   1 H        0.924     0.133     1.510     1.922
    25   1 H        0.860     0.210     1.055     1.609

 Mol. C6AA /au·bohr⁶  :       6509.056360
 Mol. C8AA /au·bohr⁸  :     149844.536797
 Mol. α(0) /au        :        122.776573


Wiberg/Mayer (AO) data.
largest (>0.10) Wiberg bond orders for each atom

 ---------------------------------------------------------------------------
     #   Z sym  total        # sym  WBO       # sym  WBO       # sym  WBO
 ---------------------------------------------------------------------------
     1   6 C    3.803 --     3 C    1.045    17 H    0.914    15 H    0.905
                            16 H    0.902
     2   7 N    3.034 --     3 C    1.627     6 C    1.285
     3   6 C    3.699 --     2 N    1.627     1 C    1.045    18 H    0.906
     4   7 N    2.687 --     5 C    1.605    25 H    0.917
     5   6 C    3.911 --     4 N    1.605    13 N    1.132     6 C    1.079
     6   6 C    3.579 --     2 N    1.285     5 C    1.079     7 C    1.051
     7   6 C    3.869 --     8 O    1.612     9 N    1.110     6 C    1.051
     8   8 O    1.874 --     7 C    1.612     9 N    0.105
     9   7 N    3.453 --     7 C    1.110    11 C    1.094    10 C    0.980
                             8 O    0.105    12 O    0.102
    10   6 C    3.841 --     9 N    0.980    19 H    0.949    21 H    0.937
                            20 H    0.936
    11   6 C    3.941 --    12 O    1.653    13 N    1.111     9 N    1.094
    12   8 O    1.936 --    11 C    1.653    13 N    0.105     9 N    0.102
    13   7 N    3.473 --     5 C    1.132    11 C    1.111    14 C    0.983
                            12 O    0.105
    14   6 C    3.842 --    13 N    0.983    24 H    0.948    22 H    0.935
                            23 H    0.934
    15   1 H    0.945 --     1 C    0.905
    16   1 H    0.942 --     1 C    0.902
    17   1 H    0.946 --     1 C    0.914
    18   1 H    0.932 --     3 C    0.906
    19   1 H    0.968 --    10 C    0.949
    20   1 H    0.951 --    10 C    0.936
    21   1 H    0.952 --    10 C    0.937
    22   1 H    0.951 --    14 C    0.935
    23   1 H    0.950 --    14 C    0.934
    24   1 H    0.966 --    14 C    0.948
    25   1 H    0.941 --     4 N    0.917
 ---------------------------------------------------------------------------

Topologies differ in total number of bonds
Writing topology from bond orders to xtbtopo.mol

molecular dipole:
                 x           y           z       tot (Debye)
 q only:        1.397      -0.632       0.062
   full:        1.737      -0.426       0.052       4.547
molecular quadrupole (traceless):
                xx          xy          yy          xz          yz          zz
 q only:       18.014       6.632       3.517       0.573       0.351     -21.531
  q+dip:       18.868       4.756      -0.971       0.603       0.524     -17.897
   full:       17.270       4.920      -1.776       0.712       0.471     -15.494

           -------------------------------------------------
          |                Geometry Summary                 |
           -------------------------------------------------

      molecular mass/u    :      195.1988581
   center of mass at/Å    :       -0.0526082      -0.1562017      -0.0140346
  moments of inertia/u·Å² :        0.4598094E+03   0.8606035E+03   0.1309740E+04
rotational constants/cm⁻¹ :        0.3666222E-01   0.1958815E-01   0.1287097E-01

 * 22 selected distances

     #   Z          #   Z                                           value/Å
     1   6 C        3   6 C                                       1.4754006 (max)
     2   7 N        3   6 C                                       1.2723947
     4   7 N        5   6 C                                       1.2786677
     2   7 N        6   6 C                                       1.3313978
     7   6 C        8   8 O                                       1.2203071
     7   6 C        9   7 N                                       1.3843199
     9   7 N       10   6 C                                       1.4508911
     9   7 N       11   6 C                                       1.3856618
    11   6 C       12   8 O                                       1.2075091
     5   6 C       13   7 N                                       1.3743844
    11   6 C       13   7 N                                       1.3795259
    13   7 N       14   6 C                                       1.4459305
     1   6 C       15   1 H                                       1.0918884
     1   6 C       16   1 H                                       1.0941003
     1   6 C       17   1 H                                       1.0898602
     3   6 C       18   1 H                                       1.0915774
    10   6 C       19   1 H                                       1.0896876 (min)
    10   6 C       20   1 H                                       1.0922642
    10   6 C       21   1 H                                       1.0921944
    14   6 C       22   1 H                                       1.0918356
    14   6 C       23   1 H                                       1.0921138
    14   6 C       24   1 H                                       1.0903136

 * 4 distinct bonds (by element types)

   Z      Z             #   av. dist./Å        max./Å        min./Å
   1 H    6 C          10     1.0915835     1.0941003     1.0896876
   6 C    6 C           1     1.4754006     1.4754006     1.4754006
   6 C    7 N           9     1.3670193     1.4508911     1.2723947
   6 C    8 O           2     1.2139081     1.2203071     1.2075091


optimized geometry written to: xtbopt.xyz


           -------------------------------------------------
          | TOTAL ENERGY              -42.187675424139 Eh   |
          | GRADIENT NORM               0.005732110328 Eh/α |
          | HOMO-LUMO GAP               0.374481887236 eV   |
           -------------------------------------------------

------------------------------------------------------------------------
 * finished run on 2024/06/05 at 19:58:42.802     
------------------------------------------------------------------------
 total:
 * wall-time:     0 d,  0 h,  0 min,  0.261 sec
 *  cpu-time:     0 d,  0 h,  0 min,  0.232 sec
 * ratio c/w:     0.887 speedup
 SCF:
 * wall-time:     0 d,  0 h,  0 min,  0.023 sec
 *  cpu-time:     0 d,  0 h,  0 min,  0.023 sec
 * ratio c/w:     0.994 speedup
 ANC optimizer:
 * wall-time:     0 d,  0 h,  0 min,  0.203 sec
 *  cpu-time:     0 d,  0 h,  0 min,  0.195 sec
 * ratio c/w:     0.964 speedup

