25
 energy: -42.200945192415 gnorm: 0.077517195382 xtb: 6.6.1 (8d0f1dd)
C            3.15624048078014        1.96412613251845        0.00006936112437
N            2.68786707389577        0.60794594597442        0.12293254185650
C            3.42175276489488       -0.48100063994423        0.28003277226897
N            2.63832754166820       -1.57115948331150        0.33332957466862
C            1.33803489424012       -1.16544174248481        0.20104211838573
C            1.37340443803640        0.21766666714557        0.06923500234303
C            0.14693784549277        0.94509301463481       -0.06033421723274
O            0.02473441571256        2.14299033236254       -0.14250988490082
N           -0.97986837351543        0.07040020337151       -0.08191702796099
C           -2.24099872139712        0.79143923173065       -0.23392580352209
C           -0.93623263026934       -1.30013889955305        0.04406980920697
O           -2.04867330961844       -2.02559990541097        0.02529355707657
N            0.27044477317405       -1.93135704576506        0.19805908137739
C           -3.60538784681532       -1.83166053315279       -0.13237532493495
H            3.79855636113854        2.22348104234939        0.84047368302446
H            3.72083437981514        2.08640037922027       -0.92502076865201
H            2.29272199946061        2.62821094721691       -0.01858395698850
H            4.49298787099392       -0.49519598038276        0.35417950593494
H           -1.98807858817748        1.83146852719119       -0.44023131004583
H           -2.81388139566478        0.40154809697605       -1.06828215365981
H           -2.81331953137140        0.76125114443239        0.69074022443972
H           -3.93660335935127       -2.82886284236670        0.13474130829029
H           -3.81005867916815       -1.60770689013577       -1.17097150158211
H           -3.96710472883308       -1.08618695299494        0.56277292362139
H            2.93779383897199       -2.52947220801824        0.44835210376255
25
 energy: -42.213714102884 gnorm: 0.045815701899 xtb: 6.6.1 (8d0f1dd)
C            3.15007456221239        1.95441272429472        0.00151729916751
N            2.67223388142989        0.59952005851038        0.12216675973627
C            3.39797158787704       -0.49436383285308        0.27925175193231
N            2.60546441212291       -1.58035582783536        0.33080178520144
C            1.30279876508596       -1.16869468090036        0.19735301390845
C            1.35520381438986        0.21605937760433        0.06725675079425
C            0.13601211988345        0.95509582374973       -0.06399244721781
O            0.02386682740003        2.15384092212611       -0.14797317260233
N           -0.99559999184650        0.08866631924358       -0.08475496260271
C           -2.25475536316800        0.80628486832440       -0.23660468217827
C           -0.95119358159229       -1.27842976787937        0.04130847803979
O           -2.01375715375189       -2.03973957061401        0.03179847287395
N            0.21495625737695       -1.92124163230318        0.19090722966278
C           -3.50599006592672       -1.83597934760808       -0.12243423694969
H            3.79375247862796        2.21162358583353        0.84215493594364
H            3.71630911956543        2.07790925091323       -0.92260757982525
H            2.29107809954346        2.62433917764684       -0.01696930851019
H            4.47013212593262       -0.51231304391853        0.35464650339689
H           -1.99912771702262        1.84548227318089       -0.44206119569392
H           -2.82423665011025        0.41286232293283       -1.07182326948190
H           -2.82507392747669        0.77180211577873        0.68910521189820
H           -3.87568067006227       -2.82427990584031        0.13561175966125
H           -3.73734304059766       -1.60954251492112       -1.15738576381758
H           -3.89072971204347       -1.09575004802513        0.56757246874415
H            2.90406533624371       -2.53897010583742        0.44632581582043
25
 energy: -42.219629815461 gnorm: 0.016345166535 xtb: 6.6.1 (8d0f1dd)
C            3.14039782609487        1.94007750556027        0.00385116595495
N            2.65423198797966        0.58738002441687        0.12147876976121
C            3.37246479242773       -0.51186449181769        0.27858965122509
N            2.57256616733489       -1.59199075044303        0.32824136377847
C            1.27219503709929       -1.17217472154517        0.19438251687048
C            1.33556997928839        0.21154885132059        0.06519303230712
C            0.12233033388310        0.96613849117453       -0.06959638703601
O            0.02341163163759        2.16540843009215       -0.15732812947264
N           -1.01783730922086        0.11549267088869       -0.08980201855112
C           -2.27332179665839        0.83813239886977       -0.24143438382560
C           -0.96853609390565       -1.24969864518759        0.03729775824379
O           -1.98198660312518       -2.05828001430822        0.04009812281598
N            0.16132548569633       -1.90343389446715        0.18356326902392
C           -3.38222200612047       -1.85801077111581       -0.10779500546152
H            3.78542169137714        2.19117676592783        0.84565364861057
H            3.70844506857994        2.06211857486807       -0.91941967392924
H            2.28618319861026        2.61638088502857       -0.01405821332240
H            4.44441686936188       -0.53448326800575        0.35525504734386
H           -2.01481276161362        1.87651327004939       -0.44555301330585
H           -2.84340893204156        0.44835006190895       -1.07777652671942
H           -2.84538320947635        0.80497276703943        0.68306007726248
H           -3.81391512686908       -2.83272713319455        0.13400493368261
H           -3.65009261176467       -1.61896797280448       -1.13752425889653
H           -3.79725417416775       -1.12282633647590        0.57656352366050
H            2.87024206968576       -2.55099415617642        0.44422634788093
25
 energy: -42.220069071827 gnorm: 0.005889975931 xtb: 6.6.1 (8d0f1dd)
C            3.13835303243398        1.93610394957441        0.00572177458236
N            2.65167468225322        0.58496472518224        0.12115797485552
C            3.36997332133955       -0.51491738697906        0.27826529300835
N            2.57099304276056       -1.59397932448466        0.32751527458341
C            1.27558355908708       -1.17094281000788        0.19400017307195
C            1.33304247115497        0.21145657151922        0.06372713929187
C            0.11907852586409        0.96786009174657       -0.07382425417788
O            0.02378232691836        2.16717363431106       -0.16477762559541
N           -1.02409205728556        0.12100823349972       -0.09150356081121
C           -2.27833373631695        0.85194094668034       -0.24417573407906
C           -0.96677361147970       -1.24537854775357        0.03884558978785
O           -1.97620927957311       -2.06572738425449        0.04457560911504
N            0.16867918216159       -1.89957350849537        0.18411239277129
C           -3.37790953192775       -1.86974913992325       -0.10458003174953
H            3.78281117870621        2.18262097618893        0.84900706842099
H            3.70651410865210        2.05656151248776       -0.91743403401555
H            2.28433111162929        2.61247523621649       -0.01138472353835
H            4.44097256199946       -0.53988073438163        0.35566179664467
H           -2.01632373630630        1.89007335878607       -0.44871534082776
H           -2.85363837193023        0.46910937819539       -1.08045485772435
H           -2.85402572038552        0.82632899124641        0.67850410934226
H           -3.80049189087706       -2.84780594708563        0.12994423401333
H           -3.63681809107690       -1.61978870521821       -1.13430808382806
H           -3.78603788766542       -1.13758761867190        0.58777912146536
H            2.86529632395731       -2.55410795677558        0.44351231329453
