25
 energy: -42.108097995234 gnorm: 0.033794998462 xtb: 6.6.1 (8d0f1dd)
C            3.02799608579655        0.63237367577858        0.13043526973910
N            2.42155569641562       -0.69838904333292       -0.03525806892283
C            3.39864065071014       -1.75514619890145       -0.08525807236117
N            3.39536717353777       -3.00300246656502       -0.13766092737622
C           -0.06805303730636       -0.10457265406880       -0.05166665658586
C            1.11100832096667       -0.73523578327323       -0.07402075393706
C           -0.51122197571795        1.42814101119764       -0.08999496076873
O            0.24500189634484        2.35429027937000       -0.12310089612995
N           -1.85433605162934        1.38366842636085       -0.03716957488010
C           -2.70721065424379        2.55042893366182       -0.04215741450614
C           -2.36159945092127        0.08404196630495        0.02092134984703
O           -3.51154985288253       -0.23454778244796        0.06480722182205
N           -1.26918190098549       -0.77257217588228        0.02001812189766
C           -1.42816157088472       -2.19841458362605        0.07047578453963
H            3.56494132294931        0.68582199845770        1.07873336104187
H            3.71840404486600        0.82035712774005       -0.69347766009363
H            2.25664917888015        1.40411965760825        0.11529213871669
H            4.38431356941403       -1.29768405083818       -0.04844585637536
H           -2.08182667997160        3.44055276283027       -0.05591335261651
H           -3.35259207098144        2.53244464461773       -0.92129163921235
H           -3.33490907771577        2.54712612753729        0.85012146062787
H           -0.96645386081232       -2.60513628100087        0.97214304964901
H           -0.97161822872229       -2.66279034273696       -0.80566967928066
H           -2.49668757705068       -2.41368559030496        0.08271525804321
H            2.55195556404521       -3.56395111689139       -0.17340588497825
25
 energy: -42.113257060698 gnorm: 0.022470941566 xtb: 6.6.1 (8d0f1dd)
C            3.02256140632475        0.66014782002492        0.13578704255058
N            2.41805468009457       -0.66746748923560       -0.03260304181341
C            3.37575392991581       -1.71939673793465       -0.09020116522099
N            3.31833253868359       -2.95797345636796       -0.14690957820153
C           -0.06596710164086       -0.13192931680356       -0.04852065079536
C            1.11442692555616       -0.73899461572361       -0.06617594015748
C           -0.47673870312069        1.38637214495511       -0.09203254514230
O            0.28953516359672        2.30442057708797       -0.12803341454279
N           -1.82571182522168        1.36411028284041       -0.04055943404976
C           -2.67555589230532        2.53727652082038       -0.04508419326508
C           -2.35183514197269        0.07214737186345        0.02022052874826
O           -3.50593288939685       -0.23208885486245        0.06525986141995
N           -1.26831592528930       -0.79379231447386        0.02146732092183
C           -1.43361697528685       -2.21710518768253        0.07328524624388
H            3.56276043100861        0.70522834390795        1.08243496101134
H            3.71258070736360        0.84480936711259       -0.68891511953494
H            2.25077984068379        1.42991253642422        0.12367478439895
H            4.37601578231451       -1.29246269482700       -0.05485597397587
H           -2.05315489077616        3.42927750619838       -0.05882017577195
H           -3.32510894039088        2.52241039376364       -0.92207514955250
H           -3.30723640455108        2.53673476572247        0.84513002808514
H           -0.97260288522256       -2.62155098637444        0.97604757265464
H           -0.97644179413947       -2.68043209742130       -0.80283152765554
H           -2.50296594488601       -2.42601910515434        0.08452901400771
H            2.46081542275896       -3.49539623226512       -0.17904683246339
25
 energy: -42.117397308524 gnorm: 0.013476055894 xtb: 6.6.1 (8d0f1dd)
C            3.02201270118506        0.70710567540723        0.14686439404351
N            2.42260211961619       -0.61745440444673       -0.02761126015983
C            3.34848699029156       -1.67003299297934       -0.09657778716075
N            3.19951430996149       -2.90335332137496       -0.16287446989792
C           -0.06679765513009       -0.16958799710375       -0.04447605610603
C            1.12543431382215       -0.74486116872262       -0.05817264344556
C           -0.43433744666938        1.32593448209708       -0.09596543281998
O            0.34050099074751        2.23968137770011       -0.13894670458449
N           -1.79050901853326        1.33765167584688       -0.04611515383534
C           -2.63053726247928        2.51873596738497       -0.05032840711903
C           -2.34134790524534        0.05624901123082        0.02025067775858
O           -3.50084586605238       -0.22723255255727        0.06712955275496
N           -1.27125192810553       -0.82502485898554        0.02460843228269
C           -1.44344314866130       -2.24677949889588        0.07849331045269
H            3.56458920050484        0.74310479181715        1.09205335093753
H            3.71167159427695        0.89034209346698       -0.67783086652265
H            2.25112756206287        1.47589043531609        0.13837754115890
H            4.37227080278339       -1.29478983740176       -0.06866344279247
H           -2.00472670936701        3.40798424096661       -0.06440952977336
H           -3.28170956485722        2.50566065936675       -0.92688461308622
H           -3.26316333039939        2.51959802339459        0.83980822214527
H           -0.98470714349520       -2.65163949900732        0.98213512711586
H           -0.98732334361758       -2.71262450873928       -0.79681095857242
H           -2.51341990912808       -2.44962065286994        0.08883771300869
H            2.31634116058950       -3.39669859931570       -0.19171937788305
25
 energy: -42.118531494449 gnorm: 0.012259637207 xtb: 6.6.1 (8d0f1dd)
C            3.02647859238672        0.73818901125672        0.16036838488957
N            2.42981708796368       -0.58561005070490       -0.02011180218947
C            3.33438614605398       -1.64717192072087       -0.10862745813545
N            3.12619463651103       -2.87413074605606       -0.18529238414304
C           -0.06739286486096       -0.19030661770876       -0.03793375600007
C            1.13514840443333       -0.74994256267612       -0.04375799727568
C           -0.41780864217395        1.29414011125347       -0.10334580900437
O            0.35446103929349        2.21190329279906       -0.15345823606918
N           -1.77537740279183        1.32126042383979       -0.05219813574742
C           -2.60287712379467        2.50787820198845       -0.05685280701993
C           -2.33524334758217        0.04452748603426        0.01992440089224
O           -3.49685887860961       -0.22909891515863        0.06824080491238
N           -1.27175238181521       -0.84586874892119        0.02902388238360
C           -1.44953453244323       -2.26775617803075        0.08529616377309
H            3.57164109862272        0.77115070225545        1.10409006727421
H            3.71453890608567        0.92752395424749       -0.66433310260861
H            2.25654193094135        1.50797076345293        0.15728316945294
H            4.37098113157286       -1.30982183933795       -0.08475324205621
H           -1.96615567784254        3.38948534829982       -0.07210660191960
H           -3.25244847912779        2.49809813742647       -0.93422776330895
H           -3.23264546567465        2.51293726220669        0.83489554223431
H           -0.99497162458635       -2.67522060320021        0.99003266873476
H           -0.99570723590840       -2.73893516670827       -0.78856159983111
H           -2.52035900535501       -2.46749059124215        0.09446522952516
H            2.21937520280181       -3.32547221299948       -0.20688800086337
25
 energy: -42.119010386585 gnorm: 0.008481357467 xtb: 6.6.1 (8d0f1dd)
C            3.03005524711907        0.75355727533728        0.17705445838399
N            2.43411888209812       -0.56854348357889       -0.01171001346860
C            3.32784345164841       -1.63945953031537       -0.12076248859863
N            3.08959297502353       -2.85852201227746       -0.21130926147975
C           -0.06634393413722       -0.20015002897854       -0.03290289401848
C            1.14129190030469       -0.75433867942511       -0.03438995833373
C           -0.41519741216861        1.28061170646523       -0.11036735752067
O            0.35041641562062        2.20453302688218       -0.16980912436339
N           -1.77197540728098        1.31086313096081       -0.05766923379935
C           -2.58743852515109        2.50258955434406       -0.06534104951415
C           -2.33183228883231        0.03540142751290        0.02143813105929
O           -3.49371092568107       -0.23627240068312        0.07058008986933
N           -1.26934863019962       -0.85814923951435        0.03583123826101
C           -1.45185554775411       -2.28010574210138        0.09462193269588
H            3.57639806837634        0.78374608197653        1.12039358906678
H            3.71792008976914        0.95004237934810       -0.64650393755242
H            2.26039255926716        1.52424988639486        0.17835649310545
H            4.36847711473208       -1.32393405902266       -0.10593697684732
H           -1.93801290837679        3.37544094775677       -0.08246367659363
H           -3.23522350081233        2.49826248766834       -0.94350450596385
H           -3.21491256075780        2.51608138035228        0.82744826581234
H           -1.00080526928742       -2.68991264044307        1.00018127841180
H           -1.00108527450751       -2.75628671319195       -0.77834771927482
H           -2.52371439586885       -2.47685592987253        0.10329569307553
H            2.16538139095649       -3.27461028399946       -0.22701135451249
