      -----------------------------------------------------------      
     |                   =====================                   |     
     |                           x T B                           |     
     |                   =====================                   |     
     |                         S. Grimme                         |     
     |          Mulliken Center for Theoretical Chemistry        |     
     |                    University of Bonn                     |     
      -----------------------------------------------------------      

   * xtb version 6.6.1 (8d0f1dd) compiled by 'conda@1efc2f54142f' on 2023-08-01

   xtb is free software: you can redistribute it and/or modify it under
   the terms of the GNU Lesser General Public License as published by
   the Free Software Foundation, either version 3 of the License, or
   (at your option) any later version.
   
   xtb is distributed in the hope that it will be useful,
   but WITHOUT ANY WARRANTY; without even the implied warranty of
   MERCHANTABILITY or FITNESS FOR A PARTICULAR PURPOSE.  See the
   GNU Lesser General Public License for more details.
   
   Cite this work as:
   * C. Bannwarth, E. Caldeweyher, S. Ehlert, A. Hansen, P. Pracht,
     J. Seibert, S. Spicher, S. Grimme, WIREs Comput. Mol. Sci., 2020, 11,
     e01493. DOI: 10.1002/wcms.1493
   
   for GFN2-xTB:
   * C. Bannwarth, S. Ehlert and S. Grimme., J. Chem. Theory Comput., 2019,
     15, 1652-1671. DOI: 10.1021/acs.jctc.8b01176
   for GFN1-xTB:
   * S. Grimme, C. Bannwarth, P. Shushkov, J. Chem. Theory Comput., 2017,
     13, 1989-2009. DOI: 10.1021/acs.jctc.7b00118
   for GFN0-xTB:
   * P. Pracht, E. Caldeweyher, S. Ehlert, S. Grimme, ChemRxiv, 2019, preprint.
     DOI: 10.26434/chemrxiv.8326202.v1
   for GFN-FF:
   * S. Spicher and S. Grimme, Angew. Chem. Int. Ed., 2020, 59, 15665-15673.
     DOI: 10.1002/anie.202004239
   
   for ALPB and GBSA implicit solvation:
   * S. Ehlert, M. Stahn, S. Spicher, S. Grimme, J. Chem. Theory Comput.,
     2021, 17, 4250-4261. DOI: 10.1021/acs.jctc.1c00471
   
   for DFT-D4:
   * E. Caldeweyher, C. Bannwarth and S. Grimme, J. Chem. Phys., 2017,
     147, 034112. DOI: 10.1063/1.4993215
   * E. Caldeweyher, S. Ehlert, A. Hansen, H. Neugebauer, S. Spicher,
     C. Bannwarth and S. Grimme, J. Chem. Phys., 2019, 150, 154122.
     DOI: 10.1063/1.5090222
   * E. Caldeweyher, J.-M. Mewes, S. Ehlert and S. Grimme, Phys. Chem. Chem. Phys.
     2020, 22, 8499-8512. DOI: 10.1039/D0CP00502A
   
   for sTDA-xTB:
   * S. Grimme and C. Bannwarth, J. Chem. Phys., 2016, 145, 054103.
     DOI: 10.1063/1.4959605
   
   in the mass-spec context:
   * V. Asgeirsson, C. Bauer and S. Grimme, Chem. Sci., 2017, 8, 4879.
     DOI: 10.1039/c7sc00601b
   * J. Koopman and S. Grimme, ACS Omega 2019, 4, 12, 15120-15133.
     DOI: 10.1021/acsomega.9b02011
   
   for metadynamics refer to:
   * S. Grimme, J. Chem. Theory Comput., 2019, 155, 2847-2862
     DOI: 10.1021/acs.jctc.9b00143
   
   for SPH calculations refer to:
   * S. Spicher and S. Grimme, J. Chem. Theory Comput., 2021, 17, 1701-1714
     DOI: 10.1021/acs.jctc.0c01306
   
   with help from (in alphabetical order)
   P. Atkinson, C. Bannwarth, F. Bohle, G. Brandenburg, E. Caldeweyher
   M. Checinski, S. Dohm, S. Ehlert, S. Ehrlich, I. Gerasimov, C. Hölzer
   A. Katbashev, J. Koopman, C. Lavigne, S. Lehtola, F. März, M. Müller,
   F. Musil, H. Neugebauer, J. Pisarek, C. Plett, P. Pracht, F. Pultar,
   J. Seibert, P. Shushkov, S. Spicher, M. Stahn, M. Steiner, T. Strunk,
   J. Stückrath, T. Rose, and J. Unsleber
   
 * started run on 2024/06/05 at 19:57:51.715     

           -------------------------------------------------
          |                Calculation Setup                |
           -------------------------------------------------

          program call               : xtb struc.xyz --opt loose --input .xc1 --gfn2
          hostname                   : n-62-21-71
          coordinate file            : struc.xyz
          omp threads                :                     1

   ID    Z sym.   atoms
    1    6 C      1, 3, 5-7, 10, 11, 14
    2    7 N      2, 4, 9, 13
    3    8 O      8, 12
    4    1 H      15-25
constraining bond 1 4 to    5.9200000 Å, actual value:    3.5856227 Å

           -------------------------------------------------
          |                 G F N 2 - x T B                 |
           -------------------------------------------------

        Reference                      10.1021/acs.jctc.8b01176
      * Hamiltonian:
        H0-scaling (s, p, d)           1.850000    2.230000    2.230000
        zeta-weighting                 0.500000
      * Dispersion:
        s8                             2.700000
        a1                             0.520000
        a2                             5.000000
        s9                             5.000000
      * Repulsion:
        kExp                           1.500000    1.000000
        rExp                           1.000000
      * Coulomb:
        alpha                          2.000000
        third order                    shell-resolved
        anisotropic                    true
        a3                             3.000000
        a5                             4.000000
        cn-shift                       1.200000
        cn-exp                         4.000000
        max-rad                        5.000000


          ...................................................
          :                      SETUP                      :
          :.................................................:
          :  # basis functions                  67          :
          :  # atomic orbitals                  67          :
          :  # shells                           39          :
          :  # electrons                        74          :
          :  max. iterations                   250          :
          :  Hamiltonian                  GFN2-xTB          :
          :  restarted?                      false          :
          :  GBSA solvation                  false          :
          :  PC potential                    false          :
          :  electronic temp.         2500.0000000     K    :
          :  accuracy                    1.0000000          :
          :  -> integral cutoff          0.2500000E+02      :
          :  -> integral neglect         0.1000000E-07      :
          :  -> SCF convergence          0.1000000E-05 Eh   :
          :  -> wf. convergence          0.1000000E-03 e    :
          :  Broyden damping             0.4000000          :
          ...................................................

 iter      E             dE          RMSdq      gap      omega  full diag
   1    -42.5894761 -0.425895E+02  0.446E+00    3.52       0.0  T
   2    -42.7660496 -0.176573E+00  0.253E+00    3.37       1.0  T
   3    -42.7736311 -0.758158E-02  0.147E+00    3.27       1.0  T
   4    -42.7712089  0.242228E-02  0.522E-01    3.20       1.0  T
   5    -42.7763755 -0.516665E-02  0.115E-01    3.24       1.0  T
   6    -42.7764786 -0.103096E-03  0.599E-02    3.22       1.0  T
   7    -42.7764977 -0.190557E-04  0.265E-02    3.24       1.0  T
   8    -42.7765022 -0.458752E-05  0.826E-03    3.24       2.4  T
   9    -42.7765028 -0.511866E-06  0.435E-03    3.24       4.6  T
  10    -42.7765028 -0.741126E-07  0.110E-03    3.24      18.2  T
  11    -42.7765028 -0.615289E-08  0.514E-04    3.24      38.9  T
  12    -42.7765028 -0.131732E-08  0.162E-04    3.24     123.6  T

   *** convergence criteria satisfied after 12 iterations ***

         #    Occupation            Energy/Eh            Energy/eV
      -------------------------------------------------------------
         1        2.0000           -0.9218663             -25.0853
       ...           ...                  ...                  ...
        31        2.0000           -0.6245728             -16.9955
        32        2.0000           -0.6188521             -16.8398
        33        2.0000           -0.5946289             -16.1807
        34        1.9999           -0.5766508             -15.6915
        35        1.9996           -0.5616187             -15.2824
        36        1.9994           -0.5584494             -15.1962
        37        1.9993           -0.5575820             -15.1726 (HOMO)
        38        0.0017           -0.4385664             -11.9340 (LUMO)
        39        0.0000           -0.4059970             -11.0477
        40        0.0000           -0.3720875             -10.1250
        41                         -0.2883077              -7.8453
        42                         -0.2064013              -5.6165
       ...                                ...                  ...
        67                          0.5638960              15.3444
      -------------------------------------------------------------
                  HL-Gap            0.1190156 Eh            3.2386 eV
             Fermi-level           -0.4943591 Eh          -13.4522 eV

 SCC (total)                   0 d,  0 h,  0 min,  0.042 sec
 SCC setup                      ...        0 min,  0.000 sec (  0.671%)
 Dispersion                     ...        0 min,  0.000 sec (  0.854%)
 classical contributions        ...        0 min,  0.000 sec (  0.210%)
 integral evaluation            ...        0 min,  0.007 sec ( 15.671%)
 iterations                     ...        0 min,  0.020 sec ( 47.084%)
 molecular gradient             ...        0 min,  0.015 sec ( 35.037%)
 printout                       ...        0 min,  0.000 sec (  0.434%)

         :::::::::::::::::::::::::::::::::::::::::::::::::::::
         ::                     SUMMARY                     ::
         :::::::::::::::::::::::::::::::::::::::::::::::::::::
         :: total energy             -32.515352711874 Eh    ::
         :: gradient norm              6.238621701575 Eh/a0 ::
         :: HOMO-LUMO gap              3.238579380711 eV    ::
         ::.................................................::
         :: SCC energy               -42.776502838750 Eh    ::
         :: -> isotropic ES            0.143394945287 Eh    ::
         :: -> anisotropic ES         -0.005231236584 Eh    ::
         :: -> anisotropic XC          0.012162721064 Eh    ::
         :: -> dispersion             -0.022660936007 Eh    ::
         :: repulsion energy           0.531105277918 Eh    ::
         :: add. restraining           9.729930689949 Eh    ::
         :: total charge               1.000000000000 e     ::
         :::::::::::::::::::::::::::::::::::::::::::::::::::::

      ----------------------------------------------------------- 
     |                   =====================                   |
     |                        A N C O P T                        |
     |                   =====================                   |
     |               Approximate Normal Coordinate               |
     |                Rational Function Optimizer                |
      ----------------------------------------------------------- 

          ...................................................
          :                      SETUP                      :
          :.................................................:
          :   optimization level             loose          :
          :   max. optcycles                   200          :
          :   ANC micro-cycles                  20          :
          :   degrees of freedom                69          :
          :.................................................:
          :   RF solver                   davidson          :
          :   write xtbopt.log                true          :
          :   linear?                        false          :
          :   energy convergence         0.5000000E-04 Eh   :
          :   grad. convergence          0.4000000E-02 Eh/α :
          :   maxmium RF displ.          1.0000000          :
          :   Hlow (freq-cutoff)         0.1000000E-01      :
          :   Hmax (freq-cutoff)         5.0000000          :
          :   S6 in model hess.         20.0000000          :
          ...................................................

generating ANC from model Hessian ...
Using Lindh-Hessian (1995)
 Shifting diagonal of input Hessian by   0.87422155913012889     
 Lowest  eigenvalues of input Hessian
    0.010000    0.323824    0.000000    0.000000    0.000000    0.000000
    0.000000    0.000000    0.878191    0.879806    0.883932    0.885413
    0.885485    0.888096    0.889424    0.895975    0.899228    0.904236
 Highest eigenvalues
    2.964849    2.977844    3.101122    3.282426    3.413236    4.280964


........................................................................
.............................. CYCLE    1 ..............................
........................................................................

 iter      E             dE          RMSdq      gap      omega  full diag
   1    -42.7765028 -0.427765E+02  0.540E-05    3.24       0.0  T
   2    -42.7765028 -0.643041E-11  0.289E-05    3.24     692.1  T
   3    -42.7765028  0.881073E-12  0.138E-05    3.24    1448.6  T
     SCC iter.                  ...        0 min,  0.006 sec
     gradient                   ...        0 min,  0.015 sec
 * total energy  :   -32.5153527 Eh     change       -0.6633627E-10 Eh
   gradient norm :     6.2386214 Eh/α   predicted     0.0000000E+00 (-100.00%)
   displ. norm   :     0.7387479 α      lambda       -0.4582244E+01
   maximum displ.:     0.6503116 α      in ANC's #69, #60, #63, ...

........................................................................
.............................. CYCLE    2 ..............................
........................................................................

 iter      E             dE          RMSdq      gap      omega  full diag
   1    -42.6884886 -0.426885E+02  0.127E+00    2.23       0.0  T
   2    -42.6972434 -0.875485E-02  0.743E-01    2.77       1.0  T
   3    -42.6978019 -0.558489E-03  0.462E-01    2.48       1.0  T
   4    -42.6994321 -0.163015E-02  0.275E-01    2.65       1.0  T
   5    -42.7005296 -0.109756E-02  0.360E-02    2.59       1.0  T
   6    -42.7005303 -0.696437E-06  0.229E-02    2.59       1.0  T
   7    -42.7005347 -0.436343E-05  0.522E-03    2.59       3.8  T
   8    -42.7005351 -0.389249E-06  0.138E-03    2.59      14.5  T
   9    -42.7005351 -0.613815E-08  0.803E-04    2.59      24.9  T
  10    -42.7005351 -0.405082E-08  0.189E-04    2.59     105.9  T
     SCC iter.                  ...        0 min,  0.016 sec
     gradient                   ...        0 min,  0.015 sec
 * total energy  :   -36.4162973 Eh     change       -0.3900945E+01 Eh
   gradient norm :     4.3814727 Eh/α   predicted    -0.3541529E+01 (  -9.21%)
   displ. norm   :     0.7810525 α      lambda       -0.3378706E+01
   maximum displ.:     0.6484995 α      in ANC's #69, #60, #46, ...

........................................................................
.............................. CYCLE    3 ..............................
........................................................................

 iter      E             dE          RMSdq      gap      omega  full diag
   1    -42.5062068 -0.425062E+02  0.131E+00    1.67       0.0  T
   2    -42.5045081  0.169868E-02  0.912E-01    1.03       1.0  T
   3    -42.5221458 -0.176377E-01  0.650E-01    1.77       1.0  T
   4    -42.5275735 -0.542772E-02  0.270E-01    1.47       1.0  T
   5    -42.5272866  0.286918E-03  0.157E-01    1.37       1.0  T
   6    -42.5280367 -0.750096E-03  0.339E-02    1.44       1.0  T
   7    -42.5280511 -0.144335E-04  0.157E-02    1.43       1.3  T
   8    -42.5280511  0.924652E-07  0.813E-03    1.44       2.5  T
   9    -42.5280523 -0.119660E-05  0.250E-03    1.44       8.0  T
  10    -42.5280524 -0.165880E-06  0.768E-04    1.43      26.0  T
  11    -42.5280524  0.465803E-09  0.398E-04    1.43      50.3  T
     SCC iter.                  ...        0 min,  0.017 sec
     gradient                   ...        0 min,  0.015 sec
 * total energy  :   -39.2147540 Eh     change       -0.2798457E+01 Eh
   gradient norm :     2.8951949 Eh/α   predicted    -0.2719939E+01 (  -2.81%)
   displ. norm   :     0.8007027 α      lambda       -0.2263788E+01
   maximum displ.:     0.5698484 α      in ANC's #69, #60, #46, ...

........................................................................
.............................. CYCLE    4 ..............................
........................................................................

 iter      E             dE          RMSdq      gap      omega  full diag
   1    -42.2428516 -0.422429E+02  0.146E+00    0.21       0.0  T
   2    -42.1277832  0.115068E+00  0.252E+00    2.38       1.0  T
   3    -42.2850671 -0.157284E+00  0.138E+00    1.36       1.0  T
   4    -42.3385221 -0.534550E-01  0.472E-01    0.77       1.0  T
   5    -42.3375351  0.987034E-03  0.374E-01    0.60       1.0  T
   6    -42.3350323  0.250280E-02  0.358E-01    0.57       1.0  T
   7    -42.3412886 -0.625634E-02  0.758E-02    0.65       1.0  T
   8    -42.3414282 -0.139639E-03  0.285E-02    0.68       1.0  T
   9    -42.3414195  0.876594E-05  0.289E-02    0.68       1.0  T
  10    -42.3414561 -0.366106E-04  0.627E-03    0.67       3.2  T
  11    -42.3414567 -0.650594E-06  0.334E-03    0.68       6.0  T
  12    -42.3414571 -0.414194E-06  0.661E-04    0.67      30.2  T
  13    -42.3414571  0.855650E-07  0.146E-03    0.68      13.7  T
  14    -42.3414571 -0.890756E-07  0.213E-04    0.67      93.9  T
     SCC iter.                  ...        0 min,  0.022 sec
     gradient                   ...        0 min,  0.014 sec
 * total energy  :   -40.9668171 Eh     change       -0.1752063E+01 Eh
   gradient norm :     1.6574074 Eh/α   predicted    -0.1857629E+01 (   6.03%)
   displ. norm   :     0.6224715 α      lambda       -0.1021902E+01
   maximum displ.:     0.5334187 α      in ANC's #69, #60, #64, ...

........................................................................
.............................. CYCLE    5 ..............................
........................................................................

 iter      E             dE          RMSdq      gap      omega  full diag
   1    -42.1696215 -0.421696E+02  0.127E+00    0.19       0.0  T
   2    -41.9365384  0.233083E+00  0.240E+00    1.21       1.0  T
   3    -42.1990559 -0.262517E+00  0.615E-01    0.39       1.0  T
   4    -42.1973760  0.167988E-02  0.575E-01    0.59       1.0  T
   5    -42.2071032 -0.972713E-02  0.210E-01    0.49       1.0  T
   6    -42.2046175  0.248569E-02  0.297E-01    0.52       1.0  T
   7    -42.2081839 -0.356643E-02  0.740E-02    0.46       1.0  T
   8    -42.2083270 -0.143109E-03  0.209E-02    0.48       1.0  T
   9    -42.2083384 -0.113359E-04  0.101E-02    0.48       2.0  T
  10    -42.2083391 -0.793972E-06  0.390E-03    0.48       5.1  T
  11    -42.2083395 -0.342198E-06  0.142E-03    0.48      14.1  T
  12    -42.2083395 -0.492168E-07  0.593E-04    0.48      33.7  T
  13    -42.2083395 -0.600964E-08  0.254E-04    0.48      78.7  T
     SCC iter.                  ...        0 min,  0.020 sec
     gradient                   ...        0 min,  0.014 sec
 * total energy  :   -41.6352347 Eh     change       -0.6684175E+00 Eh
   gradient norm :     0.5158420 Eh/α   predicted    -0.7089301E+00 (   6.06%)
   displ. norm   :     0.3252426 α      lambda       -0.1588646E+00
   maximum displ.:     0.2185949 α      in ANC's #69, #19, #2, ...

........................................................................
.............................. CYCLE    6 ..............................
........................................................................

 iter      E             dE          RMSdq      gap      omega  full diag
   1    -42.1764432 -0.421764E+02  0.572E-01    0.30       0.0  T
   2    -42.0537007  0.122742E+00  0.157E+00    1.05       1.0  T
   3    -42.1695632 -0.115863E+00  0.588E-01    0.25       1.0  T
   4    -42.1809799 -0.114166E-01  0.262E-01    0.40       1.0  T
   5    -42.1823032 -0.132335E-02  0.208E-01    0.41       1.0  T
   6    -42.1835042 -0.120097E-02  0.863E-02    0.43       1.0  T
   7    -42.1836266 -0.122378E-03  0.579E-02    0.42       1.0  T
   8    -42.1837350 -0.108385E-03  0.209E-02    0.42       1.0  T
   9    -42.1837530 -0.179965E-04  0.427E-03    0.41       4.7  T
  10    -42.1837527  0.225806E-06  0.339E-03    0.41       5.9  T
  11    -42.1837532 -0.461622E-06  0.121E-03    0.41      16.5  T
  12    -42.1837532  0.167707E-07  0.885E-04    0.41      22.6  T
  13    -42.1837532 -0.315356E-07  0.302E-04    0.41      66.3  T
     SCC iter.                  ...        0 min,  0.020 sec
     gradient                   ...        0 min,  0.014 sec
 * total energy  :   -41.7308717 Eh     change       -0.9563700E-01 Eh
   gradient norm :     0.1960248 Eh/α   predicted    -0.8783478E-01 (  -8.16%)
   displ. norm   :     0.2244137 α      lambda       -0.3853210E-01
   maximum displ.:     0.1070202 α      in ANC's #19, #18, #22, ...

........................................................................
.............................. CYCLE    7 ..............................
........................................................................

 iter      E             dE          RMSdq      gap      omega  full diag
   1    -42.2158974 -0.422159E+02  0.310E-01    0.35       0.0  T
   2    -42.1877973  0.281001E-01  0.838E-01    0.66       1.0  T
   3    -42.2121733 -0.243760E-01  0.357E-01    0.30       1.0  T
   4    -42.2140308 -0.185750E-02  0.294E-01    0.44       1.0  T
   5    -42.2177475 -0.371671E-02  0.654E-02    0.40       1.0  T
   6    -42.2177097  0.377588E-04  0.471E-02    0.39       1.0  T
   7    -42.2177847 -0.749347E-04  0.131E-02    0.39       1.5  T
   8    -42.2177873 -0.262485E-05  0.862E-03    0.40       2.3  T
   9    -42.2177895 -0.216215E-05  0.298E-03    0.40       6.7  T
  10    -42.2177897 -0.201371E-06  0.172E-03    0.40      11.6  T
  11    -42.2177898 -0.889059E-07  0.517E-04    0.40      38.7  T
  12    -42.2177898 -0.537316E-08  0.160E-04    0.40     124.9  T
     SCC iter.                  ...        0 min,  0.018 sec
     gradient                   ...        0 min,  0.013 sec
 * total energy  :   -41.7645478 Eh     change       -0.3367606E-01 Eh
   gradient norm :     0.2098756 Eh/α   predicted    -0.2023699E-01 ( -39.91%)
   displ. norm   :     0.6278969 α      lambda       -0.9655807E-01
   maximum displ.:     0.3152313 α      in ANC's #19, #18, #22, ...

........................................................................
.............................. CYCLE    8 ..............................
........................................................................

 iter      E             dE          RMSdq      gap      omega  full diag
   1    -42.3325437 -0.423325E+02  0.791E-01    0.36       0.0  T
   2    -42.3119813  0.205624E-01  0.893E-01    0.53       1.0  T
   3    -42.3142638 -0.228247E-02  0.892E-01    0.17       1.0  T
   4    -42.2894952  0.247686E-01  0.108E+00    0.73       1.0  T
   5    -42.3379704 -0.484752E-01  0.248E-01    0.34       1.0  T
   6    -42.3391661 -0.119567E-02  0.106E-01    0.38       1.0  T
   7    -42.3395125 -0.346392E-03  0.357E-02    0.38       1.0  T
   8    -42.3395479 -0.354678E-04  0.115E-02    0.38       1.7  T
   9    -42.3395452  0.277089E-05  0.114E-02    0.38       1.8  T
  10    -42.3395502 -0.503180E-05  0.274E-03    0.38       7.3  T
  11    -42.3395504 -0.179570E-06  0.798E-04    0.38      25.1  T
  12    -42.3395504 -0.972234E-08  0.422E-04    0.38      47.4  T
     SCC iter.                  ...        0 min,  0.016 sec
     gradient                   ...        0 min,  0.013 sec
 * total energy  :   -41.8368249 Eh     change       -0.7227717E-01 Eh
   gradient norm :     0.2069742 Eh/α   predicted    -0.6731456E-01 (  -6.87%)
   displ. norm   :     0.4710254 α      lambda       -0.4824419E-01
   maximum displ.:     0.2354068 α      in ANC's #19, #18, #22, ...

........................................................................
.............................. CYCLE    9 ..............................
........................................................................

 iter      E             dE          RMSdq      gap      omega  full diag
   1    -42.4190078 -0.424190E+02  0.594E-01    0.45       0.0  T
   2    -42.2823963  0.136612E+00  0.191E+00    0.08       1.0  T
   3    -42.4116289 -0.129233E+00  0.595E-01    0.56       1.0  T
   4    -42.4194658 -0.783689E-02  0.293E-01    0.39       1.0  T
   5    -42.4220281 -0.256227E-02  0.150E-01    0.39       1.0  T
   6    -42.4225621 -0.534009E-03  0.683E-02    0.37       1.0  T
   7    -42.4226446 -0.825374E-04  0.422E-02    0.37       1.0  T
   8    -42.4226791 -0.344908E-04  0.228E-02    0.38       1.0  T
   9    -42.4226950 -0.159226E-04  0.729E-03    0.38       2.7  T
  10    -42.4226967 -0.170146E-05  0.295E-03    0.38       6.8  T
  11    -42.4226971 -0.306453E-06  0.571E-04    0.38      35.0  T
  12    -42.4226971 -0.607830E-08  0.156E-04    0.38     128.3  T
     SCC iter.                  ...        0 min,  0.016 sec
     gradient                   ...        0 min,  0.013 sec
 * total energy  :   -41.8686707 Eh     change       -0.3184574E-01 Eh
   gradient norm :     0.1641169 Eh/α   predicted    -0.2947423E-01 (  -7.45%)
   displ. norm   :     0.2941296 α      lambda       -0.2759680E-01
   maximum displ.:     0.1280795 α      in ANC's #42, #18, #19, ...

........................................................................
.............................. CYCLE   10 ..............................
........................................................................

 iter      E             dE          RMSdq      gap      omega  full diag
   1    -42.4520577 -0.424521E+02  0.507E-01    0.49       0.0  T
   2    -42.2172817  0.234776E+00  0.256E+00    0.28       1.0  T
   3    -42.4494988 -0.232217E+00  0.494E-01    0.52       1.0  T
   4    -42.4549038 -0.540497E-02  0.271E-01    0.44       1.0  T
   5    -42.4561318 -0.122802E-02  0.144E-01    0.41       1.0  T
   6    -42.4568769 -0.745010E-03  0.396E-02    0.39       1.0  T
   7    -42.4569206 -0.437902E-04  0.180E-02    0.39       1.1  T
   8    -42.4569286 -0.796356E-05  0.592E-03    0.39       3.4  T
   9    -42.4569292 -0.601637E-06  0.291E-03    0.39       6.9  T
  10    -42.4569294 -0.230499E-06  0.887E-04    0.39      22.5  T
  11    -42.4569294 -0.813736E-08  0.390E-04    0.39      51.3  T
     SCC iter.                  ...        0 min,  0.015 sec
     gradient                   ...        0 min,  0.013 sec
 * total energy  :   -41.8916393 Eh     change       -0.2296864E-01 Eh
   gradient norm :     0.1424865 Eh/α   predicted    -0.1499210E-01 ( -34.73%)
   displ. norm   :     0.5165070 α      lambda       -0.4656149E-01
   maximum displ.:     0.2646702 α      in ANC's #42, #18, #19, ...

........................................................................
.............................. CYCLE   11 ..............................
........................................................................

 iter      E             dE          RMSdq      gap      omega  full diag
   1    -42.4727613 -0.424728E+02  0.902E-01    0.59       0.0  T
   2    -41.9979046  0.474857E+00  0.376E+00    0.46       1.0  T
   3    -42.4611701 -0.463265E+00  0.934E-01    0.68       1.0  T
   4    -42.4782978 -0.171277E-01  0.553E-01    0.52       1.0  T
   5    -42.4853367 -0.703892E-02  0.223E-01    0.44       1.0  T
   6    -42.4870437 -0.170700E-02  0.527E-02    0.42       1.0  T
   7    -42.4870728 -0.291438E-04  0.384E-02    0.41       1.0  T
   8    -42.4871130 -0.401953E-04  0.807E-03    0.40       2.5  T
   9    -42.4871146 -0.156820E-05  0.162E-03    0.41      12.3  T
  10    -42.4871146 -0.381084E-07  0.918E-04    0.41      21.8  T
  11    -42.4871146 -0.106068E-07  0.422E-04    0.41      47.3  T
     SCC iter.                  ...        0 min,  0.015 sec
     gradient                   ...        0 min,  0.013 sec
 * total energy  :   -41.9232976 Eh     change       -0.3165826E-01 Eh
   gradient norm :     0.1629152 Eh/α   predicted    -0.2949155E-01 (  -6.84%)
   displ. norm   :     0.6269420 α      lambda       -0.3116135E-01
   maximum displ.:     0.4360128 α      in ANC's #1, #42, #18, ...

........................................................................
.............................. CYCLE   12 ..............................
........................................................................

 iter      E             dE          RMSdq      gap      omega  full diag
   1    -42.4807021 -0.424807E+02  0.820E-01    0.58       0.0  T
   2    -42.0439047  0.436797E+00  0.356E+00    0.35       1.0  T
   3    -42.4682418 -0.424337E+00  0.873E-01    0.69       1.0  T
   4    -42.4848105 -0.165687E-01  0.422E-01    0.51       1.0  T
   5    -42.4899337 -0.512317E-02  0.139E-01    0.47       1.0  T
   6    -42.4904148 -0.481080E-03  0.676E-02    0.45       1.0  T
   7    -42.4905573 -0.142490E-03  0.153E-02    0.43       1.3  T
   8    -42.4905220  0.352366E-04  0.300E-02    0.42       1.0  T
   9    -42.4905576 -0.355731E-04  0.812E-03    0.43       2.5  T
  10    -42.4905598 -0.223440E-05  0.122E-03    0.43      16.4  T
  11    -42.4905599 -0.286570E-07  0.454E-04    0.43      44.1  T
  12    -42.4905599  0.105035E-08  0.293E-04    0.43      68.3  T
     SCC iter.                  ...        0 min,  0.016 sec
     gradient                   ...        0 min,  0.013 sec
 * total energy  :   -41.9341130 Eh     change       -0.1081544E-01 Eh
   gradient norm :     0.1869228 Eh/α   predicted    -0.2170471E-01 ( 100.68%)
   displ. norm   :     0.5832594 α      lambda       -0.3574744E-01
   maximum displ.:     0.3848704 α      in ANC's #1, #42, #18, ...

........................................................................
.............................. CYCLE   13 ..............................
........................................................................

 iter      E             dE          RMSdq      gap      omega  full diag
   1    -42.4948270 -0.424948E+02  0.740E-01    0.56       0.0  T
   2    -42.1176481  0.377179E+00  0.323E+00    0.25       1.0  T
   3    -42.4711471 -0.353499E+00  0.101E+00    0.79       1.0  T
   4    -42.4871912 -0.160441E-01  0.681E-01    0.60       1.0  T
   5    -42.4985249 -0.113337E-01  0.350E-01    0.55       1.0  T
   6    -42.5014544 -0.292958E-02  0.192E-01    0.51       1.0  T
   7    -42.5026544 -0.119994E-02  0.659E-02    0.47       1.0  T
   8    -42.5027940 -0.139625E-03  0.177E-02    0.46       1.1  T
   9    -42.5027944 -0.384446E-06  0.130E-02    0.46       1.5  T
  10    -42.5027999 -0.551416E-05  0.287E-03    0.46       7.0  T
  11    -42.5028002 -0.253344E-06  0.876E-04    0.46      22.8  T
  12    -42.5028002 -0.221839E-07  0.245E-04    0.46      81.5  T
     SCC iter.                  ...        0 min,  0.016 sec
     gradient                   ...        0 min,  0.013 sec
 * total energy  :   -41.9556770 Eh     change       -0.2156399E-01 Eh
   gradient norm :     0.1306044 Eh/α   predicted    -0.2395420E-01 (  11.08%)
   displ. norm   :     0.2214966 α      lambda       -0.1704450E-01
   maximum displ.:     0.1013415 α      in ANC's #1, #18, #10, ...

........................................................................
.............................. CYCLE   14 ..............................
........................................................................

 iter      E             dE          RMSdq      gap      omega  full diag
   1    -42.5155191 -0.425155E+02  0.307E-01    0.46       0.0  T
   2    -42.5102397  0.527934E-02  0.479E-01    0.48       1.0  T
   3    -42.5120323 -0.179262E-02  0.405E-01    0.60       1.0  T
   4    -42.5155210 -0.348864E-02  0.255E-01    0.41       1.0  T
   5    -42.5175623 -0.204130E-02  0.824E-02    0.50       1.0  T
   6    -42.5176370 -0.746948E-04  0.311E-02    0.49       1.0  T
   7    -42.5176702 -0.332042E-04  0.718E-03    0.48       2.8  T
   8    -42.5176711 -0.896494E-06  0.245E-03    0.48       8.2  T
   9    -42.5176711 -0.341330E-07  0.158E-03    0.49      12.7  T
  10    -42.5176712 -0.680021E-07  0.685E-04    0.49      29.2  T
  11    -42.5176712 -0.116437E-07  0.376E-04    0.49      53.2  T
     SCC iter.                  ...        0 min,  0.015 sec
     gradient                   ...        0 min,  0.013 sec
 * total energy  :   -41.9661124 Eh     change       -0.1043544E-01 Eh
   gradient norm :     0.0876545 Eh/α   predicted    -0.8940397E-02 ( -14.33%)
   displ. norm   :     0.3133909 α      lambda       -0.1078957E-01
   maximum displ.:     0.1288589 α      in ANC's #18, #19, #10, ...

........................................................................
.............................. CYCLE   15 ..............................
........................................................................

 iter      E             dE          RMSdq      gap      omega  full diag
   1    -42.5292509 -0.425293E+02  0.315E-01    0.53       0.0  T
   2    -42.4757811  0.534699E-01  0.119E+00    0.26       1.0  T
   3    -42.5261286 -0.503476E-01  0.393E-01    0.63       1.0  T
   4    -42.5296662 -0.353752E-02  0.184E-01    0.52       1.0  T
   5    -42.5305703 -0.904097E-03  0.529E-02    0.52       1.0  T
   6    -42.5306365 -0.661956E-04  0.165E-02    0.51       1.2  T
   7    -42.5306438 -0.737590E-05  0.570E-03    0.51       3.5  T
   8    -42.5306440 -0.122669E-06  0.236E-03    0.51       8.5  T
   9    -42.5306441 -0.173562E-06  0.805E-04    0.51      24.9  T
  10    -42.5306441 -0.655312E-08  0.547E-04    0.51      36.6  T
     SCC iter.                  ...        0 min,  0.014 sec
     gradient                   ...        0 min,  0.012 sec
 * total energy  :   -41.9744260 Eh     change       -0.8313568E-02 Eh
   gradient norm :     0.0812846 Eh/α   predicted    -0.5924659E-02 ( -28.74%)
   displ. norm   :     0.3800300 α      lambda       -0.1017086E-01
   maximum displ.:     0.1559263 α      in ANC's #18, #19, #10, ...

........................................................................
.............................. CYCLE   16 ..............................
........................................................................

 iter      E             dE          RMSdq      gap      omega  full diag
   1    -42.5421870 -0.425422E+02  0.325E-01    0.53       0.0  T
   2    -42.5361995  0.598750E-02  0.438E-01    0.46       1.0  T
   3    -42.5281494  0.805011E-02  0.636E-01    0.73       1.0  T
   4    -42.5413047 -0.131553E-01  0.209E-01    0.50       1.0  T
   5    -42.5424975 -0.119281E-02  0.503E-02    0.55       1.0  T
   6    -42.5425718 -0.742745E-04  0.181E-02    0.54       1.1  T
   7    -42.5425789 -0.706245E-05  0.791E-03    0.54       2.5  T
   8    -42.5425792 -0.380956E-06  0.449E-03    0.54       4.5  T
   9    -42.5425799 -0.709228E-06  0.765E-04    0.54      26.2  T
  10    -42.5425799  0.155224E-08  0.557E-04    0.54      35.9  T
     SCC iter.                  ...        0 min,  0.014 sec
     gradient                   ...        0 min,  0.012 sec
 * total energy  :   -41.9815780 Eh     change       -0.7151948E-02 Eh
   gradient norm :     0.0552780 Eh/α   predicted    -0.5819931E-02 ( -18.62%)
   displ. norm   :     0.2654991 α      lambda       -0.4670256E-02
   maximum displ.:     0.1152409 α      in ANC's #10, #19, #18, ...

........................................................................
.............................. CYCLE   17 ..............................
........................................................................

 iter      E             dE          RMSdq      gap      omega  full diag
   1    -42.5510572 -0.425511E+02  0.228E-01    0.53       0.0  T
   2    -42.5455108  0.554645E-02  0.419E-01    0.69       1.0  T
   3    -42.5460915 -0.580695E-03  0.384E-01    0.47       1.0  T
   4    -42.5500302 -0.393874E-02  0.183E-01    0.56       1.0  T
   5    -42.5512616 -0.123142E-02  0.322E-02    0.56       1.0  T
   6    -42.5512932 -0.315839E-04  0.122E-02    0.55       1.6  T
   7    -42.5512966 -0.335258E-05  0.512E-03    0.55       3.9  T
   8    -42.5512969 -0.347478E-06  0.170E-03    0.55      11.8  T
   9    -42.5512969 -0.376710E-07  0.744E-04    0.55      26.9  T
  10    -42.5512970 -0.172111E-07  0.310E-04    0.55      64.5  T
     SCC iter.                  ...        0 min,  0.014 sec
     gradient                   ...        0 min,  0.012 sec
 * total energy  :   -41.9848411 Eh     change       -0.3263178E-02 Eh
   gradient norm :     0.0389069 Eh/α   predicted    -0.2499759E-02 ( -23.39%)
   displ. norm   :     0.1806216 α      lambda       -0.2623470E-02
   maximum displ.:     0.0906976 α      in ANC's #10, #19, #12, ...

........................................................................
.............................. CYCLE   18 ..............................
........................................................................

 iter      E             dE          RMSdq      gap      omega  full diag
   1    -42.5591498 -0.425591E+02  0.167E-01    0.53       0.0  T
   2    -42.5488223  0.103275E-01  0.538E-01    0.73       1.0  T
   3    -42.5582549 -0.943265E-02  0.190E-01    0.52       1.0  T
   4    -42.5590456 -0.790697E-03  0.106E-01    0.56       1.0  T
   5    -42.5594282 -0.382552E-03  0.195E-02    0.56       1.0  T
   6    -42.5594381 -0.994311E-05  0.987E-03    0.56       2.0  T
   7    -42.5594404 -0.232456E-05  0.424E-03    0.56       4.7  T
   8    -42.5594407 -0.266145E-06  0.222E-03    0.56       9.0  T
   9    -42.5594408 -0.969086E-07  0.114E-03    0.56      17.5  T
  10    -42.5594408 -0.394993E-07  0.213E-04    0.56      93.7  T
  11    -42.5594408  0.379181E-09  0.183E-04    0.56     109.3  T
     SCC iter.                  ...        0 min,  0.015 sec
     gradient                   ...        0 min,  0.013 sec
 * total energy  :   -41.9867970 Eh     change       -0.1955859E-02 Eh
   gradient norm :     0.0393134 Eh/α   predicted    -0.1354560E-02 ( -30.74%)
   displ. norm   :     0.1849980 α      lambda       -0.2690086E-02
   maximum displ.:     0.1036187 α      in ANC's #10, #12, #15, ...

........................................................................
.............................. CYCLE   19 ..............................
........................................................................

 iter      E             dE          RMSdq      gap      omega  full diag
   1    -42.5673066 -0.425673E+02  0.158E-01    0.54       0.0  T
   2    -42.5581842  0.912244E-02  0.504E-01    0.72       1.0  T
   3    -42.5665007 -0.831654E-02  0.179E-01    0.53       1.0  T
   4    -42.5672187 -0.717960E-03  0.966E-02    0.56       1.0  T
   5    -42.5675386 -0.319889E-03  0.214E-02    0.57       1.0  T
   6    -42.5675497 -0.111092E-04  0.938E-03    0.56       2.1  T
   7    -42.5675520 -0.225599E-05  0.367E-03    0.56       5.4  T
   8    -42.5675522 -0.227463E-06  0.168E-03    0.56      11.9  T
   9    -42.5675522 -0.287022E-07  0.105E-03    0.56      19.0  T
  10    -42.5675522 -0.305553E-07  0.355E-04    0.56      56.3  T
  11    -42.5675523 -0.299095E-08  0.166E-04    0.56     120.4  T
     SCC iter.                  ...        0 min,  0.015 sec
     gradient                   ...        0 min,  0.012 sec
 * total energy  :   -41.9887787 Eh     change       -0.1981735E-02 Eh
   gradient norm :     0.0416309 Eh/α   predicted    -0.1391119E-02 ( -29.80%)
   displ. norm   :     0.1645132 α      lambda       -0.2443246E-02
   maximum displ.:     0.1006507 α      in ANC's #10, #12, #15, ...

........................................................................
.............................. CYCLE   20 ..............................
........................................................................

 iter      E             dE          RMSdq      gap      omega  full diag
   1    -42.5736416 -0.425736E+02  0.121E-01    0.55       0.0  T
   2    -42.5714573  0.218426E-02  0.254E-01    0.63       1.0  T
   3    -42.5723376 -0.880295E-03  0.199E-01    0.51       1.0  T
   4    -42.5735324 -0.119482E-02  0.701E-02    0.56       1.0  T
   5    -42.5737002 -0.167761E-03  0.203E-02    0.56       1.0  T
   6    -42.5737118 -0.116193E-04  0.586E-03    0.56       3.4  T
   7    -42.5737127 -0.843415E-06  0.218E-03    0.56       9.2  T
   8    -42.5737127 -0.531142E-07  0.127E-03    0.56      15.8  T
   9    -42.5737127 -0.167112E-07  0.770E-04    0.56      26.0  T
  10    -42.5737127 -0.130307E-07  0.428E-04    0.56      46.7  T
     SCC iter.                  ...        0 min,  0.014 sec
     gradient                   ...        0 min,  0.012 sec
 * total energy  :   -41.9905459 Eh     change       -0.1767207E-02 Eh
   gradient norm :     0.0385447 Eh/α   predicted    -0.1254693E-02 ( -29.00%)
   displ. norm   :     0.1439921 α      lambda       -0.2078569E-02
   maximum displ.:     0.0898788 α      in ANC's #10, #12, #32, ...
 * RMSD in coord.:     1.0904030 α      energy gain  -0.9475193E+01 Eh

generating ANC from model Hessian ...
Using Lindh-Hessian (1995)
 Shifting diagonal of input Hessian by    9.9988717713864143E-003
 Lowest  eigenvalues of input Hessian
    0.000000    0.000000    0.000000    0.000000    0.000000    0.000000
    0.010000    0.010252    0.010392    0.010579    0.010829    0.011248
    0.012640    0.014553    0.015460    0.017106    0.019748    0.020890
 Highest eigenvalues
    2.010103    2.165912    2.367963    2.518247    2.728566    2.765890


........................................................................
.............................. CYCLE   21 ..............................
........................................................................

 iter      E             dE          RMSdq      gap      omega  full diag
   1    -42.5745817 -0.425746E+02  0.101E-01    0.56       0.0  T
   2    -42.5737967  0.784991E-03  0.158E-01    0.51       1.0  T
   3    -42.5733271  0.469583E-03  0.191E-01    0.60       1.0  T
   4    -42.5745465 -0.121942E-02  0.437E-02    0.55       1.0  T
   5    -42.5746002 -0.536408E-04  0.179E-02    0.55       1.1  T
   6    -42.5746109 -0.107843E-04  0.324E-03    0.55       6.2  T
   7    -42.5746110 -0.911747E-07  0.220E-03    0.55       9.1  T
   8    -42.5746111 -0.850874E-07  0.936E-04    0.55      21.4  T
   9    -42.5746111 -0.225211E-07  0.458E-04    0.55      43.6  T
     SCC iter.                  ...        0 min,  0.012 sec
     gradient                   ...        0 min,  0.012 sec
 * total energy  :   -41.9920795 Eh     change       -0.1533567E-02 Eh
   gradient norm :     0.0331581 Eh/α   predicted     0.0000000E+00 (-100.00%)
   displ. norm   :     0.4023772 α      lambda       -0.6273282E-02
   maximum displ.:     0.2337353 α      in ANC's #7, #15, #11, ...

........................................................................
.............................. CYCLE   22 ..............................
........................................................................

 iter      E             dE          RMSdq      gap      omega  full diag
   1    -42.5696359 -0.425696E+02  0.300E-01    0.58       0.0  T
   2    -42.5245362  0.450996E-01  0.112E+00    0.26       1.0  T
   3    -42.5648643 -0.403281E-01  0.415E-01    0.65       1.0  T
   4    -42.5698985 -0.503425E-02  0.142E-01    0.57       1.0  T
   5    -42.5701386 -0.240046E-03  0.855E-02    0.56       1.0  T
   6    -42.5703539 -0.215337E-03  0.380E-02    0.56       1.0  T
   7    -42.5703997 -0.457308E-04  0.116E-02    0.55       1.7  T
   8    -42.5704016 -0.193859E-05  0.700E-03    0.54       2.9  T
   9    -42.5704031 -0.152733E-05  0.323E-03    0.55       6.2  T
  10    -42.5704034 -0.295340E-06  0.144E-03    0.55      13.9  T
  11    -42.5704035 -0.637419E-07  0.234E-04    0.55      85.6  T
  12    -42.5704035 -0.484398E-09  0.142E-04    0.55     140.7  T
     SCC iter.                  ...        0 min,  0.016 sec
     gradient                   ...        0 min,  0.012 sec
 * total energy  :   -41.9966258 Eh     change       -0.4546315E-02 Eh
   gradient norm :     0.0197448 Eh/α   predicted    -0.3644543E-02 ( -19.84%)
   displ. norm   :     0.5157216 α      lambda       -0.5411343E-02
   maximum displ.:     0.3993963 α      in ANC's #11, #15, #3, ...

........................................................................
.............................. CYCLE   23 ..............................
........................................................................

 iter      E             dE          RMSdq      gap      omega  full diag
   1    -42.5648608 -0.425649E+02  0.381E-01    0.50       0.0  T
   2    -42.5442009  0.206599E-01  0.779E-01    0.76       1.0  T
   3    -42.5585572 -0.143563E-01  0.480E-01    0.41       1.0  T
   4    -42.5647575 -0.620032E-02  0.167E-01    0.56       1.0  T
   5    -42.5652128 -0.455338E-03  0.930E-02    0.55       1.0  T
   6    -42.5655174 -0.304585E-03  0.287E-02    0.54       1.0  T
   7    -42.5655430 -0.255609E-04  0.746E-03    0.53       2.7  T
   8    -42.5655413  0.170142E-05  0.823E-03    0.53       2.4  T
   9    -42.5655437 -0.242280E-05  0.269E-03    0.53       7.4  T
  10    -42.5655439 -0.218577E-06  0.498E-04    0.53      40.1  T
  11    -42.5655439 -0.199186E-09  0.248E-04    0.53      80.6  T
     SCC iter.                  ...        0 min,  0.015 sec
     gradient                   ...        0 min,  0.013 sec
 * total energy  :   -41.9998235 Eh     change       -0.3197661E-02 Eh
   gradient norm :     0.0224561 Eh/α   predicted    -0.3425296E-02 (   7.12%)
   displ. norm   :     0.3429934 α      lambda       -0.1971594E-02
   maximum displ.:     0.2200023 α      in ANC's #11, #7, #3, ...

........................................................................
.............................. CYCLE   24 ..............................
........................................................................

 iter      E             dE          RMSdq      gap      omega  full diag
   1    -42.5665082 -0.425665E+02  0.283E-01    0.55       0.0  T
   2    -42.5543026  0.122056E-01  0.593E-01    0.38       1.0  T
   3    -42.5587091 -0.440655E-02  0.497E-01    0.67       1.0  T
   4    -42.5663591 -0.764998E-02  0.114E-01    0.55       1.0  T
   5    -42.5665863 -0.227247E-03  0.640E-02    0.55       1.0  T
   6    -42.5667305 -0.144197E-03  0.147E-02    0.54       1.4  T
   7    -42.5667362 -0.569031E-05  0.525E-03    0.53       3.8  T
   8    -42.5667356  0.586228E-06  0.589E-03    0.53       3.4  T
   9    -42.5667369 -0.120711E-05  0.166E-03    0.53      12.0  T
  10    -42.5667369 -0.893146E-07  0.292E-04    0.53      68.5  T
  11    -42.5667369 -0.243887E-09  0.234E-04    0.53      85.4  T
     SCC iter.                  ...        0 min,  0.015 sec
     gradient                   ...        0 min,  0.012 sec
 * total energy  :   -42.0012491 Eh     change       -0.1425573E-02 Eh
   gradient norm :     0.0191612 Eh/α   predicted    -0.1101811E-02 ( -22.71%)
   displ. norm   :     0.3706210 α      lambda       -0.1719645E-02
   maximum displ.:     0.2378478 α      in ANC's #11, #3, #6, ...

........................................................................
.............................. CYCLE   25 ..............................
........................................................................

 iter      E             dE          RMSdq      gap      omega  full diag
   1    -42.5714570 -0.425715E+02  0.295E-01    0.55       0.0  T
   2    -42.5640671  0.738998E-02  0.470E-01    0.42       1.0  T
   3    -42.5607737  0.329333E-02  0.574E-01    0.70       1.0  T
   4    -42.5707481 -0.997435E-02  0.148E-01    0.56       1.0  T
   5    -42.5715244 -0.776286E-03  0.529E-02    0.55       1.0  T
   6    -42.5716146 -0.902147E-04  0.120E-02    0.54       1.7  T
   7    -42.5716186 -0.401226E-05  0.306E-03    0.54       6.5  T
   8    -42.5716185  0.809021E-07  0.208E-03    0.54       9.6  T
   9    -42.5716185 -0.459200E-07  0.187E-03    0.54      10.7  T
  10    -42.5716187 -0.102286E-06  0.746E-04    0.54      26.8  T
  11    -42.5716187 -0.953378E-08  0.453E-04    0.54      44.1  T
     SCC iter.                  ...        0 min,  0.015 sec
     gradient                   ...        0 min,  0.012 sec
 * total energy  :   -42.0024612 Eh     change       -0.1212165E-02 Eh
   gradient norm :     0.0161392 Eh/α   predicted    -0.9779479E-03 ( -19.32%)
   displ. norm   :     0.3028837 α      lambda       -0.8640300E-03
   maximum displ.:     0.1870707 α      in ANC's #3, #11, #6, ...

........................................................................
.............................. CYCLE   26 ..............................
........................................................................

 iter      E             dE          RMSdq      gap      omega  full diag
   1    -42.5747797 -0.425748E+02  0.250E-01    0.56       0.0  T
   2    -42.5621422  0.126375E-01  0.593E-01    0.40       1.0  T
   3    -42.5694788 -0.733659E-02  0.424E-01    0.66       1.0  T
   4    -42.5738534 -0.437461E-02  0.176E-01    0.57       1.0  T
   5    -42.5749247 -0.107132E-02  0.521E-02    0.56       1.0  T
   6    -42.5750192 -0.944072E-04  0.768E-03    0.55       2.6  T
   7    -42.5750203 -0.118295E-05  0.370E-03    0.55       5.4  T
   8    -42.5750206 -0.247798E-06  0.215E-03    0.54       9.3  T
   9    -42.5750206 -0.448356E-07  0.164E-03    0.54      12.2  T
  10    -42.5750207 -0.853241E-07  0.545E-04    0.54      36.7  T
  11    -42.5750207 -0.800350E-08  0.220E-04    0.55      90.7  T
     SCC iter.                  ...        0 min,  0.015 sec
     gradient                   ...        0 min,  0.013 sec
 * total energy  :   -42.0030640 Eh     change       -0.6028063E-03 Eh
   gradient norm :     0.0136137 Eh/α   predicted    -0.4716702E-03 ( -21.75%)
   displ. norm   :     0.2488730 α      lambda       -0.4854322E-03
   maximum displ.:     0.1587533 α      in ANC's #3, #11, #6, ...

........................................................................
.............................. CYCLE   27 ..............................
........................................................................

 iter      E             dE          RMSdq      gap      omega  full diag
   1    -42.5763550 -0.425764E+02  0.193E-01    0.56       0.0  T
   2    -42.5711189  0.523612E-02  0.386E-01    0.46       1.0  T
   3    -42.5725386 -0.141975E-02  0.353E-01    0.65       1.0  T
   4    -42.5758678 -0.332922E-02  0.131E-01    0.57       1.0  T
   5    -42.5764550 -0.587139E-03  0.258E-02    0.56       1.0  T
   6    -42.5764757 -0.207253E-04  0.564E-03    0.55       3.5  T
   7    -42.5764766 -0.886102E-06  0.222E-03    0.55       9.0  T
   8    -42.5764766 -0.696394E-08  0.182E-03    0.55      11.0  T
   9    -42.5764767 -0.972824E-07  0.579E-04    0.55      34.5  T
  10    -42.5764767 -0.778483E-08  0.268E-04    0.55      74.7  T
     SCC iter.                  ...        0 min,  0.014 sec
     gradient                   ...        0 min,  0.013 sec
 * total energy  :   -42.0034302 Eh     change       -0.3661227E-03 Eh
   gradient norm :     0.0134496 Eh/α   predicted    -0.2577501E-03 ( -29.60%)
   displ. norm   :     0.2848313 α      lambda       -0.5351102E-03
   maximum displ.:     0.1738869 α      in ANC's #3, #11, #7, ...

........................................................................
.............................. CYCLE   28 ..............................
........................................................................

 iter      E             dE          RMSdq      gap      omega  full diag
   1    -42.5783224 -0.425783E+02  0.211E-01    0.57       0.0  T
   2    -42.5746580  0.366440E-02  0.332E-01    0.48       1.0  T
   3    -42.5725368  0.212113E-02  0.424E-01    0.68       1.0  T
   4    -42.5778310 -0.529414E-02  0.132E-01    0.57       1.0  T
   5    -42.5784133 -0.582291E-03  0.231E-02    0.57       1.0  T
   6    -42.5784290 -0.157379E-04  0.523E-03    0.56       3.8  T
   7    -42.5784296 -0.578307E-06  0.262E-03    0.56       7.6  T
   8    -42.5784296 -0.152583E-07  0.213E-03    0.56       9.4  T
   9    -42.5784297 -0.147305E-06  0.530E-04    0.56      37.7  T
  10    -42.5784297 -0.728841E-08  0.188E-04    0.56     106.5  T
     SCC iter.                  ...        0 min,  0.014 sec
     gradient                   ...        0 min,  0.013 sec
 * total energy  :   -42.0038374 Eh     change       -0.4072459E-03 Eh
   gradient norm :     0.0161739 Eh/α   predicted    -0.2892640E-03 ( -28.97%)
   displ. norm   :     0.3146478 α      lambda       -0.6571216E-03
   maximum displ.:     0.1927001 α      in ANC's #11, #3, #7, ...

........................................................................
.............................. CYCLE   29 ..............................
........................................................................

 iter      E             dE          RMSdq      gap      omega  full diag
   1    -42.5802368 -0.425802E+02  0.251E-01    0.57       0.0  T
   2    -42.5802296  0.723883E-05  0.144E-01    0.59       1.0  T
   3    -42.5762106  0.401904E-02  0.356E-01    0.48       1.0  T
   4    -42.5789968 -0.278628E-02  0.182E-01    0.62       1.0  T
   5    -42.5802648 -0.126792E-02  0.168E-02    0.57       1.2  T
   6    -42.5802731 -0.829846E-05  0.453E-03    0.58       4.4  T
   7    -42.5802730  0.565869E-07  0.291E-03    0.58       6.9  T
   8    -42.5802732 -0.228684E-06  0.522E-04    0.58      38.3  T
   9    -42.5802732 -0.440484E-08  0.297E-04    0.58      67.4  T
     SCC iter.                  ...        0 min,  0.013 sec
     gradient                   ...        0 min,  0.013 sec
 * total energy  :   -42.0043419 Eh     change       -0.5045506E-03 Eh
   gradient norm :     0.0212802 Eh/α   predicted    -0.3611087E-03 ( -28.43%)
   displ. norm   :     0.3388579 α      lambda       -0.8801045E-03
   maximum displ.:     0.2171566 α      in ANC's #11, #3, #4, ...

........................................................................
.............................. CYCLE   30 ..............................
........................................................................

 iter      E             dE          RMSdq      gap      omega  full diag
   1    -42.5827097 -0.425827E+02  0.314E-01    0.59       0.0  T
   2    -42.5803781  0.233160E-02  0.300E-01    0.67       1.0  T
   3    -42.5458878  0.344903E-01  0.103E+00    0.35       1.0  T
   4    -42.5824744 -0.365866E-01  0.908E-02    0.62       1.0  T
   5    -42.5827755 -0.301011E-03  0.253E-02    0.60       1.0  T
   6    -42.5827959 -0.204341E-04  0.816E-03    0.60       2.5  T
   7    -42.5827970 -0.112093E-05  0.288E-03    0.59       6.9  T
   8    -42.5827968  0.218519E-06  0.318E-03    0.59       6.3  T
   9    -42.5827970 -0.212747E-06  0.178E-03    0.59      11.2  T
  10    -42.5827971 -0.107013E-06  0.611E-04    0.59      32.8  T
  11    -42.5827971  0.122420E-07  0.806E-04    0.60      24.8  T
     SCC iter.                  ...        0 min,  0.015 sec
     gradient                   ...        0 min,  0.013 sec
 * total energy  :   -42.0050013 Eh     change       -0.6593442E-03 Eh
   gradient norm :     0.0240150 Eh/α   predicted    -0.4905849E-03 ( -25.60%)
   displ. norm   :     0.3839031 α      lambda       -0.1050381E-02
   maximum displ.:     0.2595609 α      in ANC's #11, #6, #4, ...

........................................................................
.............................. CYCLE   31 ..............................
........................................................................

 iter      E             dE          RMSdq      gap      omega  full diag
   1    -42.5831682 -0.425832E+02  0.475E-01    0.60       0.0  T
   2    -42.5760821  0.708613E-02  0.486E-01    0.74       1.0  T
   3    -42.4964575  0.796246E-01  0.157E+00    0.27       1.0  T
   4    -42.5818147 -0.853573E-01  0.215E-01    0.67       1.0  T
   5    -42.5827694 -0.954685E-03  0.125E-01    0.64       1.0  T
   6    -42.5833289 -0.559503E-03  0.461E-02    0.62       1.0  T
   7    -42.5834068 -0.778951E-04  0.663E-03    0.61       3.0  T
   8    -42.5834052  0.163631E-05  0.832E-03    0.61       2.4  T
   9    -42.5834059 -0.735206E-06  0.665E-03    0.61       3.0  T
  10    -42.5834076 -0.171631E-05  0.115E-03    0.61      17.4  T
  11    -42.5834076 -0.134293E-08  0.980E-04    0.61      20.4  T
  12    -42.5834076 -0.362211E-07  0.266E-04    0.61      75.3  T
     SCC iter.                  ...        0 min,  0.016 sec
     gradient                   ...        0 min,  0.013 sec
 * total energy  :   -42.0058506 Eh     change       -0.8493559E-03 Eh
   gradient norm :     0.0289379 Eh/α   predicted    -0.6025989E-03 ( -29.05%)
   displ. norm   :     0.5384552 α      lambda       -0.1958485E-02
   maximum displ.:     0.3513914 α      in ANC's #6, #11, #4, ...

........................................................................
.............................. CYCLE   32 ..............................
........................................................................

 iter      E             dE          RMSdq      gap      omega  full diag
   1    -42.5859102 -0.425859E+02  0.816E-01    0.64       0.0  T
   2    -42.5834923  0.241796E-02  0.548E-01    0.56       1.0  T
   3    -42.4889018  0.945904E-01  0.159E+00    1.37       1.0  T
   4    -42.5844653 -0.955635E-01  0.250E-01    0.63       1.0  T
   5    -42.5841528  0.312536E-03  0.225E-01    0.70       1.0  T
   6    -42.5862525 -0.209968E-02  0.123E-02    0.64       1.6  T
   7    -42.5862517  0.728383E-06  0.909E-03    0.64       2.2  T
   8    -42.5862535 -0.173678E-05  0.384E-03    0.64       5.2  T
   9    -42.5862538 -0.303414E-06  0.210E-03    0.64       9.5  T
  10    -42.5862539 -0.142507E-06  0.760E-04    0.64      26.3  T
  11    -42.5862539 -0.128315E-08  0.539E-04    0.64      37.1  T
     SCC iter.                  ...        0 min,  0.015 sec
     gradient                   ...        0 min,  0.013 sec
 * total energy  :   -42.0071084 Eh     change       -0.1257721E-02 Eh
   gradient norm :     0.0318888 Eh/α   predicted    -0.1263166E-02 (   0.43%)
   displ. norm   :     0.5102252 α      lambda       -0.2180727E-02
   maximum displ.:     0.3650605 α      in ANC's #11, #3, #6, ...

........................................................................
.............................. CYCLE   33 ..............................
........................................................................

 iter      E             dE          RMSdq      gap      omega  full diag
   1    -42.5765196 -0.425765E+02  0.635E-01    0.72       0.0  T
   2    -42.5233294  0.531902E-01  0.123E+00    0.37       1.0  T
   3    -42.5610848 -0.377555E-01  0.718E-01    0.87       1.0  T
   4    -42.5740863 -0.130014E-01  0.335E-01    0.75       1.0  T
   5    -42.5759249 -0.183857E-02  0.202E-01    0.73       1.0  T
   6    -42.5776803 -0.175545E-02  0.378E-02    0.68       1.0  T
   7    -42.5777308 -0.504650E-04  0.936E-03    0.67       2.1  T
   8    -42.5777291  0.166587E-05  0.103E-02    0.67       1.9  T
   9    -42.5777315 -0.242661E-05  0.649E-03    0.67       3.1  T
  10    -42.5777332 -0.170689E-05  0.842E-04    0.67      23.7  T
  11    -42.5777333 -0.176133E-07  0.410E-04    0.67      48.8  T
  12    -42.5777333  0.104733E-07  0.601E-04    0.67      33.3  T
     SCC iter.                  ...        0 min,  0.016 sec
     gradient                   ...        0 min,  0.013 sec
 * total energy  :   -42.0085433 Eh     change       -0.1434959E-02 Eh
   gradient norm :     0.0590032 Eh/α   predicted    -0.1374225E-02 (  -4.23%)
   displ. norm   :     0.5550245 α      lambda       -0.6649538E-02
   maximum displ.:     0.2981488 α      in ANC's #4, #3, #6, ...

........................................................................
.............................. CYCLE   34 ..............................
........................................................................

 iter      E             dE          RMSdq      gap      omega  full diag
   1    -42.6010730 -0.426011E+02  0.576E-01    0.79       0.0  T
   2    -42.3594973  0.241576E+00  0.247E+00    0.16       1.0  T
   3    -42.6052365 -0.245739E+00  0.300E-01    0.72       1.0  T
   4    -42.6037178  0.151877E-02  0.238E-01    0.74       1.0  T
   5    -42.6056077 -0.188998E-02  0.654E-02    0.71       1.0  T
   6    -42.6056692 -0.614777E-04  0.365E-02    0.69       1.0  T
   7    -42.6057089 -0.396298E-04  0.183E-02    0.69       1.1  T
   8    -42.6057165 -0.767436E-05  0.944E-03    0.70       2.1  T
   9    -42.6057198 -0.321973E-05  0.330E-03    0.70       6.1  T
  10    -42.6057201 -0.397521E-06  0.868E-04    0.70      23.0  T
  11    -42.6057202 -0.178416E-07  0.334E-04    0.70      59.8  T
     SCC iter.                  ...        0 min,  0.015 sec
     gradient                   ...        0 min,  0.013 sec
 * total energy  :   -42.0097903 Eh     change       -0.1246984E-02 Eh
   gradient norm :     0.0743611 Eh/α   predicted    -0.4348976E-02 ( 248.76%)
   displ. norm   :     0.4889318 α      lambda       -0.6219267E-02
   maximum displ.:     0.3665906 α      in ANC's #3, #11, #6, ...

........................................................................
.............................. CYCLE   35 ..............................
........................................................................

 iter      E             dE          RMSdq      gap      omega  full diag
   1    -42.5866939 -0.425867E+02  0.592E-01    0.94       0.0  T
   2    -42.2055234  0.381170E+00  0.304E+00    0.17       1.0  T
   3    -42.5905185 -0.384995E+00  0.375E-01    0.86       1.0  T
   4    -42.5929868 -0.246827E-02  0.215E-01    0.81       1.0  T
   5    -42.5939748 -0.988029E-03  0.684E-02    0.79       1.0  T
   6    -42.5941644 -0.189570E-03  0.196E-02    0.77       1.0  T
   7    -42.5941704 -0.606968E-05  0.121E-02    0.77       1.7  T
   8    -42.5941734 -0.292427E-05  0.528E-03    0.77       3.8  T
   9    -42.5941734 -0.612064E-07  0.379E-03    0.77       5.3  T
  10    -42.5941739 -0.505444E-06  0.141E-03    0.77      14.2  T
  11    -42.5941740 -0.501973E-07  0.668E-04    0.77      29.9  T
  12    -42.5941740 -0.184031E-07  0.246E-04    0.77      81.2  T
     SCC iter.                  ...        0 min,  0.016 sec
     gradient                   ...        0 min,  0.013 sec
 * total energy  :   -42.0152878 Eh     change       -0.5497507E-02 Eh
   gradient norm :     0.0600649 Eh/α   predicted    -0.3853024E-02 ( -29.91%)
   displ. norm   :     0.6958664 α      lambda       -0.1174257E-01
   maximum displ.:     0.6069958 α      in ANC's #3, #15, #7, ...

........................................................................
.............................. CYCLE   36 ..............................
........................................................................

 iter      E             dE          RMSdq      gap      omega  full diag
   1    -42.5707433 -0.425707E+02  0.661E-01    1.33       0.0  T
   2    -41.8722461  0.698497E+00  0.394E+00    0.28       1.0  T
   3    -42.5878257 -0.715580E+00  0.239E-01    0.99       1.0  T
   4    -42.5862088  0.161689E-02  0.275E-01    0.77       1.0  T
   5    -42.5860955  0.113300E-03  0.249E-01    0.78       1.0  T
   6    -42.5886828 -0.258733E-02  0.822E-02    0.85       1.0  T
   7    -42.5888872 -0.204376E-03  0.418E-02    0.87       1.0  T
   8    -42.5889421 -0.549048E-04  0.250E-02    0.88       1.0  T
   9    -42.5889647 -0.225893E-04  0.114E-02    0.89       1.8  T
  10    -42.5889708 -0.610032E-05  0.171E-03    0.90      11.7  T
  11    -42.5889709 -0.123444E-06  0.335E-04    0.90      59.6  T
  12    -42.5889709  0.110455E-07  0.484E-04    0.90      41.3  T
     SCC iter.                  ...        0 min,  0.016 sec
     gradient                   ...        0 min,  0.013 sec
 * total energy  :   -42.0244760 Eh     change       -0.9188144E-02 Eh
   gradient norm :     0.0917838 Eh/α   predicted    -0.8714337E-02 (  -5.16%)
   displ. norm   :     0.8543250 α      lambda       -0.1405867E-01
   maximum displ.:     0.7508470 α      in ANC's #3, #6, #15, ...

........................................................................
.............................. CYCLE   37 ..............................
........................................................................

 iter      E             dE          RMSdq      gap      omega  full diag
   1    -42.5600717 -0.425601E+02  0.895E-01    2.30       0.0  T
   2    -42.4740820  0.859897E-01  0.152E+00    0.48       1.0  T
   3    -42.5699778 -0.958958E-01  0.513E-01    1.79       1.0  T
   4    -42.5758443 -0.586655E-02  0.167E-01    1.28       1.0  T
   5    -42.5755762  0.268127E-03  0.142E-01    1.18       1.0  T
   6    -42.5760209 -0.444695E-03  0.766E-02    1.22       1.0  T
   7    -42.5762494 -0.228528E-03  0.166E-02    1.27       1.2  T
   8    -42.5762527 -0.326488E-05  0.804E-03    1.28       2.5  T
   9    -42.5762530 -0.292834E-06  0.306E-03    1.27       6.5  T
  10    -42.5762531 -0.151128E-06  0.107E-03    1.28      18.7  T
  11    -42.5762531 -0.138268E-07  0.483E-04    1.28      41.4  T
  12    -42.5762531 -0.808079E-09  0.246E-04    1.28      81.2  T
     SCC iter.                  ...        0 min,  0.016 sec
     gradient                   ...        0 min,  0.013 sec
 * total energy  :   -42.0366205 Eh     change       -0.1214457E-01 Eh
   gradient norm :     0.1584136 Eh/α   predicted    -0.1215984E-01 (   0.13%)
   displ. norm   :     0.7043489 α      lambda       -0.2536727E-01
   maximum displ.:     0.5304349 α      in ANC's #3, #7, #15, ...

........................................................................
.............................. CYCLE   38 ..............................
........................................................................

 iter      E             dE          RMSdq      gap      omega  full diag
   1    -42.5729667 -0.425730E+02  0.870E-01    2.58       0.0  T
   2    -42.5726323  0.334388E-03  0.614E-01    1.93       1.0  T
   3    -42.5720482  0.584100E-03  0.507E-01    2.37       1.0  T
   4    -42.5763933 -0.434515E-02  0.105E-01    2.18       1.0  T
   5    -42.5765536 -0.160265E-03  0.325E-02    2.13       1.0  T
   6    -42.5765675 -0.139082E-04  0.176E-02    2.14       1.1  T
   7    -42.5765703 -0.274968E-05  0.867E-03    2.14       2.3  T
   8    -42.5765705 -0.252455E-06  0.302E-03    2.14       6.6  T
   9    -42.5765706 -0.550408E-07  0.146E-03    2.14      13.7  T
  10    -42.5765706 -0.134605E-07  0.448E-04    2.14      44.6  T
  11    -42.5765706 -0.884967E-09  0.183E-04    2.14     109.4  T
     SCC iter.                  ...        0 min,  0.015 sec
     gradient                   ...        0 min,  0.013 sec
 * total energy  :   -42.0482900 Eh     change       -0.1166943E-01 Eh
   gradient norm :     0.1882584 Eh/α   predicted    -0.1897612E-01 (  62.61%)
   displ. norm   :     0.4547915 α      lambda       -0.3227709E-01
   maximum displ.:     0.2924596 α      in ANC's #3, #7, #11, ...

........................................................................
.............................. CYCLE   39 ..............................
........................................................................

 iter      E             dE          RMSdq      gap      omega  full diag
   1    -42.5951245 -0.425951E+02  0.343E-01    2.08       0.0  T
   2    -42.5954764 -0.351867E-03  0.230E-01    2.20       1.0  T
   3    -42.5953991  0.772925E-04  0.142E-01    2.07       1.0  T
   4    -42.5954891 -0.900696E-04  0.807E-02    2.18       1.0  T
   5    -42.5956481 -0.158915E-03  0.246E-02    2.14       1.0  T
   6    -42.5956583 -0.102911E-04  0.124E-02    2.14       1.6  T
   7    -42.5956591 -0.736826E-06  0.647E-03    2.14       3.1  T
   8    -42.5956594 -0.279369E-06  0.192E-03    2.14      10.4  T
   9    -42.5956594 -0.304790E-07  0.822E-04    2.14      24.3  T
  10    -42.5956594 -0.132805E-08  0.237E-04    2.14      84.4  T
     SCC iter.                  ...        0 min,  0.014 sec
     gradient                   ...        0 min,  0.013 sec
 * total energy  :   -42.0723340 Eh     change       -0.2404399E-01 Eh
   gradient norm :     0.1205667 Eh/α   predicted    -0.1947656E-01 ( -19.00%)
   displ. norm   :     0.7138081 α      lambda       -0.5323201E-01
   maximum displ.:     0.4491302 α      in ANC's #6, #7, #3, ...

........................................................................
.............................. CYCLE   40 ..............................
........................................................................

 iter      E             dE          RMSdq      gap      omega  full diag
   1    -42.6608491 -0.426608E+02  0.893E-01    2.08       0.0  T
   2    -42.6637618 -0.291269E-02  0.543E-01    2.51       1.0  T
   3    -42.6636818  0.800488E-04  0.271E-01    2.25       1.0  T
   4    -42.6639746 -0.292873E-03  0.118E-01    2.40       1.0  T
   5    -42.6642766 -0.301978E-03  0.419E-02    2.38       1.0  T
   6    -42.6643175 -0.409238E-04  0.144E-02    2.37       1.4  T
   7    -42.6643186 -0.109111E-05  0.660E-03    2.37       3.0  T
   8    -42.6643189 -0.249396E-06  0.284E-03    2.37       7.0  T
   9    -42.6643189 -0.467760E-07  0.143E-03    2.37      14.0  T
  10    -42.6643189 -0.111559E-07  0.474E-04    2.37      42.2  T
  11    -42.6643189 -0.120069E-08  0.223E-04    2.37      89.8  T
     SCC iter.                  ...        0 min,  0.015 sec
     gradient                   ...        0 min,  0.013 sec
 * total energy  :   -42.0644949 Eh     change        0.7839024E-02 Eh
   gradient norm :     0.2163350 Eh/α   predicted    -0.4017748E-01 (-612.53%)
   displ. norm   :     0.5184699 α      lambda       -0.5615053E-01
   maximum displ.:     0.3993968 α      in ANC's #3, #15, #7, ...

........................................................................
.............................. CYCLE   41 ..............................
........................................................................

 iter      E             dE          RMSdq      gap      omega  full diag
   1    -42.6439364 -0.426439E+02  0.522E-01    2.20       0.0  T
   2    -42.6444615 -0.525181E-03  0.319E-01    2.29       1.0  T
   3    -42.6430625  0.139900E-02  0.275E-01    2.15       1.0  T
   4    -42.6446422 -0.157969E-02  0.834E-02    2.29       1.0  T
   5    -42.6447939 -0.151695E-03  0.244E-02    2.27       1.0  T
   6    -42.6448042 -0.102262E-04  0.107E-02    2.27       1.9  T
   7    -42.6448046 -0.402177E-06  0.596E-03    2.27       3.4  T
   8    -42.6448048 -0.200501E-06  0.245E-03    2.27       8.2  T
   9    -42.6448048 -0.251939E-07  0.869E-04    2.27      23.0  T
  10    -42.6448048 -0.610955E-08  0.320E-04    2.27      62.4  T
     SCC iter.                  ...        0 min,  0.014 sec
     gradient                   ...        0 min,  0.013 sec
 * total energy  :   -42.0940122 Eh     change       -0.2951725E-01 Eh
   gradient norm :     0.0573004 Eh/α   predicted    -0.3562220E-01 (  20.68%)
   displ. norm   :     0.7785023 α      lambda       -0.1279297E-01
   maximum displ.:     0.7054717 α      in ANC's #3, #7, #25, ...

........................................................................
.............................. CYCLE   42 ..............................
........................................................................

 iter      E             dE          RMSdq      gap      omega  full diag
   1    -42.6586851 -0.426587E+02  0.359E-01    2.29       0.0  T
   2    -42.6588651 -0.179989E-03  0.226E-01    2.30       1.0  T
   3    -42.6581820  0.683071E-03  0.191E-01    2.32       1.0  T
   4    -42.6589660 -0.784065E-03  0.601E-02    2.27       1.0  T
   5    -42.6590469 -0.808379E-04  0.188E-02    2.32       1.1  T
   6    -42.6590504 -0.349272E-05  0.993E-03    2.31       2.0  T
   7    -42.6590507 -0.315707E-06  0.502E-03    2.31       4.0  T
   8    -42.6590508 -0.146031E-06  0.156E-03    2.31      12.8  T
   9    -42.6590509 -0.172612E-07  0.720E-04    2.31      27.8  T
  10    -42.6590509 -0.189102E-08  0.178E-04    2.31     112.6  T
     SCC iter.                  ...        0 min,  0.014 sec
     gradient                   ...        0 min,  0.013 sec
 * total energy  :   -42.0960006 Eh     change       -0.1988388E-02 Eh
   gradient norm :     0.0986214 Eh/α   predicted    -0.1027323E-01 ( 416.66%)
   displ. norm   :     0.5933806 α      lambda       -0.2558979E-01
   maximum displ.:     0.2676396 α      in ANC's #6, #15, #25, ...
 * RMSD in coord.:     1.3806999 α      energy gain  -0.1054546E+00 Eh

generating ANC from model Hessian ...
Using Lindh-Hessian (1995)
 Shifting diagonal of input Hessian by    9.9592205295929593E-003
 Lowest  eigenvalues of input Hessian
    0.000000    0.000000    0.000000    0.000000    0.000000    0.000000
    0.010000    0.010603    0.011520    0.012380    0.014637    0.016137
    0.018426    0.020435    0.021021    0.023115    0.025961    0.029466
 Highest eigenvalues
    2.057158    2.194412    2.277379    2.687115    3.008819    3.026166


........................................................................
.............................. CYCLE   43 ..............................
........................................................................

 iter      E             dE          RMSdq      gap      omega  full diag
   1    -42.6425122 -0.426425E+02  0.804E-01    2.69       0.0  T
   2    -42.6435073 -0.995112E-03  0.510E-01    2.25       1.0  T
   3    -42.6439038 -0.396486E-03  0.409E-01    2.56       1.0  T
   4    -42.6461262 -0.222245E-02  0.107E-01    2.43       1.0  T
   5    -42.6463029 -0.176654E-03  0.417E-02    2.42       1.0  T
   6    -42.6463235 -0.206497E-04  0.183E-02    2.43       1.1  T
   7    -42.6463243 -0.814990E-06  0.959E-03    2.43       2.1  T
   8    -42.6463249 -0.610383E-06  0.306E-03    2.43       6.5  T
   9    -42.6463250 -0.604483E-07  0.151E-03    2.43      13.3  T
  10    -42.6463250 -0.742776E-08  0.372E-04    2.43      53.7  T
  11    -42.6463250 -0.100037E-08  0.151E-04    2.43     132.3  T
     SCC iter.                  ...        0 min,  0.015 sec
     gradient                   ...        0 min,  0.013 sec
 * total energy  :   -42.0764369 Eh     change        0.1956369E-01 Eh
   gradient norm :     0.2469734 Eh/α   predicted     0.0000000E+00 (-100.00%)
   displ. norm   :     0.2661074 α      lambda       -0.3926954E-01
   maximum displ.:     0.1448118 α      in ANC's #42, #13, #47, ...

........................................................................
.............................. CYCLE   44 ..............................
........................................................................

 iter      E             dE          RMSdq      gap      omega  full diag
   1    -42.6456396 -0.426456E+02  0.486E-01    1.97       0.0  T
   2    -42.6442047  0.143495E-02  0.424E-01    2.48       1.0  T
   3    -42.6480749 -0.387021E-02  0.228E-01    2.20       1.0  T
   4    -42.6486962 -0.621307E-03  0.832E-02    2.22       1.0  T
   5    -42.6487164 -0.202551E-04  0.282E-02    2.24       1.0  T
   6    -42.6487302 -0.137301E-04  0.884E-03    2.25       2.3  T
   7    -42.6487309 -0.794691E-06  0.399E-03    2.25       5.0  T
   8    -42.6487310 -0.508650E-07  0.143E-03    2.24      14.0  T
   9    -42.6487310 -0.236767E-07  0.618E-04    2.24      32.4  T
  10    -42.6487310 -0.127909E-08  0.253E-04    2.24      79.0  T
     SCC iter.                  ...        0 min,  0.014 sec
     gradient                   ...        0 min,  0.013 sec
 * total energy  :   -42.1006390 Eh     change       -0.2420213E-01 Eh
   gradient norm :     0.0527882 Eh/α   predicted    -0.2103407E-01 ( -13.09%)
   displ. norm   :     0.2303932 α      lambda       -0.6468145E-02
   maximum displ.:     0.0861645 α      in ANC's #2, #42, #9, ...

........................................................................
.............................. CYCLE   45 ..............................
........................................................................

 iter      E             dE          RMSdq      gap      omega  full diag
   1    -42.6664154 -0.426664E+02  0.244E-01    2.27       0.0  T
   2    -42.6665103 -0.948054E-04  0.147E-01    2.32       1.0  T
   3    -42.6663258  0.184459E-03  0.140E-01    2.25       1.0  T
   4    -42.6666292 -0.303373E-03  0.393E-02    2.29       1.0  T
   5    -42.6666688 -0.395927E-04  0.123E-02    2.29       1.6  T
   6    -42.6666712 -0.246028E-05  0.439E-03    2.29       4.6  T
   7    -42.6666713 -0.666663E-07  0.236E-03    2.29       8.5  T
   8    -42.6666713 -0.212997E-07  0.796E-04    2.29      25.1  T
   9    -42.6666713 -0.655605E-08  0.368E-04    2.29      54.3  T
     SCC iter.                  ...        0 min,  0.012 sec
     gradient                   ...        0 min,  0.013 sec
 * total energy  :   -42.1041887 Eh     change       -0.3549650E-02 Eh
   gradient norm :     0.0187212 Eh/α   predicted    -0.3405855E-02 (  -4.05%)
   displ. norm   :     0.2363094 α      lambda       -0.1133931E-02
   maximum displ.:     0.1461543 α      in ANC's #2, #1, #9, ...

........................................................................
.............................. CYCLE   46 ..............................
........................................................................

 iter      E             dE          RMSdq      gap      omega  full diag
   1    -42.6642665 -0.426643E+02  0.181E-01    2.26       0.0  T
   2    -42.6642843 -0.178812E-04  0.106E-01    2.28       1.0  T
   3    -42.6641467  0.137688E-03  0.727E-02    2.25       1.0  T
   4    -42.6642903 -0.143647E-03  0.169E-02    2.28       1.2  T
   5    -42.6642968 -0.649500E-05  0.384E-03    2.28       5.2  T
   6    -42.6642969 -0.685360E-07  0.221E-03    2.28       9.1  T
   7    -42.6642969 -0.330800E-07  0.738E-04    2.28      27.1  T
   8    -42.6642969 -0.583761E-08  0.195E-04    2.28     102.5  T
     SCC iter.                  ...        0 min,  0.011 sec
     gradient                   ...        0 min,  0.013 sec
 * total energy  :   -42.1049434 Eh     change       -0.7547785E-03 Eh
   gradient norm :     0.0101020 Eh/α   predicted    -0.5987109E-03 ( -20.68%)
   displ. norm   :     0.2238551 α      lambda       -0.6243360E-03
   maximum displ.:     0.1048366 α      in ANC's #6, #7, #2, ...

........................................................................
.............................. CYCLE   47 ..............................
........................................................................

 iter      E             dE          RMSdq      gap      omega  full diag
   1    -42.6672476 -0.426672E+02  0.142E-01    2.30       0.0  T
   2    -42.6672529 -0.537396E-05  0.868E-02    2.27       1.0  T
   3    -42.6671071  0.145782E-03  0.830E-02    2.31       1.0  T
   4    -42.6672831 -0.175910E-03  0.135E-02    2.28       1.5  T
   5    -42.6672861 -0.302318E-05  0.382E-03    2.28       5.2  T
   6    -42.6672862 -0.120112E-06  0.206E-03    2.28       9.7  T
   7    -42.6672862 -0.277367E-07  0.749E-04    2.28      26.7  T
   8    -42.6672862 -0.243272E-08  0.233E-04    2.28      85.7  T
     SCC iter.                  ...        0 min,  0.011 sec
     gradient                   ...        0 min,  0.013 sec
 * total energy  :   -42.1053473 Eh     change       -0.4039087E-03 Eh
   gradient norm :     0.0080166 Eh/α   predicted    -0.3278441E-03 ( -18.83%)
   displ. norm   :     0.2147767 α      lambda       -0.3344500E-03
[...]
C            0.53631665456581        0.72507451102652       -0.00179316514274
O            1.12070315094979        1.91748716875184       -0.00188816842592
N           -0.80565112844947        0.85271074734677       -0.00248646762578
C           -1.47310756748738        2.14802071308070       -0.00450565017964
C           -1.72825229327352       -0.23170398308322        0.00227331333077
O           -2.90227541747325        0.00593763846616        0.00705216603416
N           -1.20284912888835       -1.48779865998676        0.00168377829869
C           -2.14322591934914       -2.60157266940891        0.00730611300136
H            2.99279719069536        2.16010849427472        0.91452435998965
H            3.01219552940269        2.16253182008747       -0.87682077359220
H            2.29831883153570        3.54072587504422        0.01271973673714
H            4.40187986760573       -1.62287026576742       -0.00499574924933
H           -0.74969911456847        2.95335541129432        0.00468090203683
H           -2.10355107002701        2.21845917371446       -0.89067067626118
H           -2.11984659856760        2.21245194804920        0.87024033020740
H           -1.96765302351458       -3.21696841288301        0.88747656649530
H           -1.98310146575618       -3.21361615471089       -0.87816839925701
H           -3.15288137795815       -2.20010849733371        0.01679636251860
H            1.35733838964008       -3.36781177025039       -0.02259899657169

 Bond Distances (Angstroems)
 ---------------------------
C1-O8=1.4457         C1-H15=1.0916        C1-H16=1.0912        C1-H17=1.0868        N2-C3=1.1622         N2-C6=1.3095         
C3-N2=1.1622         C3-H18=1.0525        N4-C5=1.2673         N4-H25=1.0113        C5-N4=1.2673         C5-C6=1.5324         
C5-N13=1.3774        C6-N2=1.3095         C6-C5=1.5324         C6-C7=1.4193         C7-C6=1.4193         C7-O8=1.3279         
C7-N9=1.3480         O8-C1=1.4457         O8-C7=1.3279         N9-C7=1.3480         N9-C10=1.4572        N9-C11=1.4238        
C10-N9=1.4572        C10-H19=1.0826       C10-H20=1.0898       C10-H21=1.0898       C11-N9=1.4238        C11-O12=1.1978       
C11-N13=1.3616       O12-C11=1.1978       N13-C5=1.3774        N13-C11=1.3616       N13-C14=1.4577       C14-N13=1.4577       
C14-H22=1.0882       C14-H23=1.0883       C14-H24=1.0866       H15-C1=1.0916        H16-C1=1.0912        H17-C1=1.0868        
H18-C3=1.0525        H19-C10=1.0826       H20-C10=1.0898       H21-C10=1.0898       H22-C14=1.0882       H23-C14=1.0883       
H24-C14=1.0866       H25-N4=1.0113        
 C  H  Rav=1.0847 sigma=0.0110  Rmin=1.0525  Rmax=1.0916    10
 C  C  Rav=1.4759 sigma=0.0565  Rmin=1.4193  Rmax=1.5324     2
 N  H  Rav=1.0113 sigma=0.0000  Rmin=1.0113  Rmax=1.0113     1
 N  C  Rav=1.3516 sigma=0.0901  Rmin=1.1622  Rmax=1.4577     9
 O  C  Rav=1.3238 sigma=0.1012  Rmin=1.1978  Rmax=1.4457     3

 selected bond angles (degree)
 --------------------
H15-C1-O8=110.82               H16-C1-O8=110.84               H16-C1-H15=110.32              H17-C1-O8=103.82               
H17-C1-H15=110.45              H17-C1-H16=110.44              C6-N2-C3=166.91                H18-C3-N2=175.69               
H25-N4-C5=119.05               C6-C5-N4=131.49                N13-C5-N4=116.11               N13-C5-C6=112.39               
C5-C6-N2=116.71                C7-C6-N2=121.08                C7-C6-C5=122.20                O8-C7-C6=132.78                
N9-C7-C6=116.54                N9-C7-O8=110.68                C7-O8-C1=138.39                C10-N9-C7=122.69               
C11-N9-C7=124.96               C11-N9-C10=112.35              H19-C10-N9=110.80              H20-C10-N9=108.88              
H20-C10-H19=110.20             H21-C10-N9=108.86              H21-C10-H19=110.23             H21-C10-H20=107.79             

 selected dihedral angles (degree)
 ---------------------------------
H18-C3-N2-C6=163.99           C6-C5-N4-H25=  0.00           N13-C5-N4-H25=180.06          C5-C6-N2-C3=357.33            
C7-C6-N2-C3=177.32            N2-C6-C5-N4=359.62            N2-C6-C5-N13=179.55           C7-C6-C5-N4=179.63            
C7-C6-C5-N13=359.56           O8-C7-C6-N2=  0.19            O8-C7-C6-C5=180.19            N9-C7-C6-N2=180.02            
N9-C7-C6-C5=  0.00            C7-O8-C1-H15=299.09           C7-O8-C1-H16= 61.92           C7-O8-C1-H17=180.51           
C1-O8-C7-C6=358.96            C1-O8-C7-N9=179.13            C10-N9-C7-C6=180.20           C10-N9-C7-O8=  0.06           
C11-N9-C7-C6=  0.38           C11-N9-C7-O8=180.24           H19-C10-N9-C7=359.43          H19-C10-N9-C11=179.28         
H20-C10-N9-C7=120.79          H20-C10-N9-C11=300.63         H21-C10-N9-C7=238.06          H21-C10-N9-C11= 57.90         
           -------------------------------------------------
          |                Final Singlepoint                |
           -------------------------------------------------

          ...................................................
          :                      SETUP                      :
          :.................................................:
          :  # basis functions                  67          :
          :  # atomic orbitals                  67          :
          :  # shells                           39          :
          :  # electrons                        74          :
          :  max. iterations                   250          :
          :  Hamiltonian                  GFN2-xTB          :
          :  restarted?                      false          :
          :  GBSA solvation                  false          :
          :  PC potential                    false          :
          :  electronic temp.         2500.0000000     K    :
          :  accuracy                    1.0000000          :
          :  -> integral cutoff          0.2500000E+02      :
          :  -> integral neglect         0.1000000E-07      :
          :  -> SCF convergence          0.1000000E-05 Eh   :
          :  -> wf. convergence          0.1000000E-03 e    :
          :  Broyden damping             0.4000000          :
          ...................................................

 iter      E             dE          RMSdq      gap      omega  full diag
   1    -42.6680541 -0.426681E+02  0.723E-05    2.38       0.0  T
   2    -42.6680541 -0.108784E-10  0.486E-05    2.38     411.9  T
   3    -42.6680541  0.233058E-11  0.425E-05    2.38     471.1  T

   *** convergence criteria satisfied after 3 iterations ***

         #    Occupation            Energy/Eh            Energy/eV
      -------------------------------------------------------------
         1        2.0000           -0.9152384             -24.9049
       ...           ...                  ...                  ...
        31        2.0000           -0.6084744             -16.5574
        32        2.0000           -0.5927051             -16.1283
        33        2.0000           -0.5859815             -15.9454
        34        1.9998           -0.5683028             -15.4643
        35        1.9992           -0.5558510             -15.1255
        36        1.9959           -0.5424501             -14.7608
        37        1.9912           -0.5363200             -14.5940 (HOMO)
        38        0.0071           -0.4487663             -12.2116 (LUMO)
        39        0.0067           -0.4483706             -12.2008
        40        0.0000           -0.3924229             -10.6784
        41                         -0.3586571              -9.7596
        42                         -0.2825105              -7.6875
       ...                                ...                  ...
        67                          1.0468057              28.4850
      -------------------------------------------------------------
                  HL-Gap            0.0875537 Eh            2.3825 eV
             Fermi-level           -0.4934144 Eh          -13.4265 eV

 SCC (total)                   0 d,  0 h,  0 min,  0.023 sec
 SCC setup                      ...        0 min,  0.000 sec (  0.839%)
 Dispersion                     ...        0 min,  0.000 sec (  0.855%)
 classical contributions        ...        0 min,  0.000 sec (  0.307%)
 integral evaluation            ...        0 min,  0.005 sec ( 21.371%)
 iterations                     ...        0 min,  0.005 sec ( 20.702%)
 molecular gradient             ...        0 min,  0.013 sec ( 55.258%)
 printout                       ...        0 min,  0.000 sec (  0.607%)

         :::::::::::::::::::::::::::::::::::::::::::::::::::::
         ::                     SUMMARY                     ::
         :::::::::::::::::::::::::::::::::::::::::::::::::::::
         :: total energy             -42.106267183116 Eh    ::
         :: gradient norm              0.003009268297 Eh/a0 ::
         :: HOMO-LUMO gap              2.382457784288 eV    ::
         ::.................................................::
         :: SCC energy               -42.668054072420 Eh    ::
         :: -> isotropic ES            0.130962792147 Eh    ::
         :: -> anisotropic ES         -0.007089188455 Eh    ::
         :: -> anisotropic XC          0.031379230875 Eh    ::
         :: -> dispersion             -0.021884601656 Eh    ::
         :: repulsion energy           0.561395587008 Eh    ::
         :: add. restraining           0.000280376308 Eh    ::
         :: total charge               0.999999999999 e     ::
         :::::::::::::::::::::::::::::::::::::::::::::::::::::

           -------------------------------------------------
          |                Property Printout                |
           -------------------------------------------------

    * Orbital Energies and Occupations

         #    Occupation            Energy/Eh            Energy/eV
      -------------------------------------------------------------
         1        2.0000           -0.9152384             -24.9049
       ...           ...                  ...                  ...
        25        2.0000           -0.6564709             -17.8635
        26        2.0000           -0.6495834             -17.6761
        27        2.0000           -0.6460078             -17.5788
        28        2.0000           -0.6298207             -17.1383
        29        2.0000           -0.6262070             -17.0400
        30        2.0000           -0.6090653             -16.5735
        31        2.0000           -0.6084744             -16.5574
        32        2.0000           -0.5927051             -16.1283
        33        2.0000           -0.5859815             -15.9454
        34        1.9998           -0.5683028             -15.4643
        35        1.9992           -0.5558510             -15.1255
        36        1.9959           -0.5424501             -14.7608
        37        1.9912           -0.5363200             -14.5940 (HOMO)
        38        0.0071           -0.4487663             -12.2116 (LUMO)
        39        0.0067           -0.4483706             -12.2008
        40        0.0000           -0.3924229             -10.6784
        41                         -0.3586571              -9.7596
        42                         -0.2825105              -7.6875
        43                         -0.2395416              -6.5183
        44                         -0.1909140              -5.1950
        45                         -0.1527129              -4.1555
        46                         -0.1329904              -3.6189
        47                         -0.0974133              -2.6507
        48                         -0.0580687              -1.5801
       ...                                ...                  ...
        67                          1.0468057              28.4850
      -------------------------------------------------------------
                  HL-Gap            0.0875537 Eh            2.3825 eV
             Fermi-level           -0.4934144 Eh          -13.4265 eV

     #   Z          covCN         q      C6AA      α(0)
     1   6 C        3.620     0.011    20.858     6.585
     2   7 N        1.834     0.127    19.692     6.576
     3   6 C        1.846     0.030    30.378     8.904
     4   7 N        1.795    -0.305    28.726     7.939
     5   6 C        2.824     0.160    24.525     8.115
     6   6 C        2.889    -0.038    28.950     8.821
     7   6 C        2.769     0.234    23.104     7.872
     8   8 O        1.707    -0.214    17.558     5.657
     9   7 N        2.750    -0.051    22.218     7.001
    10   6 C        3.707    -0.072    22.021     6.708
    11   6 C        2.723     0.317    21.609     7.610
    12   8 O        0.860    -0.357    20.846     6.122
    13   7 N        2.761    -0.048    22.163     6.992
    14   6 C        3.713    -0.075    22.077     6.714
    15   1 H        0.924     0.083     1.948     2.183
    16   1 H        0.924     0.083     1.949     2.183
    17   1 H        0.925     0.120     1.616     1.988
    18   1 H        0.928     0.196     1.117     1.653
    19   1 H        0.925     0.101     1.775     2.084
    20   1 H        0.925     0.110     1.700     2.039
    21   1 H        0.925     0.110     1.695     2.036
    22   1 H        0.925     0.101     1.775     2.083
    23   1 H        0.925     0.101     1.773     2.082
    24   1 H        0.925     0.114     1.666     2.019
    25   1 H        0.860     0.162     1.323     1.802

 Mol. C6AA /au·bohr⁶  :       6597.277540
 Mol. C8AA /au·bohr⁸  :     151466.574346
 Mol. α(0) /au        :        123.766320


Wiberg/Mayer (AO) data.
largest (>0.10) Wiberg bond orders for each atom

 ---------------------------------------------------------------------------
     #   Z sym  total        # sym  WBO       # sym  WBO       # sym  WBO
 ---------------------------------------------------------------------------
     1   6 C    3.881 --    16 H    0.973    15 H    0.973    17 H    0.969
                             8 O    0.923
     2   7 N    3.744 --     3 C    2.418     6 C    1.246
     3   6 C    3.850 --     2 N    2.418    18 H    0.938     6 C    0.194
     4   7 N    3.087 --     5 C    1.779    25 H    0.943    13 N    0.103
     5   6 C    3.962 --     4 N    1.779    13 N    1.125     6 C    0.938
     6   6 C    3.878 --     7 C    1.250     2 N    1.246     5 C    0.938
                             3 C    0.194
     7   6 C    3.938 --     9 N    1.279     6 C    1.250     8 O    1.189
     8   8 O    2.367 --     7 C    1.189     1 C    0.923
     9   7 N    3.604 --     7 C    1.279    11 C    0.999    10 C    0.969
                            12 O    0.102
    10   6 C    3.917 --    19 H    0.972     9 N    0.969    21 H    0.962
                            20 H    0.962
    11   6 C    3.961 --    12 O    1.710    13 N    1.163     9 N    0.999
    12   8 O    2.067 --    11 C    1.710    13 N    0.150     9 N    0.102
    13   7 N    3.589 --    11 C    1.163     5 C    1.125    14 C    0.961
                            12 O    0.150     4 N    0.103
    14   6 C    3.913 --    24 H    0.969    22 H    0.967    23 H    0.967
                            13 N    0.961
    15   1 H    0.992 --     1 C    0.973
    16   1 H    0.992 --     1 C    0.973
    17   1 H    0.985 --     1 C    0.969
    18   1 H    0.961 --     3 C    0.938
    19   1 H    0.989 --    10 C    0.972
    20   1 H    0.983 --    10 C    0.962
    21   1 H    0.983 --    10 C    0.962
    22   1 H    0.989 --    14 C    0.967
    23   1 H    0.989 --    14 C    0.967
    24   1 H    0.986 --    14 C    0.969
    25   1 H    0.972 --     4 N    0.943
 ---------------------------------------------------------------------------

Topologies differ in total number of bonds
Writing topology from bond orders to xtbtopo.mol

molecular dipole:
                 x           y           z       tot (Debye)
 q only:        2.998       0.196       0.006
   full:        3.922       0.321       0.003      10.002
molecular quadrupole (traceless):
                xx          xy          yy          xz          yz          zz
 q only:       15.647       1.552       5.553       0.038       0.033     -21.200
  q+dip:       18.062      -3.854       0.505       0.000       0.043     -18.566
   full:       16.660      -2.418       0.224       0.011       0.037     -16.883

           -------------------------------------------------
          |                Geometry Summary                 |
           -------------------------------------------------

      molecular mass/u    :      195.1988581
   center of mass at/Å    :        0.0534896      -0.2329226      -0.0000576
  moments of inertia/u·Å² :        0.5548556E+03   0.7274549E+03   0.1272787E+04
rotational constants/cm⁻¹ :        0.3038202E-01   0.2317344E-01   0.1324466E-01

 * 22 selected distances

     #   Z          #   Z                                           value/Å
     2   7 N        3   6 C                                       1.1622327
     4   7 N        5   6 C                                       1.2673212
     2   7 N        6   6 C                                       1.3095344
     6   6 C        7   6 C                                       1.4193443
     1   6 C        8   8 O                                       1.4457431
     7   6 C        8   8 O                                       1.3279141
     7   6 C        9   7 N                                       1.3480242
     9   7 N       10   6 C                                       1.4571652
     9   7 N       11   6 C                                       1.4237876
    11   6 C       12   8 O                                       1.1978426
     5   6 C       13   7 N                                       1.3774254
    11   6 C       13   7 N                                       1.3615517
    13   7 N       14   6 C                                       1.4576807 (max)
     1   6 C       15   1 H                                       1.0915762
     1   6 C       16   1 H                                       1.0911753
     1   6 C       17   1 H                                       1.0868325
    10   6 C       19   1 H                                       1.0825749 (min)
    10   6 C       20   1 H                                       1.0898207
    10   6 C       21   1 H                                       1.0897722
    14   6 C       22   1 H                                       1.0882270
    14   6 C       23   1 H                                       1.0882566
    14   6 C       24   1 H                                       1.0865854

 * 4 distinct bonds (by element types)

   Z      Z             #   av. dist./Å        max./Å        min./Å
   1 H    6 C           9     1.0883134     1.0915762     1.0825749
   6 C    6 C           1     1.4193443     1.4193443     1.4193443
   6 C    7 N           9     1.3516359     1.4576807     1.1622327
   6 C    8 O           3     1.3238333     1.4457431     1.1978426


optimized geometry written to: xtbopt.xyz


           -------------------------------------------------
          | TOTAL ENERGY              -42.106267183116 Eh   |
          | GRADIENT NORM               0.003009268297 Eh/α |
          | HOMO-LUMO GAP               2.382457784288 eV   |
           -------------------------------------------------

------------------------------------------------------------------------
 * finished run on 2024/06/05 at 19:57:53.679     
------------------------------------------------------------------------
 total:
 * wall-time:     0 d,  0 h,  0 min,  1.963 sec
 *  cpu-time:     0 d,  0 h,  0 min,  1.946 sec
 * ratio c/w:     0.991 speedup
 SCF:
 * wall-time:     0 d,  0 h,  0 min,  0.043 sec
 *  cpu-time:     0 d,  0 h,  0 min,  0.043 sec
 * ratio c/w:     0.999 speedup
 ANC optimizer:
 * wall-time:     0 d,  0 h,  0 min,  1.884 sec
 *  cpu-time:     0 d,  0 h,  0 min,  1.881 sec
 * ratio c/w:     0.998 speedup

