25
 energy: -42.106547559452 gnorm: 0.033029878312 xtb: 6.6.1 (8d0f1dd)
C            2.45837361414778        2.46574354178698        0.01312706672606
N            2.33718992312604       -0.82587581854875       -0.00342905116225
C            3.40657471480947       -1.28090131046122        0.00892254379987
N            0.39147473399479       -3.06826422781075       -0.01637143472661
C            0.13191100425495       -1.82783922394546       -0.00770414033153
C            1.04745201465482       -0.59903750713754       -0.00419894872700
C            0.53631665456581        0.72507451102652       -0.00179316514274
O            1.12070315094979        1.91748716875184       -0.00188816842592
N           -0.80565112844947        0.85271074734677       -0.00248646762578
C           -1.47310756748738        2.14802071308070       -0.00450565017964
C           -1.72825229327352       -0.23170398308322        0.00227331333077
O           -2.90227541747325        0.00593763846616        0.00705216603416
N           -1.20284912888835       -1.48779865998676        0.00168377829869
C           -2.14322591934914       -2.60157266940891        0.00730611300136
H            2.99279719069536        2.16010849427472        0.91452435998965
H            3.01219552940269        2.16253182008747       -0.87682077359220
H            2.29831883153570        3.54072587504422        0.01271973673714
H            4.40187986760573       -1.62287026576742       -0.00499574924933
H           -0.74969911456847        2.95335541129432        0.00468090203683
H           -2.10355107002701        2.21845917371446       -0.89067067626118
H           -2.11984659856760        2.21245194804920        0.87024033020740
H           -1.96765302351458       -3.21696841288301        0.88747656649530
H           -1.98310146575618       -3.21361615471089       -0.87816839925701
H           -3.15288137795815       -2.20010849733371        0.01679636251860
H            1.35733838964008       -3.36781177025039       -0.02259899657169
25
 energy: -42.111778038051 gnorm: 0.017004357051 xtb: 6.6.1 (8d0f1dd)
C            2.45687357969404        2.38654872235311        0.01268647553637
N            2.33443783184926       -0.80290949587634        0.00048392487927
C            3.40182009449617       -1.26403067379744        0.00234462552176
N            0.43732064801942       -3.00914041434408       -0.01521840916413
C            0.13832533196253       -1.78760682662170       -0.00676316433411
C            1.04498198604758       -0.57366488595645       -0.00249782431340
C            0.51529082820118        0.73350959173745       -0.00142502420439
O            1.10160127006576        1.91336940798291       -0.00201053814135
N           -0.82508750621537        0.85971573249424       -0.00247023313560
C           -1.48870244343832        2.15549632192828       -0.00457289249385
C           -1.74275121385679       -0.22651952560905        0.00217871525435
O           -2.91839296186456        0.00240675096007        0.00656689131259
N           -1.20381341670836       -1.47611749248085        0.00177497826873
C           -2.13296418607606       -2.59988605236506        0.00696907617549
H            2.98402652862805        2.08087579811489        0.91690171074166
H            3.00332576800986        2.08289242027909       -0.88052956400715
H            2.33107545671384        3.46915393326983        0.01260003891469
H            4.39818231055130       -1.60611711177492       -0.00333986133112
H           -0.76141214584228        2.95753250062000        0.00480317137485
H           -2.11709330701090        2.22600741897569       -0.89172893678444
H           -2.13365597765085        2.21989801845613        0.87102702928761
H           -1.95469343163263       -3.21437542494799        0.88716533476455
H           -1.96975221801822       -3.21098115932649       -0.87851239065038
H           -3.14598343310768       -2.20659283525224        0.01625901234754
H            1.40747212125296       -3.29122617722374       -0.02152052789662
25
 energy: -42.116000622836 gnorm: 0.015462499443 xtb: 6.6.1 (8d0f1dd)
C            2.45672784964033        2.28021053576257        0.01196092954334
N            2.32857804528074       -0.75853349232194       -0.00169625241276
C            3.39135382482604       -1.23047856057297       -0.00137320091037
N            0.49863943160900       -2.94064951719686       -0.01405756736389
C            0.14814566351895       -1.73575622607958       -0.00516478339078
C            1.03958894341737       -0.52976881526662       -0.00179530607347
C            0.48299086991350        0.75703903306426       -0.00049748139808
O            1.07357473457649        1.92601096234563       -0.00194265541098
N           -0.85576921868743        0.87360334854305       -0.00177598762438
C           -1.51791345111736        2.16913062117788       -0.00448453314713
C           -1.76266603589653       -0.21946722875852        0.00250385935874
O           -2.94085309758683       -0.00468006253934        0.00628971801691
N           -1.20293623231658       -1.46075971245689        0.00238117968105
C           -2.11178180237882       -2.60080043715041        0.00657734269839
H            2.96479742835736        1.94505239956889        0.91622674317831
H            2.98320681870239        1.94651516123214       -0.88239737174247
H            2.41827437455154        3.37874006672171        0.01256956772488
H            4.38584058773887       -1.58036107357953        0.00067018080117
H           -0.78821635207536        2.96931701120837        0.00514457011111
H           -2.14438669392350        2.24013099545054       -0.89245977420938
H           -2.16162090888878        2.23401979532112        0.87148041350724
H           -1.92733558721870       -3.21233557087817        0.88750649328275
H           -1.94169277845941       -3.20849235225033       -0.87990258658288
H           -3.13007922935037       -2.22016839786180        0.01553358802277
H            1.47396432983703       -3.19927994188784       -0.02012546773712
25
 energy: -42.118167502097 gnorm: 0.020387542725 xtb: 6.6.1 (8d0f1dd)
C            2.46431329001895        2.19590072647462        0.01154061373211
N            2.32234550077153       -0.71102120142284        0.00659591755445
C            3.37985954040498       -1.19618019717075       -0.00890766761040
N            0.53843095873229       -2.89625601630042       -0.01201711934829
C            0.15627512679916       -1.70052679322591       -0.00441193346412
C            1.03293261698846       -0.48766941519451        0.00030522471589
C            0.45598544990575        0.78677381796513       -0.00102229859275
O            1.05682410022890        1.95051633276112       -0.00216946251512
N           -0.88204574031106        0.89044032496140       -0.00217504212167
C           -1.55006990737677        2.18316895246523       -0.00455749377698
C           -1.77588537883633       -0.21360147433527        0.00206464276079
O           -2.95643445872397       -0.01343289193273        0.00558610844979
N           -1.19845366657080       -1.44887483828024        0.00219435278129
C           -2.08872845173735       -2.60282098160636        0.00600761819407
H            2.94495161850782        1.81652644765148        0.91595600589049
H            2.96254786302435        1.81825611674114       -0.88424461093892
H            2.51722258093153        3.30101874744304        0.01310211291237
H            4.37239012034028       -1.55161530724739       -0.00040367063070
H           -0.82217535414252        2.98527245696450        0.00554560172211
H           -2.17631561443413        2.25364245171398       -0.89273291026798
H           -2.19420993741476        2.24706079457259        0.87119484258054
H           -1.89572982833545       -3.21115618768290        0.88727274897865
H           -1.90955705061046       -3.20710737438371       -0.88097268480110
H           -3.11279327867326       -2.23664398990428        0.01470424657496
H            1.51875141458279       -3.13343195943156       -0.01728352485658
25
 energy: -42.119300008568 gnorm: 0.015878960383 xtb: 6.6.1 (8d0f1dd)
C            2.47194751575687        2.14048513338718        0.01075684451018
N            2.31783874474650       -0.67289901116768       -0.00232898962024
C            3.36849384473868       -1.17267229787085       -0.01461594422476
N            0.55766500032119       -2.87305862900470       -0.01165252380197
C            0.16238707273933       -1.68150375769402       -0.00298174890516
C            1.02760441039291       -0.45613911857628       -0.00064830527280
C            0.43916426065703        0.81258549726920        0.00056476260744
O            1.05425799508158        1.97341071827844       -0.00128505892639
N           -0.89832803092815        0.90637573718323       -0.00064561416813
C           -1.57562951094326        2.19516036420278       -0.00415820347605
C           -1.78106173266143       -0.20819934374216        0.00295888532486
O           -2.96319576649653       -0.01999815080406        0.00583888749713
N           -1.19166287149923       -1.43949706564606        0.00318318924183
C           -2.06780161250362       -2.60329486919260        0.00576803240717
H            2.92466374463762        1.72462999673849        0.91513260474881
H            2.94035346257039        1.72674652523575       -0.88677501650727
H            2.59066657147406        3.23596815376107        0.01318590537591
H            4.35810732651957       -1.53524546637564        0.01137078357023
H           -0.85136283955830        3.00093065805205        0.00635094015073
H           -2.20277601860438        2.26400241492871       -0.89228074710444
H           -2.22183157303164        2.25745441643321        0.87061184398536
H           -1.86583207926318       -3.20929508673839        0.88667414445631
H           -1.87884497131661       -3.20443751437263       -0.88141264934565
H           -3.09695266514938       -2.25139627926524        0.01414031041532
H            1.54256123638987       -3.09187448342444       -0.01658071501551
25
 energy: -42.119772290994 gnorm: 0.008692198538 xtb: 6.6.1 (8d0f1dd)
C            2.47303386353632        2.12161691378972        0.01080353140714
N            2.31530256251426       -0.65555886599359        0.01400985470318
C            3.35749905896136       -1.17569705263962       -0.03015269060763
N            0.56166820096028       -2.86751110147147       -0.00894460524196
C            0.16574010682433       -1.67604503182875       -0.00281978223300
C            1.02448174316980       -0.44116318139812        0.00231229236688
C            0.43313701161396        0.82750934177743       -0.00098214693115
O            1.05895291969532        1.98771139596150       -0.00131117685182
N           -0.90383075308008        0.91709544819739       -0.00188242973495
C           -1.58889210837832        2.20227573557802       -0.00430801144046
C           -1.78050988553758       -0.20402888719061        0.00189677423980
O           -2.96327855824767       -0.02267249982581        0.00473961275492
N           -1.18601780295632       -1.43322759026353        0.00241355423101
C           -2.05381266895294       -2.60260185044549        0.00514793204571
H            2.90799617947800        1.68725518735864        0.91337213644963
H            2.92267436718271        1.69184086470378       -0.88645262538168
H            2.62971236245568        3.20148605537486        0.01447267113327
H            4.34604519063052       -1.53843723191145        0.00988650019391
H           -0.86782783177355        3.01126366163603        0.00692033581219
H           -2.21728619820946        2.26935810092552       -0.89211254198697
H           -2.23698950555658        2.26187108757235        0.86975177198003
H           -1.84433250668744       -3.20685022334908        0.88566586248043
H           -1.85690724793172       -3.20212715431128       -0.88153078933914
H           -3.08629131943379       -2.26193041440753        0.01324047504130
H            1.55016433379286       -3.07319416624352       -0.01296488716772
