72
 energy: -99.238567532178 gnorm: 0.498755808175 xtb: 6.6.1 (8d0f1dd)
N           -1.58761032277588        2.71148431986967        2.30838573331698
C           -1.58577565753985        2.03963795742587        1.25565661641021
C           -2.76944070208985        1.87607377986609        0.34269698168358
C           -3.27639923460706        0.44370114064669        0.41884858409257
C           -4.19789799699971       -0.01713165288059       -0.52379309977194
C           -4.70116991025442       -1.30611306425024       -0.47362794414132
O           -5.58699493713617       -1.83158836413380       -1.34575657382767
C           -6.10696741322058       -1.02181970021126       -2.37354790766053
C           -4.27718669306852       -2.18322280469941        0.56104470360932
O           -4.82046633944364       -3.41665791468248        0.53406348661352
C           -4.51307562467659       -4.32313447579652        1.56741857307928
C           -3.36577104194438       -1.71807395982444        1.49540862152455
C           -2.87132390887352       -0.42189582214290        1.42280531230707
C           -2.24679255847475        2.18253259865202       -1.08448370916422
C           -1.35454172352021        1.08070601006155       -1.68124188095024
C            0.02227345145838        1.05165075936136       -1.13622333967977
N            0.69542827316707       -0.04625914671694       -0.80823377887795
C            2.13334251089853       -0.01730949787630       -0.67504823267083
C            2.80172318545123       -0.56260972607066       -1.93980262068836
C            4.35244004584167       -0.58410317519681       -1.81798039145168
C            4.91003460815068        0.81553457701848       -1.79674718799898
C            5.88270126728433        1.19705256073600       -0.93539254745498
C            6.36250231285795        0.33766792232534        0.07777980776736
O            7.35615983026386        0.60643883961768        0.91759016817910
C            8.10896311634024        1.79350252441870        0.77718759710868
C            5.71903308568593       -0.94375317039595        0.24905195870452
O            6.14445299486731       -1.66119977593890        1.31754960406960
C            5.58649500852380       -2.94723979944844        1.44659560386858
C            4.75883379864179       -1.34783588027052       -0.61242243180178
C            0.05184185392411       -1.33415760930317       -0.70492075725151
C           -3.95559953321066        2.82600513617559        0.68694079784061
C           -4.57028666936801        2.48814361034167        2.04302234135380
C           -3.57192881459966        4.30263572437100        0.64940506215554
H           -4.53708510272665        0.64792954028665       -1.30036285969129
H           -6.64231231482249       -0.15615275226719       -1.97163423508506
H           -6.80504669589791       -1.65443067098012       -2.91841878697194
H           -5.32033508948131       -0.68274970612706       -3.05598132773520
H           -4.80691034177118       -3.93036697160203        2.54523236400558
H           -5.09041276496249       -5.21960717806661        1.35035763236688
H           -3.44734956647643       -4.57283672922410        1.57884343096058
H           -3.03809747691469       -2.35566339843293        2.30023499095258
H           -2.18400847184560       -0.08664638535946        2.18401483791804
H           -3.09983868139005        2.32549908711400       -1.74661544409549
H           -1.68906354193123        3.11954824155276       -1.06190211047888
H           -1.84716244330892        0.11538783457108       -1.57979763841982
H           -1.26357788550043        1.29683552983728       -2.75419213377067
H           -0.69019791161955        1.52336964920603        0.85543783913223
H            0.59081425636412        1.96953861858338       -1.17309628586334
H            2.43791842842207       -0.62858721457472        0.17879262071620
H            2.46500626325558        1.00799011409902       -0.49915665975380
H            2.51535219243148        0.04837312364665       -2.79806449421500
H            2.46589853972007       -1.58473290030231       -2.11596060025708
H            4.54894909635444        1.49668891534342       -2.55332537028081
H            6.29618830901489        2.19143117605376       -1.01259624459735
H            7.49904097252843        2.67843066879582        0.98242944453383
H            8.54642277167554        1.87190459317334       -0.22251858195164
H            8.90448175986206        1.72450559218453        1.51747709952128
H            6.05145824082706       -3.39619350193708        2.32185616544175
H            4.50179064286305       -2.88825521033895        1.58541880691039
H            5.79397792237879       -3.55260186036952        0.55940627513018
H            4.64691616727023       -0.97940590216977       -2.50530668906777
H           -0.21730604324877       -1.72849727968843       -1.68730561022836
H           -0.85423792724901       -1.25714829949223       -0.09966972280456
H            0.73215567912049       -2.03407508557077       -0.22581903646548
H           -4.71960471920900        2.65417222960675       -0.08023226809676
H           -3.84090290598297        2.64355228195463        2.83135659283904
H           -4.91145932838205        1.45634389432236        2.07445797785435
H           -5.42338663581183        3.13588338192710        2.22700892877626
H           -2.79307830481534        4.50837068359104        1.37703968128581
H           -3.23350893373171        4.61015957712672       -0.33633863535603
H           -4.44102751653645        4.90303466404281        0.90447235335375
H           -0.72094130302877        2.77447925092702        2.83349338580103
72
 energy: -99.299490575253 gnorm: 0.053854039030 xtb: 6.6.1 (8d0f1dd)
N           -1.58747997544899        2.71164779741761        2.30823844951746
C           -1.58565412289352        2.03975046990580        1.25555559242399
C           -2.76941704947301        1.87605938729598        0.34270889349961
C           -3.27632523547498        0.44367679445052        0.41879329297744
C           -4.19785403009369       -0.01715158635773       -0.52381431792695
C           -4.70118969906026       -1.30610710328073       -0.47361087888545
O           -5.58690683688321       -1.83160410996582       -1.34579616613640
C           -6.10702348543683       -1.02180114942811       -2.37341484700542
C           -4.27715895709723       -2.18322989126661        0.56103577572768
O           -4.82031163044782       -3.41670101919455        0.53398861529253
C           -4.51303137618031       -4.32313940280212        1.56743860553617
C           -3.36566936050571       -1.71810206445818        1.49535911806811
C           -2.87124058285079       -0.42191795043978        1.42275976753850
C           -2.24695954308481        2.18272492521922       -1.08449662983686
C           -1.35512479752828        1.08092327243656       -1.68159693446508
C            0.02109101602088        1.05212570603973       -1.13614085149379
N            0.69287185960613       -0.04565243461988       -0.80689740745786
C            2.12900713236540       -0.01547342501320       -0.67130988757891
C            2.79207255561347       -0.55892273362059       -1.93449366411257
C            4.32820025666329       -0.55564851883300       -1.76911381224990
C            4.90488006702142        0.82601808508750       -1.78501070587443
C            5.88463379541613        1.20099673077409       -0.93183504630577
C            6.36303047135429        0.33895645812489        0.08011886170006
O            7.35767662191803        0.60639213944303        0.91825432193366
C            8.10925681849350        1.79378440205164        0.77738719507870
C            5.72044605613131       -0.94259767114958        0.25433770912823
O            6.14724157071814       -1.66193723508958        1.31989280867000
C            5.58720549030518       -2.94741538350492        1.44714650185667
C            4.75204818946991       -1.34274113470807       -0.59594583908706
C            0.05099361932238       -1.33428192391132       -0.70482037888348
C           -3.95555996589895        2.82597454548262        0.68698054337407
C           -4.57019865352906        2.48814684487771        2.04309966201401
C           -3.57188636538322        4.30260931910642        0.64939251299644
H           -4.53703579518740        0.64789976104567       -1.30039300334065
H           -6.64223271293369       -0.15618387725218       -1.97146258070377
H           -6.80513869155084       -1.65440443795908       -2.91814515305069
H           -5.32054376999628       -0.68275123171614       -3.05591057557758
H           -4.80686377787569       -3.93030021433670        2.54524785694067
H           -5.09041819058683       -5.21960984846171        1.35041142276867
H           -3.44730890682797       -4.57291796540874        1.57889878061851
H           -3.03794355444752       -2.35570874760393        2.30016516256232
H           -2.18392233100808       -0.08668247163045        2.18398625606755
H           -3.09999970885994        2.32572973012553       -1.74658525302363
H           -1.68903938510818        3.11959445249166       -1.06188300535157
H           -1.84738119563957        0.11546146585627       -1.58003269132419
H           -1.26370760902066        1.29703525620226       -2.75451092216097
H           -0.69017973323700        1.52321857510271        0.85552636547212
H            0.59043168320271        1.96957361727930       -1.17312702661538
H            2.43666336707057       -0.62836125504106        0.18040826741638
H            2.46349125390968        1.00922967093545       -0.49791353781128
H            2.51465902177473        0.04974515067931       -2.79724642780511
H            2.46646929542535       -1.58420912807543       -2.11432977123658
H            4.54923581026239        1.49852601137866       -2.55150609711740
H            6.29977480290457        2.19359477319701       -1.01184499044341
H            7.49914379348009        2.67827745674968        0.98261201364726
H            8.54628703435759        1.87205282441043       -0.22208738174977
H            8.90441773171218        1.72481199764686        1.51740434352045
H            6.05127442561888       -3.39664495129762        2.32208048636577
H            4.50258730624548       -2.88806443329329        1.58562672248107
H            5.79376603066716       -3.55252538874394        0.55955329362360
H            4.69237221335663       -1.04364147764576       -2.61622530146734
H           -0.21739429180086       -1.72849386033040       -1.68753554174121
H           -0.85496701990620       -1.25752482387917       -0.09964029573526
H            0.73189077260743       -2.03390132677438       -0.22579673604274
H           -4.71961299681940        2.65412376946049       -0.08015913683290
H           -3.84081833270741        2.64367580754318        2.83137572989415
H           -4.91127779712556        1.45632172660521        2.07460827171351
H           -5.42335906119617        3.13580036414165        2.22701976710195
H           -2.79302385561552        4.50838704770648        1.37708914139418
H           -3.23340317277296        4.61014924759041       -0.33644265583858
H           -4.44110514634176        4.90303121828193        0.90438542046025
H           -0.72093576218189        2.77446289744153        2.83345276549475
72
 energy: -99.301030017378 gnorm: 0.030046459287 xtb: 6.6.1 (8d0f1dd)
N           -1.58690968472865        2.71269781154245        2.30723405924717
C           -1.58552673648280        2.04035783333283        1.25481742628942
C           -2.76978464989860        1.87639233117758        0.34257602721310
C           -3.27604184017960        0.44375647675251        0.41862025004196
C           -4.19761392521882       -0.01727283163246       -0.52383167760942
C           -4.70064751333283       -1.30633664794193       -0.47358701610678
O           -5.58662245800452       -1.83188027430716       -1.34545120739932
C           -6.10781741856235       -1.02176743557336       -2.37220890513280
C           -4.27616036105315       -2.18348920411694        0.56080851820607
O           -4.81919599970627       -3.41702695020743        0.53381861386668
C           -4.51240383149448       -4.32320342949966        1.56765851613345
C           -3.36446280563745       -1.71827540005220        1.49487366123630
C           -2.87038948441371       -0.42192956934027        1.42230657621511
C           -2.24944369777200        2.18426050617361       -1.08511362251397
C           -1.35916445488830        1.08237392259718       -1.68390164437582
C            0.01612026359736        1.05295129813622       -1.13686759033599
N            0.68688687942867       -0.04481812978525       -0.80655197489956
C            2.12349332006907       -0.01518201754333       -0.67239709928238
C            2.79800372314845       -0.55877727121304       -1.93360151430992
C            4.33326538295222       -0.55810364564652       -1.77276779938986
C            4.90763101772722        0.82287125082373       -1.78639175624263
C            5.88654245272247        1.20044813987565       -0.93002633486522
C            6.36271063099557        0.34010020638224        0.08409438712032
O            7.35787590139776        0.60751219875747        0.92222942156880
C            8.10911504318356        1.79515400408324        0.78107797011985
C            5.72037514751278       -0.94137312189627        0.25646264279015
O            6.15163625562645       -1.66302856692557        1.31945667227545
C            5.59103525209047       -2.94823978878115        1.44776296424695
C            4.75315864835428       -1.34301021401315       -0.59852338068283
C            0.04580371882027       -1.33388130856984       -0.70527261882347
C           -3.95577260379119        2.82605627026395        0.68753205137980
C           -4.56950741587298        2.48828559920525        2.04404355428598
C           -3.57202938891191        4.30266256644833        0.64934076343279
H           -4.53700320594556        0.64769097397910       -1.30039462532029
H           -6.64237825882110       -0.15619919871339       -1.96941024405204
H           -6.80663753699560       -1.65420730039695       -2.91616078381501
H           -5.32215328173056       -0.68262454613101       -3.05553456454117
H           -4.80624520426183       -3.92984688398155        2.54526940026594
H           -5.09014619578791       -5.21952458473240        1.35090580390328
H           -3.44678684752631       -4.57344705728265        1.57940073400103
H           -3.03628500562186       -2.35595623331822        2.29944570070312
H           -2.18296085995148       -0.08667637802994        2.18343329830469
H           -3.10308227855864        2.32856208468780       -1.74612387181973
H           -1.69052600734633        3.12052769781224       -1.06216359364419
H           -1.85156330147458        0.11693471238562       -1.58308243040815
H           -1.26708923499333        1.29940788150668       -2.75661635600880
H           -0.69050670846825        1.52269687849535        0.85536465970573
H            0.58609539558662        1.96999629794546       -1.17344878523366
H            2.42950470847050       -0.62648727618824        0.18145930024146
H            2.45592439964541        1.01006397809778       -0.49653153216825
H            2.51723646383612        0.05007850771985       -2.79484282201448
H            2.46979526364846       -1.58296956863509       -2.11126319116444
H            4.54853453021473        1.49781894153458       -2.54869344511989
H            6.30969294084112        2.19017818121008       -1.01544476666324
H            7.49876765533960        2.67945312232125        0.98560063278638
H            8.54603210426279        1.87315049198224       -0.21828471136417
H            8.90431709820787        1.72703677532092        1.52086486367809
H            6.05481097694032       -3.39801178037022        2.32245488367732
H            4.50677775950303       -2.88723740803096        1.58724213409147
H            5.79498997478201       -3.55344755911694        0.55978483405462
H            4.70858461708215       -1.05819488153614       -2.63829132390054
H           -0.22109706007531       -1.72768319864632       -1.68855676285564
H           -0.86062947112804       -1.25902903237707       -0.10044657138000
H            0.72757515386441       -2.03293216540067       -0.22663223878520
H           -4.72016907066995        2.65388591972478       -0.07919251161271
H           -3.83988178438493        2.64476615085326        2.83188650232454
H           -4.90968686364078        1.45618219643951        2.07614212653889
H           -5.42312503220169        3.13531550105668        2.22793950033197
H           -2.79318819022465        4.50867679628842        1.37704206474628
H           -3.23337675061478        4.60986522676456       -0.33660919464995
H           -4.44134177581392        4.90316715188732        0.90395120259055
H           -0.72042288666789        2.77487449885890        2.83258159348319
72
 energy: -99.301751273276 gnorm: 0.005794462835 xtb: 6.6.1 (8d0f1dd)
N           -1.58585591353081        2.71437215520970        2.30522033901630
C           -1.58567709650267        2.04078720013540        1.25360174209847
C           -2.77059336385443        1.87709027701870        0.34220526015583
C           -3.27579011378342        0.44411732643496        0.41844271066985
C           -4.19744721843939       -0.01734771062092       -0.52369956900965
C           -4.69976753375604       -1.30668017250171       -0.47340355570077
O           -5.58615743102735       -1.83237371954098       -1.34470227655268
C           -6.10960187617511       -1.02170776491779       -2.36983435058614
C           -4.27422100296414       -2.18387125466176        0.56050959459497
O           -4.81688962858235       -3.41756534893646        0.53361238468288
C           -4.51097873918127       -4.32323640775718        1.56816985154659
C           -3.36210934314054       -1.71840573971954        1.49405362414669
C           -2.86894520174642       -0.42165856443888        1.42160770958164
C           -2.25204309597677        2.18586949736784       -1.08594409572855
C           -1.36289972060144        1.08446857633250       -1.68749692084352
C            0.01317713252189        1.05302316620076       -1.14214541687192
N            0.68350335358433       -0.04507528230051       -0.81061833276697
C            2.12018473962267       -0.01487806256294       -0.67305988656443
C            2.79930846991787       -0.56020947811426       -1.93517033319015
C            4.33302792332746       -0.55906652468080       -1.77144238859052
C            4.91103411837757        0.81931408537890       -1.78670125364145
C            5.89040565882533        1.19822517043304       -0.92955270310063
C            6.36461878317941        0.33969789013382        0.08650356315031
O            7.35811529290233        0.60850983399110        0.92691815477016
C            8.10818840280279        1.79710682920294        0.78697771657794
C            5.72288547803750       -0.94157377185046        0.25794007580416
O            6.15734238732953       -1.66447163047512        1.31905748157038
C            5.59592525161339       -2.94917950230790        1.44922056733136
C            4.75543738433029       -1.34365392212405       -0.59870263742912
C            0.04103844854080       -1.33367007894091       -0.70905118501009
C           -3.95643895995316        2.82622993245400        0.68885471093181
C           -4.56834162636859        2.48875515163477        2.04622139832029
C           -3.57299587680262        4.30289589774796        0.64969091802718
H           -4.53740270069433        0.64749041867941       -1.30011459373240
H           -6.64301276890001       -0.15623822556727       -1.96534805139655
H           -6.80980024751221       -1.65379775390710       -2.91238285990626
H           -5.32550835612426       -0.68236605555507       -3.05484191520055
H           -4.80476252723069       -3.92890852885825        2.54541412978030
H           -5.08939153982821       -5.21926430599532        1.35194314082130
H           -3.44557581087090       -4.57435532647475        1.58035511619015
H           -3.03291541537831       -2.35621444199316        2.29812154760587
H           -2.18117078533982       -0.08632867413308        2.18239685777242
H           -3.10692790731691        2.33228621606705       -1.74492902665446
H           -1.69231372462372        3.12161594259424       -1.06266786837836
H           -1.85607268027023        0.11923493300511       -1.58841760805932
H           -1.27185577051397        1.30374449653855       -2.75984231170947
H           -0.69125808787915        1.52243700845599        0.85395662408871
H            0.58292428160275        1.97023884937627       -1.17681814907196
H            2.42272533546006       -0.62517208891323        0.18323410131245
H            2.44981743597147        1.01141357570416       -0.49567517560706
H            2.51727655427733        0.04919846182455       -2.79576238867364
H            2.46931602888682       -1.58411921423448       -2.11034096959046
H            4.55080695852048        1.49732819986150       -2.54567661014816
H            6.31547323194769        2.18738141702653       -1.01568662558496
H            7.49645988641908        2.68071703070370        0.99013233810363
H            8.54709008274643        1.87528706777540       -0.21142897170448
H            8.90215880614820        1.73027531664922        1.52810455264993
H            6.06025098275893       -3.39899880569767        2.32349967097025
H            4.51197684518886       -2.88673900596607        1.59001836626080
H            5.79794905400148       -3.55499415132599        0.56125623274927
H            4.72193814896775       -1.07400430719355       -2.65869742963487
H           -0.22516405790860       -1.72808629254922       -1.69231273202632
H           -0.86627588853095       -1.25824568713110       -0.10535007976822
H            0.72168374366083       -2.03272341856433       -0.22890743546686
H           -4.72178118723227        2.65362242017311       -0.07682605300285
H           -3.83818168108582        2.64705069861886        2.83319766701986
H           -4.90673330238597        1.45609685911118        2.07944792593643
H           -5.42284071768285        3.13453069608425        2.23035302901636
H           -2.79407016927767        4.50943953495150        1.37715887331394
H           -3.23435555935731        4.60953740864945       -0.33645851285061
H           -4.44236273273991        4.90351104079286        0.90386119136561
H           -0.71903724340402        2.77642016068403        2.83001594842633
72
 energy: -99.301793973664 gnorm: 0.000843507064 xtb: 6.6.1 (8d0f1dd)
N           -1.58463292212135        2.71578312902735        2.30373873938293
C           -1.58514890308218        2.04154842560196        1.25252276060502
C           -2.77070601583792        1.87744517222474        0.34202460768097
C           -3.27545118457737        0.44430425915274        0.41824711555248
C           -4.19740334112562       -0.01735279580306       -0.52353079025086
C           -4.69926939529622       -1.30686536519741       -0.47318582638736
O           -5.58601579754900       -1.83267524321118       -1.34405032598006
C           -6.11113416785954       -1.02165708847523       -2.36805777795644
C           -4.27289261610348       -2.18408776679989        0.56036340678254
O           -4.81524573861362       -3.41791578783751        0.53356441445028
C           -4.50974306255385       -4.32320126043472        1.56858415988514
C           -3.36046940553200       -1.71845885891075        1.49351367578358
C           -2.86786116784841       -0.42149880482721        1.42108438446779
C           -2.25299107146292        2.18680416535328       -1.08635801075965
C           -1.36486631218211        1.08560736376604       -1.69001594976850
C            0.01170318395100        1.05317902121208       -1.14593801857467
N            0.68179247280473       -0.04512923837889       -0.81434111212812
C            2.11838584141711       -0.01501759656409       -0.67426716563885
C            2.79965074922912       -0.56103597162445       -1.93485388110306
C            4.33260058281176       -0.55922207235429       -1.76875272699943
C            4.91174902711426        0.81824773321901       -1.78590472473571
C            5.89163105137882        1.19697745496119       -0.92954953245204
C            6.36586917941382        0.33882123163553        0.08674600284325
O            7.35792735241578        0.60861127898192        0.92877566293794
C            8.10695012759847        1.79807181117380        0.79051293572994
C            5.72498134514886       -0.94289002521747        0.25794701290711
O            6.16010841153796       -1.66566013518692        1.31866751697034
C            5.59855488834350       -2.95015164424849        1.45002139272289
C            4.75653524243367       -1.34445452246149       -0.59726838791254
C            0.03842854237228       -1.33326296218446       -0.71254749974517
C           -3.95664704114567        2.82621600115912        0.68958160863878
C           -4.56712349991354        2.48884794849895        2.04763591999560
C           -3.57389432554957        4.30306531309115        0.64990997658454
H           -4.53793869104437        0.64749483809731       -1.29968574101781
H           -6.64382763997997       -0.15629728797849       -1.96237398775654
H           -6.81227017551030       -1.65352286242402       -2.90966268451209
H           -5.32815857703546       -0.68212366490191       -3.05426464550474
H           -4.80336894059156       -3.92821828398978        2.54560882618701
H           -5.08857490648947       -5.21906558578411        1.35279603302888
H           -3.44446743497981       -4.57483460787142        1.58094067504824
H           -3.03055923304629       -2.35632725389290        2.29724286992699
H           -2.17991801718499       -0.08606361747671        2.18167427366046
H           -3.10835270632534        2.33382314814169       -1.74460144168885
H           -1.69307586368739        3.12247308062219       -1.06297609062192
H           -1.85833275099739        0.12041340796648       -1.59188846439340
H           -1.27476767009844        1.30642654952866       -2.76214192449343
H           -0.69135976337021        1.52197199842176        0.85322343364545
H            0.58154551039692        1.97032961582573       -1.18047588375357
H            2.41960919155679       -0.62523072767637        0.18233632724107
H            2.44806125812174        1.01116323081487       -0.49727578759942
H            2.51894973439567        0.04806568837367       -2.79597497971397
H            2.46981357240714       -1.58497792712362       -2.10989214338017
H            4.55272144426625        1.49645880020785       -2.54540795139548
H            6.31680481164454        2.18588790798098       -1.01626290901634
H            7.49392261513125        2.68098021750291        0.99295515707170
H            8.54767135619081        1.87708200457131       -0.20704539091750
H            8.89963459362780        1.73187485548132        1.53316196721037
H            6.06376570222812       -3.39948460137989        2.32411384622734
H            4.51476169734492       -2.88747539045953        1.59182401444857
H            5.79989592181273       -3.55652999844634        0.56225886874878
H            4.72502841615563       -1.07791385147924       -2.66073523566277
H           -0.22752892376991       -1.72792675901158       -1.69576141796029
H           -0.86920836168988       -1.25667556328022       -0.10945726385948
H            0.71813897221834       -2.03264707139783       -0.23154377672066
H           -4.72276349958041        2.65320204208975       -0.07525604893572
H           -3.83661143477384        2.64850882156760        2.83401850090222
H           -4.90435698238915        1.45583552254536        2.08183817446013
H           -5.42221577126201        3.13378441121743        2.23198926400105
H           -2.79487417349038        4.51008479762237        1.37713711050549
H           -3.23559610811655        4.60958578265891       -0.33638173159671
H           -4.44342210367689        4.90341879213071        0.90413497479262
H           -0.71763150102887        2.77759589435539        2.82825646247151
