25
 energy: -42.135886006774 gnorm: 0.003068359486 xtb: 6.6.1 (8d0f1dd)
C            3.42975171510597        1.61794095038068        0.02092352571600
N            2.61364516234872        0.43161232562552        0.00666017108575
C            3.03391545826950       -0.82608600866619        0.00229694220764
N            1.98660151764334       -1.66829185641191       -0.00129758047140
C            0.83480300196374       -0.92250641655634        0.00166410703783
C            1.24675172835163        0.41655059946631        0.00682351951670
C            0.26286153207324        1.47695411553671       -0.00231135547798
O            0.50887137326537        2.66656384613084       -0.01168722050528
N           -1.02313900279184        0.96576626734806       -0.00257987005341
C           -2.12571585940628        1.90482463156178       -0.00712636484108
C           -1.38319888281092       -0.40424820442482        0.00041617716613
O           -2.56085948546439       -0.68971990027507        0.00256331567569
N           -0.40452270590287       -1.34349309290908       -0.00125049346896
C           -3.25989781037668       -3.54531386910081       -0.00908998679570
H            3.95533053394251        1.70452123079798        0.97258892009540
H            4.16282875074839        1.58399934197257       -0.78458760423035
H            2.78219900675775        2.48522027800665       -0.10623831967597
H            4.06378567532386       -1.12893023953670        0.00068434051420
H           -1.71694151620067        2.91343046707154       -0.00071205675616
H           -2.74109934630807        1.74987249648412       -0.89469638572520
H           -2.75330607038817        1.74256519861358        0.87049134194712
H           -3.05558466909592       -4.05219454514088        0.91253085501518
H           -3.06076993964385       -4.03476541132935       -0.94175471784683
H           -3.66053374839847       -2.54812190654687        0.00157630369893
H            2.02465509509343       -2.67791175649808       -0.00471594592876
