      -----------------------------------------------------------      
     |                   =====================                   |     
     |                           x T B                           |     
     |                   =====================                   |     
     |                         S. Grimme                         |     
     |          Mulliken Center for Theoretical Chemistry        |     
     |                    University of Bonn                     |     
      -----------------------------------------------------------      

   * xtb version 6.6.1 (8d0f1dd) compiled by 'conda@1efc2f54142f' on 2023-08-01

   xtb is free software: you can redistribute it and/or modify it under
   the terms of the GNU Lesser General Public License as published by
   the Free Software Foundation, either version 3 of the License, or
   (at your option) any later version.
   
   xtb is distributed in the hope that it will be useful,
   but WITHOUT ANY WARRANTY; without even the implied warranty of
   MERCHANTABILITY or FITNESS FOR A PARTICULAR PURPOSE.  See the
   GNU Lesser General Public License for more details.
   
   Cite this work as:
   * C. Bannwarth, E. Caldeweyher, S. Ehlert, A. Hansen, P. Pracht,
     J. Seibert, S. Spicher, S. Grimme, WIREs Comput. Mol. Sci., 2020, 11,
     e01493. DOI: 10.1002/wcms.1493
   
   for GFN2-xTB:
   * C. Bannwarth, S. Ehlert and S. Grimme., J. Chem. Theory Comput., 2019,
     15, 1652-1671. DOI: 10.1021/acs.jctc.8b01176
   for GFN1-xTB:
   * S. Grimme, C. Bannwarth, P. Shushkov, J. Chem. Theory Comput., 2017,
     13, 1989-2009. DOI: 10.1021/acs.jctc.7b00118
   for GFN0-xTB:
   * P. Pracht, E. Caldeweyher, S. Ehlert, S. Grimme, ChemRxiv, 2019, preprint.
     DOI: 10.26434/chemrxiv.8326202.v1
   for GFN-FF:
   * S. Spicher and S. Grimme, Angew. Chem. Int. Ed., 2020, 59, 15665-15673.
     DOI: 10.1002/anie.202004239
   
   for ALPB and GBSA implicit solvation:
   * S. Ehlert, M. Stahn, S. Spicher, S. Grimme, J. Chem. Theory Comput.,
     2021, 17, 4250-4261. DOI: 10.1021/acs.jctc.1c00471
   
   for DFT-D4:
   * E. Caldeweyher, C. Bannwarth and S. Grimme, J. Chem. Phys., 2017,
     147, 034112. DOI: 10.1063/1.4993215
   * E. Caldeweyher, S. Ehlert, A. Hansen, H. Neugebauer, S. Spicher,
     C. Bannwarth and S. Grimme, J. Chem. Phys., 2019, 150, 154122.
     DOI: 10.1063/1.5090222
   * E. Caldeweyher, J.-M. Mewes, S. Ehlert and S. Grimme, Phys. Chem. Chem. Phys.
     2020, 22, 8499-8512. DOI: 10.1039/D0CP00502A
   
   for sTDA-xTB:
   * S. Grimme and C. Bannwarth, J. Chem. Phys., 2016, 145, 054103.
     DOI: 10.1063/1.4959605
   
   in the mass-spec context:
   * V. Asgeirsson, C. Bauer and S. Grimme, Chem. Sci., 2017, 8, 4879.
     DOI: 10.1039/c7sc00601b
   * J. Koopman and S. Grimme, ACS Omega 2019, 4, 12, 15120-15133.
     DOI: 10.1021/acsomega.9b02011
   
   for metadynamics refer to:
   * S. Grimme, J. Chem. Theory Comput., 2019, 155, 2847-2862
     DOI: 10.1021/acs.jctc.9b00143
   
   for SPH calculations refer to:
   * S. Spicher and S. Grimme, J. Chem. Theory Comput., 2021, 17, 1701-1714
     DOI: 10.1021/acs.jctc.0c01306
   
   with help from (in alphabetical order)
   P. Atkinson, C. Bannwarth, F. Bohle, G. Brandenburg, E. Caldeweyher
   M. Checinski, S. Dohm, S. Ehlert, S. Ehrlich, I. Gerasimov, C. Hölzer
   A. Katbashev, J. Koopman, C. Lavigne, S. Lehtola, F. März, M. Müller,
   F. Musil, H. Neugebauer, J. Pisarek, C. Plett, P. Pracht, F. Pultar,
   J. Seibert, P. Shushkov, S. Spicher, M. Stahn, M. Steiner, T. Strunk,
   J. Stückrath, T. Rose, and J. Unsleber
   
 * started run on 2024/06/05 at 20:00:06.919     

           -------------------------------------------------
          |                Calculation Setup                |
           -------------------------------------------------

          program call               : xtb struc.xyz --opt loose --input .xc1 --gfn2
          hostname                   : n-62-11-66
          coordinate file            : struc.xyz
          omp threads                :                     1

   ID    Z sym.   atoms
    1    6 C      1, 3, 5-7, 10, 11, 14
    2    7 N      2, 4, 9, 13
    3    8 O      8, 12
    4    1 H      15-25
constraining bond 2 18 to    4.0600000 Å, actual value:    2.1303834 Å

           -------------------------------------------------
          |                 G F N 2 - x T B                 |
           -------------------------------------------------

        Reference                      10.1021/acs.jctc.8b01176
      * Hamiltonian:
        H0-scaling (s, p, d)           1.850000    2.230000    2.230000
        zeta-weighting                 0.500000
      * Dispersion:
        s8                             2.700000
        a1                             0.520000
        a2                             5.000000
        s9                             5.000000
      * Repulsion:
        kExp                           1.500000    1.000000
        rExp                           1.000000
      * Coulomb:
        alpha                          2.000000
        third order                    shell-resolved
        anisotropic                    true
        a3                             3.000000
        a5                             4.000000
        cn-shift                       1.200000
        cn-exp                         4.000000
        max-rad                        5.000000


          ...................................................
          :                      SETUP                      :
          :.................................................:
          :  # basis functions                  67          :
          :  # atomic orbitals                  67          :
          :  # shells                           39          :
          :  # electrons                        74          :
          :  max. iterations                   250          :
          :  Hamiltonian                  GFN2-xTB          :
          :  restarted?                      false          :
          :  GBSA solvation                  false          :
          :  PC potential                    false          :
          :  electronic temp.         5000.0000000     K    :
          :  accuracy                    1.0000000          :
          :  -> integral cutoff          0.2500000E+02      :
          :  -> integral neglect         0.1000000E-07      :
          :  -> SCF convergence          0.1000000E-05 Eh   :
          :  -> wf. convergence          0.1000000E-03 e    :
          :  Broyden damping             0.4000000          :
          ...................................................

 iter      E             dE          RMSdq      gap      omega  full diag
   1    -42.5894031 -0.425894E+02  0.445E+00    3.52       0.0  T
   2    -42.7683054 -0.178902E+00  0.251E+00    3.36       1.0  T
   3    -42.7759211 -0.761567E-02  0.147E+00    3.35       1.0  T
   4    -42.7728404  0.308066E-02  0.553E-01    3.33       1.0  T
   5    -42.7789548 -0.611444E-02  0.112E-01    3.35       1.0  T
   6    -42.7790473 -0.924914E-04  0.614E-02    3.33       1.0  T
   7    -42.7790721 -0.247928E-04  0.258E-02    3.34       1.0  T
   8    -42.7790772 -0.508996E-05  0.938E-03    3.34       2.1  T
   9    -42.7790779 -0.669422E-06  0.448E-03    3.34       4.5  T
  10    -42.7790780 -0.821510E-07  0.115E-03    3.34      17.4  T
  11    -42.7790780 -0.322663E-08  0.553E-04    3.34      36.2  T
  12    -42.7790780 -0.287051E-08  0.180E-04    3.34     111.1  T

   *** convergence criteria satisfied after 12 iterations ***

         #    Occupation            Energy/Eh            Energy/eV
      -------------------------------------------------------------
         1        2.0000           -0.9185990             -24.9964
       ...           ...                  ...                  ...
        31        1.9996           -0.6230278             -16.9534
        32        1.9995           -0.6194601             -16.8564
        33        1.9979           -0.5974976             -16.2587
        34        1.9932           -0.5789629             -15.7544
        35        1.9817           -0.5631863             -15.3251
        36        1.9779           -0.5602245             -15.2445
        37        1.9748           -0.5581234             -15.1873 (HOMO)
        38        0.0652           -0.4353579             -11.8467 (LUMO)
        39        0.0099           -0.4050467             -11.0219
        40        0.0013           -0.3732218             -10.1559
        41        0.0000           -0.2886859              -7.8555
        42                         -0.2065804              -5.6213
       ...                                ...                  ...
        67                          0.5625656              15.3082
      -------------------------------------------------------------
                  HL-Gap            0.1227656 Eh            3.3406 eV
             Fermi-level           -0.4890455 Eh          -13.3076 eV

 SCC (total)                   0 d,  0 h,  0 min,  0.040 sec
 SCC setup                      ...        0 min,  0.001 sec (  1.280%)
 Dispersion                     ...        0 min,  0.001 sec (  1.336%)
 classical contributions        ...        0 min,  0.000 sec (  0.430%)
 integral evaluation            ...        0 min,  0.009 sec ( 23.245%)
 iterations                     ...        0 min,  0.018 sec ( 44.268%)
 molecular gradient             ...        0 min,  0.012 sec ( 29.038%)
 printout                       ...        0 min,  0.000 sec (  0.374%)

         :::::::::::::::::::::::::::::::::::::::::::::::::::::
         ::                     SUMMARY                     ::
         :::::::::::::::::::::::::::::::::::::::::::::::::::::
         :: total energy             -15.654714650563 Eh    ::
         :: gradient norm             20.629916635075 Eh/a0 ::
         :: HOMO-LUMO gap              3.340621582928 eV    ::
         ::.................................................::
         :: SCC energy               -42.779077977399 Eh    ::
         :: -> isotropic ES            0.141123876439 Eh    ::
         :: -> anisotropic ES         -0.005230418907 Eh    ::
         :: -> anisotropic XC          0.011966818540 Eh    ::
         :: -> dispersion             -0.022657731803 Eh    ::
         :: repulsion energy           0.531105277918 Eh    ::
         :: add. restraining          26.593143889908 Eh    ::
         :: total charge               1.000000000002 e     ::
         :::::::::::::::::::::::::::::::::::::::::::::::::::::

      ----------------------------------------------------------- 
     |                   =====================                   |
     |                        A N C O P T                        |
     |                   =====================                   |
     |               Approximate Normal Coordinate               |
     |                Rational Function Optimizer                |
      ----------------------------------------------------------- 

          ...................................................
          :                      SETUP                      :
          :.................................................:
          :   optimization level             loose          :
          :   max. optcycles                   200          :
          :   ANC micro-cycles                  20          :
          :   degrees of freedom                69          :
          :.................................................:
          :   RF solver                   davidson          :
          :   write xtbopt.log                true          :
          :   linear?                        false          :
          :   energy convergence         0.5000000E-04 Eh   :
          :   grad. convergence          0.4000000E-02 Eh/α :
          :   maxmium RF displ.          1.0000000          :
          :   Hlow (freq-cutoff)         0.1000000E-01      :
          :   Hmax (freq-cutoff)         5.0000000          :
          :   S6 in model hess.         20.0000000          :
          ...................................................

generating ANC from model Hessian ...
Using Lindh-Hessian (1995)
 Shifting diagonal of input Hessian by    6.9777216356432801     
 Lowest  eigenvalues of input Hessian
    0.010000    0.475595    0.000000    0.000000    0.000000    0.000000
    0.000000    0.000000    6.981088    6.983298    6.983775    6.987071
    6.987946    6.989727    6.989801    6.991856    6.998904    7.001377
 Highest eigenvalues
    9.017230    9.160206    9.247636    9.379874    9.518425   15.835640


........................................................................
.............................. CYCLE    1 ..............................
........................................................................

 iter      E             dE          RMSdq      gap      omega  full diag
   1    -42.7790780 -0.427791E+02  0.626E-05    3.34       0.0  T
   2    -42.7790780 -0.124416E-10  0.329E-05    3.34     607.4  T
   3    -42.7790780  0.127898E-12  0.193E-05    3.34    1034.2  T
     SCC iter.                  ...        0 min,  0.004 sec
     gradient                   ...        0 min,  0.012 sec
 * total energy  :   -15.6547147 Eh     change       -0.6650680E-10 Eh
   gradient norm :    20.6299173 Eh/α   predicted     0.0000000E+00 (-100.00%)
   displ. norm   :     0.8861348 α      lambda       -0.1828087E+02
   maximum displ.:     0.8828546 α      in ANC's #3, #10, #8, ...

........................................................................
.............................. CYCLE    2 ..............................
........................................................................

 iter      E             dE          RMSdq      gap      omega  full diag
   1    -42.6343635 -0.426344E+02  0.136E+00    2.31       0.0  T
   2    -42.6064932  0.278704E-01  0.152E+00    2.53       1.0  T
   3    -42.6609933 -0.545001E-01  0.473E-01    2.29       1.0  T
   4    -42.6612118 -0.218513E-03  0.247E-01    2.35       1.0  T
   5    -42.6620463 -0.834460E-03  0.613E-02    2.30       1.0  T
   6    -42.6620791 -0.328592E-04  0.400E-02    2.31       1.0  T
   7    -42.6620972 -0.181279E-04  0.121E-02    2.31       1.7  T
   8    -42.6620993 -0.208101E-05  0.173E-03    2.31      11.5  T
   9    -42.6620993 -0.145551E-07  0.792E-04    2.31      25.2  T
  10    -42.6620993 -0.156998E-08  0.204E-04    2.31      98.1  T
     SCC iter.                  ...        0 min,  0.013 sec
     gradient                   ...        0 min,  0.011 sec
 * total energy  :   -30.6526615 Eh     change       -0.1499795E+02 Eh
   gradient norm :    13.2697135 Eh/α   predicted    -0.1631783E+02 (   8.80%)
   displ. norm   :     0.7361185 α      lambda       -0.9757737E+01
   maximum displ.:     0.7297443 α      in ANC's #3, #9, #10, ...

........................................................................
.............................. CYCLE    3 ..............................
........................................................................

 iter      E             dE          RMSdq      gap      omega  full diag
   1    -42.5035571 -0.425036E+02  0.109E+00    1.29       0.0  T
   2    -42.4215300  0.820271E-01  0.186E+00    1.65       1.0  T
   3    -42.5271944 -0.105664E+00  0.589E-01    1.44       1.0  T
   4    -42.5275834 -0.389058E-03  0.334E-01    1.40       1.0  T
   5    -42.5288401 -0.125667E-02  0.741E-02    1.37       1.0  T
   6    -42.5288920 -0.518899E-04  0.450E-02    1.38       1.0  T
   7    -42.5289091 -0.170967E-04  0.230E-02    1.37       1.0  T
   8    -42.5289135 -0.442554E-05  0.595E-03    1.37       3.4  T
   9    -42.5289142 -0.718500E-06  0.228E-03    1.37       8.8  T
  10    -42.5289142 -0.241080E-07  0.720E-04    1.37      27.8  T
  11    -42.5289142 -0.521912E-08  0.208E-04    1.37      96.3  T
     SCC iter.                  ...        0 min,  0.014 sec
     gradient                   ...        0 min,  0.012 sec
 * total energy  :   -38.2470086 Eh     change       -0.7594347E+01 Eh
   gradient norm :     7.4065790 Eh/α   predicted    -0.7526160E+01 (  -0.90%)
   displ. norm   :     0.6110217 α      lambda       -0.4480302E+01
   maximum displ.:     0.5898615 α      in ANC's #3, #2, #7, ...

........................................................................
.............................. CYCLE    4 ..............................
........................................................................

 iter      E             dE          RMSdq      gap      omega  full diag
   1    -42.4184374 -0.424184E+02  0.108E+00    0.30       0.0  T
   2    -42.4218747 -0.343736E-02  0.625E-01    0.76       1.0  T
   3    -42.4263072 -0.443246E-02  0.485E-01    0.43       1.0  T
   4    -42.4261418  0.165418E-03  0.263E-01    0.54       1.0  T
   5    -42.4270949 -0.953155E-03  0.268E-01    0.53       1.0  T
   6    -42.4293267 -0.223180E-02  0.378E-02    0.52       1.0  T
   7    -42.4293115  0.152264E-04  0.411E-02    0.52       1.0  T
   8    -42.4293395 -0.279768E-04  0.114E-02    0.52       1.8  T
   9    -42.4293420 -0.248910E-05  0.436E-03    0.52       4.6  T
  10    -42.4293424 -0.446358E-06  0.105E-03    0.52      19.1  T
  11    -42.4293424 -0.209170E-07  0.350E-04    0.52      57.2  T
  12    -42.4293424 -0.614968E-09  0.200E-04    0.52      99.8  T
     SCC iter.                  ...        0 min,  0.015 sec
     gradient                   ...        0 min,  0.011 sec
 * total energy  :   -41.3271018 Eh     change       -0.3080093E+01 Eh
   gradient norm :     2.7355862 Eh/α   predicted    -0.3076507E+01 (  -0.12%)
   displ. norm   :     0.3771615 α      lambda       -0.9229324E+00
   maximum displ.:     0.3057581 α      in ANC's #3, #2, #7, ...

........................................................................
.............................. CYCLE    5 ..............................
........................................................................

 iter      E             dE          RMSdq      gap      omega  full diag
   1    -42.3701970 -0.423702E+02  0.706E-01    0.35       0.0  T
   2    -42.3455114  0.246857E-01  0.910E-01    0.55       1.0  T
   3    -42.3668391 -0.213278E-01  0.607E-01    0.36       1.0  T
   4    -42.3777918 -0.109527E-01  0.193E-01    0.36       1.0  T
   5    -42.3780109 -0.219025E-03  0.116E-01    0.40       1.0  T
   6    -42.3783859 -0.375025E-03  0.237E-02    0.38       1.0  T
   7    -42.3783836  0.227957E-05  0.169E-02    0.38       1.2  T
   8    -42.3783891 -0.553409E-05  0.727E-03    0.39       2.8  T
   9    -42.3783904 -0.122787E-05  0.309E-03    0.39       6.5  T
  10    -42.3783905 -0.103176E-06  0.124E-03    0.39      16.1  T
  11    -42.3783905 -0.354087E-07  0.380E-04    0.39      52.7  T
  12    -42.3783905 -0.273992E-09  0.249E-04    0.39      80.4  T
     SCC iter.                  ...        0 min,  0.015 sec
     gradient                   ...        0 min,  0.011 sec
 * total energy  :   -41.8353024 Eh     change       -0.5082006E+00 Eh
   gradient norm :     0.2837048 Eh/α   predicted    -0.5271108E+00 (   3.72%)
   displ. norm   :     0.1990305 α      lambda       -0.2310938E-01
   maximum displ.:     0.1442760 α      in ANC's #1, #2, #3, ...

........................................................................
.............................. CYCLE    6 ..............................
........................................................................

 iter      E             dE          RMSdq      gap      omega  full diag
   1    -42.3755294 -0.423755E+02  0.313E-01    0.50       0.0  T
   2    -42.3762277 -0.698298E-03  0.191E-01    0.46       1.0  T
   3    -42.3764786 -0.250960E-03  0.117E-01    0.47       1.0  T
   4    -42.3753084  0.117022E-02  0.195E-01    0.48       1.0  T
   5    -42.3767552 -0.144679E-02  0.306E-02    0.45       1.0  T
   6    -42.3767760 -0.208237E-04  0.115E-02    0.46       1.7  T
   7    -42.3767767 -0.693185E-06  0.816E-03    0.46       2.5  T
   8    -42.3767783 -0.162325E-05  0.277E-03    0.46       7.2  T
   9    -42.3767785 -0.167530E-06  0.897E-04    0.46      22.3  T
  10    -42.3767785 -0.481189E-08  0.273E-04    0.46      73.3  T
     SCC iter.                  ...        0 min,  0.012 sec
     gradient                   ...        0 min,  0.011 sec
 * total energy  :   -41.8502653 Eh     change       -0.1496290E-01 Eh
   gradient norm :     0.1832042 Eh/α   predicted    -0.1201293E-01 ( -19.72%)
   displ. norm   :     0.3499805 α      lambda       -0.1230390E-01
   maximum displ.:     0.3390122 α      in ANC's #1, #2, #24, ...

........................................................................
.............................. CYCLE    7 ..............................
........................................................................

 iter      E             dE          RMSdq      gap      omega  full diag
   1    -42.3781679 -0.423782E+02  0.373E-01    0.60       0.0  T
   2    -42.3737731  0.439472E-02  0.424E-01    0.63       1.0  T
   3    -42.3774968 -0.372369E-02  0.262E-01    0.57       1.0  T
   4    -42.3789977 -0.150082E-02  0.136E-01    0.57       1.0  T
   5    -42.3795185 -0.520863E-03  0.448E-02    0.58       1.0  T
   6    -42.3795721 -0.535577E-04  0.139E-02    0.57       1.4  T
   7    -42.3795733 -0.126794E-05  0.531E-03    0.57       3.8  T
   8    -42.3795736 -0.296097E-06  0.234E-03    0.57       8.5  T
   9    -42.3795738 -0.207058E-06  0.630E-04    0.57      31.7  T
  10    -42.3795738 -0.254428E-08  0.315E-04    0.57      63.6  T
     SCC iter.                  ...        0 min,  0.012 sec
     gradient                   ...        0 min,  0.011 sec
 * total energy  :   -41.8585404 Eh     change       -0.8275114E-02 Eh
   gradient norm :     0.3183502 Eh/α   predicted    -0.6905652E-02 ( -16.55%)
   displ. norm   :     0.3048813 α      lambda       -0.3417139E-01
   maximum displ.:     0.1648098 α      in ANC's #1, #2, #24, ...

........................................................................
.............................. CYCLE    8 ..............................
........................................................................

 iter      E             dE          RMSdq      gap      omega  full diag
   1    -42.4020414 -0.424020E+02  0.455E-01    0.58       0.0  T
   2    -42.3990729  0.296849E-02  0.423E-01    0.51       1.0  T
   3    -42.4001947 -0.112185E-02  0.369E-01    0.59       1.0  T
   4    -42.4041130 -0.391829E-02  0.106E-01    0.56       1.0  T
   5    -42.4042798 -0.166765E-03  0.457E-02    0.56       1.0  T
   6    -42.4043251 -0.453600E-04  0.149E-02    0.57       1.3  T
   7    -42.4043275 -0.234667E-05  0.116E-02    0.57       1.7  T
   8    -42.4043300 -0.254360E-05  0.392E-03    0.57       5.1  T
   9    -42.4043304 -0.323693E-06  0.162E-03    0.57      12.4  T
  10    -42.4043304 -0.140898E-07  0.946E-04    0.57      21.1  T
  11    -42.4043304 -0.169987E-07  0.333E-04    0.57      60.0  T
     SCC iter.                  ...        0 min,  0.014 sec
     gradient                   ...        0 min,  0.011 sec
 * total energy  :   -41.8818858 Eh     change       -0.2334538E-01 Eh
   gradient norm :     0.2230879 Eh/α   predicted    -0.1867386E-01 ( -20.01%)
   displ. norm   :     0.2845307 α      lambda       -0.3356414E-01
   maximum displ.:     0.0898657 α      in ANC's #1, #21, #46, ...

........................................................................
.............................. CYCLE    9 ..............................
........................................................................

 iter      E             dE          RMSdq      gap      omega  full diag
   1    -42.4251310 -0.424251E+02  0.525E-01    0.41       0.0  T
   2    -42.4177879  0.734302E-02  0.619E-01    0.56       1.0  T
   3    -42.4271306 -0.934263E-02  0.285E-01    0.45       1.0  T
   4    -42.4279449 -0.814357E-03  0.230E-01    0.48       1.0  T
   5    -42.4291958 -0.125085E-02  0.714E-02    0.50       1.0  T
   6    -42.4293470 -0.151230E-03  0.282E-02    0.48       1.0  T
   7    -42.4293612 -0.141499E-04  0.128E-02    0.49       1.6  T
   8    -42.4293634 -0.229263E-05  0.535E-03    0.48       3.7  T
   9    -42.4293640 -0.506259E-06  0.235E-03    0.48       8.5  T
  10    -42.4293640 -0.121222E-07  0.137E-03    0.48      14.6  T
  11    -42.4293640 -0.533705E-07  0.377E-04    0.48      53.0  T
  12    -42.4293640 -0.107558E-08  0.218E-04    0.48      91.8  T
     SCC iter.                  ...        0 min,  0.015 sec
     gradient                   ...        0 min,  0.012 sec
 * total energy  :   -41.9068585 Eh     change       -0.2497266E-01 Eh
   gradient norm :     0.1892774 Eh/α   predicted    -0.1814205E-01 ( -27.35%)
   displ. norm   :     0.2667216 α      lambda       -0.2521555E-01
   maximum displ.:     0.0846059 α      in ANC's #46, #38, #24, ...

........................................................................
.............................. CYCLE   10 ..............................
........................................................................

 iter      E             dE          RMSdq      gap      omega  full diag
   1    -42.4460875 -0.424461E+02  0.524E-01    0.31       0.0  T
   2    -42.4411957  0.489179E-02  0.567E-01    0.42       1.0  T
   3    -42.4472206 -0.602498E-02  0.292E-01    0.34       1.0  T
   4    -42.4479200 -0.699304E-03  0.235E-01    0.36       1.0  T
   5    -42.4494969 -0.157698E-02  0.649E-02    0.39       1.0  T
   6    -42.4496303 -0.133352E-03  0.240E-02    0.37       1.0  T
   7    -42.4496375 -0.724735E-05  0.103E-02    0.37       1.9  T
   8    -42.4496395 -0.201535E-05  0.416E-03    0.37       4.8  T
   9    -42.4496399 -0.364998E-06  0.192E-03    0.37      10.4  T
  10    -42.4496399  0.621843E-08  0.113E-03    0.37      17.7  T
  11    -42.4496399 -0.398038E-07  0.322E-04    0.37      62.2  T
  12    -42.4496399 -0.162635E-08  0.119E-04    0.37     168.1  T
     SCC iter.                  ...        0 min,  0.015 sec
     gradient                   ...        0 min,  0.011 sec
 * total energy  :   -41.9242063 Eh     change       -0.1734785E-01 Eh
   gradient norm :     0.1886390 Eh/α   predicted    -0.1350474E-01 ( -22.15%)
   displ. norm   :     0.2312457 α      lambda       -0.1491396E-01
   maximum displ.:     0.0976255 α      in ANC's #1, #46, #38, ...

........................................................................
.............................. CYCLE   11 ..............................
........................................................................

 iter      E             dE          RMSdq      gap      omega  full diag
   1    -42.4547095 -0.424547E+02  0.356E-01    0.28       0.0  T
   2    -42.4522745  0.243502E-02  0.406E-01    0.34       1.0  T
   3    -42.4554196 -0.314515E-02  0.198E-01    0.30       1.0  T
   4    -42.4556513 -0.231656E-03  0.159E-01    0.31       1.0  T
   5    -42.4564138 -0.762494E-03  0.456E-02    0.33       1.0  T
   6    -42.4564850 -0.712001E-04  0.145E-02    0.31       1.4  T
   7    -42.4564885 -0.349110E-05  0.507E-03    0.31       3.9  T
   8    -42.4564887 -0.263770E-06  0.190E-03    0.31      10.5  T
   9    -42.4564888 -0.607123E-07  0.943E-04    0.31      21.2  T
  10    -42.4564888  0.162061E-09  0.461E-04    0.31      43.4  T
     SCC iter.                  ...        0 min,  0.012 sec
     gradient                   ...        0 min,  0.012 sec
 * total energy  :   -41.9357811 Eh     change       -0.1157482E-01 Eh
   gradient norm :     0.1748937 Eh/α   predicted    -0.7855951E-02 ( -32.13%)
   displ. norm   :     0.2669276 α      lambda       -0.1946173E-01
   maximum displ.:     0.0901879 α      in ANC's #46, #38, #36, ...

........................................................................
.............................. CYCLE   12 ..............................
........................................................................

 iter      E             dE          RMSdq      gap      omega  full diag
   1    -42.4604314 -0.424604E+02  0.385E-01    0.22       0.0  T
   2    -42.4613527 -0.921281E-03  0.270E-01    0.24       1.0  T
   3    -42.4616500 -0.297244E-03  0.173E-01    0.23       1.0  T
   4    -42.4604780  0.117191E-02  0.214E-01    0.25       1.0  T
   5    -42.4621462 -0.166814E-02  0.486E-02    0.25       1.0  T
   6    -42.4622202 -0.740429E-04  0.199E-02    0.24       1.0  T
   7    -42.4622305 -0.102474E-04  0.763E-03    0.24       2.6  T
   8    -42.4622314 -0.933339E-06  0.233E-03    0.24       8.6  T
   9    -42.4622315 -0.509514E-07  0.861E-04    0.24      23.2  T
  10    -42.4622315 -0.487017E-08  0.408E-04    0.24      49.0  T
     SCC iter.                  ...        0 min,  0.012 sec
     gradient                   ...        0 min,  0.011 sec
 * total energy  :   -41.9500369 Eh     change       -0.1425575E-01 Eh
   gradient norm :     0.1598850 Eh/α   predicted    -0.1042422E-01 ( -26.88%)
   displ. norm   :     0.2452100 α      lambda       -0.1681269E-01
   maximum displ.:     0.0823938 α      in ANC's #2, #38, #46, ...

........................................................................
.............................. CYCLE   13 ..............................
........................................................................

 iter      E             dE          RMSdq      gap      omega  full diag
   1    -42.4609439 -0.424609E+02  0.318E-01    0.18       0.0  T
   2    -42.4620455 -0.110155E-02  0.174E-01    0.18       1.0  T
   3    -42.4620745 -0.290357E-04  0.106E-01    0.18       1.0  T
   4    -42.4607588  0.131569E-02  0.189E-01    0.19       1.0  T
   5    -42.4622190 -0.146018E-02  0.273E-02    0.18       1.0  T
   6    -42.4622337 -0.147460E-04  0.864E-03    0.18       2.3  T
   7    -42.4622339 -0.156484E-06  0.648E-03    0.18       3.1  T
   8    -42.4622351 -0.116990E-05  0.245E-03    0.18       8.2  T
   9    -42.4622352 -0.125577E-06  0.758E-04    0.18      26.4  T
  10    -42.4622352 -0.113627E-08  0.483E-04    0.18      41.4  T
     SCC iter.                  ...        0 min,  0.012 sec
     gradient                   ...        0 min,  0.011 sec
 * total energy  :   -41.9624739 Eh     change       -0.1243700E-01 Eh
   gradient norm :     0.1409529 Eh/α   predicted    -0.8912198E-02 ( -28.34%)
   displ. norm   :     0.3120164 α      lambda       -0.1681423E-01
   maximum displ.:     0.1985456 α      in ANC's #1, #2, #38, ...

........................................................................
.............................. CYCLE   14 ..............................
........................................................................

 iter      E             dE          RMSdq      gap      omega  full diag
   1    -42.4646337 -0.424646E+02  0.381E-01    0.12       0.0  T
   2    -42.4604025  0.423119E-02  0.434E-01    0.08       1.0  T
   3    -42.4636570 -0.325449E-02  0.293E-01    0.11       1.0  T
   4    -42.4659933 -0.233632E-02  0.121E-01    0.12       1.0  T
   5    -42.4662191 -0.225768E-03  0.771E-02    0.09       1.0  T
   6    -42.4664226 -0.203524E-03  0.120E-02    0.11       1.7  T
   7    -42.4664237 -0.108369E-05  0.758E-03    0.11       2.6  T
   8    -42.4664251 -0.137144E-05  0.246E-03    0.11       8.1  T
   9    -42.4664251 -0.558954E-07  0.123E-03    0.11      16.3  T
  10    -42.4664251 -0.199520E-07  0.617E-04    0.11      32.4  T
  11    -42.4664251 -0.101796E-07  0.124E-04    0.11     161.9  T
     SCC iter.                  ...        0 min,  0.014 sec
     gradient                   ...        0 min,  0.011 sec
 * total energy  :   -41.9746659 Eh     change       -0.1219204E-01 Eh
   gradient norm :     0.1465032 Eh/α   predicted    -0.9225852E-02 ( -24.33%)
   displ. norm   :     0.2506154 α      lambda       -0.1223509E-01
   maximum displ.:     0.1470874 α      in ANC's #1, #2, #35, ...

........................................................................
.............................. CYCLE   15 ..............................
........................................................................

 iter      E             dE          RMSdq      gap      omega  full diag
   1    -42.4636069 -0.424636E+02  0.296E-01    0.07       0.0  T
   2    -42.4615324  0.207455E-02  0.321E-01    0.04       1.0  T
   3    -42.4627072 -0.117487E-02  0.232E-01    0.07       1.0  T
   4    -42.4638712 -0.116393E-02  0.125E-01    0.07       1.0  T
   5    -42.4643934 -0.522251E-03  0.462E-02    0.05       1.0  T
   6    -42.4644646 -0.711709E-04  0.108E-02    0.06       1.9  T
   7    -42.4644662 -0.159638E-05  0.552E-03    0.06       3.6  T
   8    -42.4644669 -0.682179E-06  0.157E-03    0.06      12.7  T
   9    -42.4644669 -0.130337E-07  0.910E-04    0.06      22.0  T
  10    -42.4644669 -0.727522E-08  0.510E-04    0.06      39.2  T
     SCC iter.                  ...        0 min,  0.012 sec
     gradient                   ...        0 min,  0.011 sec
 * total energy  :   -41.9825925 Eh     change       -0.7926632E-02 Eh
   gradient norm :     0.1777190 Eh/α   predicted    -0.6502228E-02 ( -17.97%)
   displ. norm   :     0.1377862 α      lambda       -0.7518360E-02
   maximum displ.:     0.0815725 α      in ANC's #1, #2, #35, ...

........................................................................
.............................. CYCLE   16 ..............................
........................................................................

 iter      E             dE          RMSdq      gap      omega  full diag
   1    -42.4642719 -0.424643E+02  0.154E-01    0.04       0.0  T
   2    -42.4642933 -0.214536E-04  0.107E-01    0.05       1.0  T
   3    -42.4638004  0.492934E-03  0.138E-01    0.05       1.0  T
   4    -42.4642999 -0.499536E-03  0.627E-02    0.04       1.0  T
   5    -42.4644480 -0.148043E-03  0.165E-02    0.04       1.2  T
   6    -42.4644561 -0.813127E-05  0.549E-03    0.05       3.6  T
   7    -42.4644563 -0.256325E-06  0.377E-03    0.04       5.3  T
   8    -42.4644567 -0.333851E-06  0.137E-03    0.05      14.6  T
   9    -42.4644567 -0.303626E-07  0.546E-04    0.05      36.6  T
  10    -42.4644567 -0.637719E-08  0.224E-04    0.05      89.2  T
     SCC iter.                  ...        0 min,  0.012 sec
     gradient                   ...        0 min,  0.011 sec
 * total energy  :   -41.9887867 Eh     change       -0.6194186E-02 Eh
   gradient norm :     0.1625377 Eh/α   predicted    -0.3830615E-02 ( -38.16%)
   displ. norm   :     0.2221736 α      lambda       -0.1677872E-01
   maximum displ.:     0.0778823 α      in ANC's #2, #24, #46, ...

........................................................................
.............................. CYCLE   17 ..............................
........................................................................

 iter      E             dE          RMSdq      gap      omega  full diag
   1    -42.4639004 -0.424639E+02  0.304E-01    0.05       0.0  T
   2    -42.4643776 -0.477259E-03  0.203E-01    0.05       1.0  T
   3    -42.4633020  0.107560E-02  0.216E-01    0.04       1.0  T
   4    -42.4642510 -0.948962E-03  0.164E-01    0.04       1.0  T
   5    -42.4649428 -0.691839E-03  0.582E-02    0.04       1.0  T
   6    -42.4650640 -0.121141E-03  0.210E-02    0.04       1.0  T
   7    -42.4650747 -0.107364E-04  0.988E-03    0.04       2.0  T
   8    -42.4650760 -0.128419E-05  0.394E-03    0.04       5.1  T
   9    -42.4650763 -0.347527E-06  0.110E-03    0.04      18.2  T
  10    -42.4650763 -0.180053E-07  0.474E-04    0.04      42.2  T
  11    -42.4650763 -0.212545E-08  0.135E-04    0.04     147.9  T
     SCC iter.                  ...        0 min,  0.014 sec
     gradient                   ...        0 min,  0.011 sec
 * total energy  :   -41.9998476 Eh     change       -0.1106087E-01 Eh
   gradient norm :     0.1110967 Eh/α   predicted    -0.8803581E-02 ( -20.41%)
   displ. norm   :     0.1930863 α      lambda       -0.6704893E-02
   maximum displ.:     0.0808935 α      in ANC's #2, #46, #51, ...

........................................................................
.............................. CYCLE   18 ..............................
........................................................................

 iter      E             dE          RMSdq      gap      omega  full diag
   1    -42.4638108 -0.424638E+02  0.209E-01    0.08       0.0  T
   2    -42.4635439  0.266937E-03  0.168E-01    0.06       1.0  T
   3    -42.4626870  0.856830E-03  0.185E-01    0.06       1.0  T
   4    -42.4637313 -0.104423E-02  0.114E-01    0.07       1.0  T
   5    -42.4641041 -0.372835E-03  0.314E-02    0.06       1.0  T
   6    -42.4641327 -0.285770E-04  0.135E-02    0.06       1.5  T
   7    -42.4641361 -0.345726E-05  0.579E-03    0.06       3.5  T
   8    -42.4641369 -0.744344E-06  0.149E-03    0.06      13.4  T
   9    -42.4641369 -0.238129E-07  0.659E-04    0.06      30.3  T
  10    -42.4641369 -0.637559E-08  0.270E-04    0.06      74.1  T
     SCC iter.                  ...        0 min,  0.012 sec
     gradient                   ...        0 min,  0.011 sec
 * total energy  :   -42.0049676 Eh     change       -0.5119948E-02 Eh
   gradient norm :     0.1187357 Eh/α   predicted    -0.3478830E-02 ( -32.05%)
   displ. norm   :     0.2287197 α      lambda       -0.8078886E-02
   maximum displ.:     0.1001834 α      in ANC's #2, #51, #46, ...

........................................................................
.............................. CYCLE   19 ..............................
........................................................................

 iter      E             dE          RMSdq      gap      omega  full diag
   1    -42.4677409 -0.424677E+02  0.228E-01    0.11       0.0  T
   2    -42.4675377  0.203213E-03  0.176E-01    0.09       1.0  T
   3    -42.4662835  0.125419E-02  0.199E-01    0.10       1.0  T
   4    -42.4674068 -0.112327E-02  0.136E-01    0.11       1.0  T
   5    -42.4679930 -0.586242E-03  0.309E-02    0.09       1.0  T
   6    -42.4680186 -0.255088E-04  0.154E-02    0.10       1.3  T
   7    -42.4680202 -0.168942E-05  0.108E-02    0.09       1.9  T
   8    -42.4680235 -0.326986E-05  0.200E-03    0.10      10.0  T
   9    -42.4680236 -0.460054E-07  0.723E-04    0.10      27.7  T
  10    -42.4680236 -0.104161E-08  0.257E-04    0.10      77.8  T
     SCC iter.                  ...        0 min,  0.012 sec
     gradient                   ...        0 min,  0.011 sec
 * total energy  :   -42.0110562 Eh     change       -0.6088643E-02 Eh
   gradient norm :     0.1206965 Eh/α   predicted    -0.4251010E-02 ( -30.18%)
   displ. norm   :     0.2322469 α      lambda       -0.9185979E-02
   maximum displ.:     0.1062111 α      in ANC's #2, #51, #1, ...

........................................................................
.............................. CYCLE   20 ..............................
........................................................................

 iter      E             dE          RMSdq      gap      omega  full diag
   1    -42.4794535 -0.424795E+02  0.225E-01    0.12       0.0  T
   2    -42.4796654 -0.211843E-03  0.144E-01    0.13       1.0  T
   3    -42.4796824 -0.170841E-04  0.849E-02    0.12       1.0  T
   4    -42.4791360  0.546415E-03  0.132E-01    0.13       1.0  T
   5    -42.4797544 -0.618413E-03  0.284E-02    0.12       1.0  T
   6    -42.4797840 -0.295729E-04  0.142E-02    0.12       1.4  T
   7    -42.4797856 -0.157260E-05  0.102E-02    0.12       2.0  T
   8    -42.4797882 -0.264106E-05  0.154E-03    0.12      13.0  T
   9    -42.4797882 -0.177160E-07  0.646E-04    0.12      30.9  T
  10    -42.4797882 -0.125187E-08  0.238E-04    0.12      83.9  T
     SCC iter.                  ...        0 min,  0.012 sec
     gradient                   ...        0 min,  0.011 sec
 * total energy  :   -42.0180141 Eh     change       -0.6957856E-02 Eh
   gradient norm :     0.1125449 Eh/α   predicted    -0.4840870E-02 ( -30.43%)
   displ. norm   :     0.2149632 α      lambda       -0.9498592E-02
   maximum displ.:     0.1027212 α      in ANC's #2, #51, #13, ...
 * RMSD in coord.:     0.7616817 α      energy gain  -0.2636330E+02 Eh

generating ANC from model Hessian ...
Using Lindh-Hessian (1995)
 Shifting diagonal of input Hessian by    1.0313021957658363E-002
 Lowest  eigenvalues of input Hessian
    0.010000    0.000000    0.000000    0.000000    0.000000    0.000000
    0.000000    0.011474    0.012293    0.014295    0.015958    0.016219
    0.019185    0.019762    0.021323    0.023446    0.023775    0.029547
 Highest eigenvalues
    1.903518    2.023268    2.324926    2.427829    2.532011    8.357092


........................................................................
.............................. CYCLE   21 ..............................
........................................................................

 iter      E             dE          RMSdq      gap      omega  full diag
   1    -42.4980036 -0.424980E+02  0.255E-01    0.12       0.0  T
   2    -42.4978761  0.127499E-03  0.196E-01    0.16       1.0  T
   3    -42.4973027  0.573391E-03  0.235E-01    0.14       1.0  T
   4    -42.4989651 -0.166237E-02  0.741E-02    0.13       1.0  T
   5    -42.4988167  0.148405E-03  0.794E-02    0.16       1.0  T
   6    -42.4990081 -0.191446E-03  0.115E-02    0.14       1.7  T
   7    -42.4990104 -0.221690E-05  0.737E-03    0.14       2.7  T
   8    -42.4990113 -0.932303E-06  0.230E-03    0.14       8.7  T
   9    -42.4990114 -0.648355E-07  0.635E-04    0.14      31.5  T
  10    -42.4990114 -0.199505E-08  0.280E-04    0.14      71.3  T
     SCC iter.                  ...        0 min,  0.013 sec
     gradient                   ...        0 min,  0.011 sec
 * total energy  :   -42.0244235 Eh     change       -0.6409412E-02 Eh
   gradient norm :     0.1071107 Eh/α   predicted     0.0000000E+00 (-100.00%)
   displ. norm   :     0.5665444 α      lambda       -0.3164730E-01
   maximum displ.:     0.2898270 α      in ANC's #11, #8, #12, ...

........................................................................
.............................. CYCLE   22 ..............................
........................................................................

 iter      E             dE          RMSdq      gap      omega  full diag
   1    -42.5397592 -0.425398E+02  0.410E-01    0.20       0.0  T
   2    -42.5384708  0.128844E-02  0.313E-01    0.12       1.0  T
   3    -42.5350194  0.345138E-02  0.399E-01    0.20       1.0  T
   4    -42.5381669 -0.314757E-02  0.237E-01    0.20       1.0  T
   5    -42.5404255 -0.225857E-02  0.367E-02    0.16       1.0  T
   6    -42.5404556 -0.301134E-04  0.124E-02    0.17       1.6  T
   7    -42.5404578 -0.220172E-05  0.488E-03    0.17       4.1  T
   8    -42.5404580 -0.133960E-06  0.197E-03    0.17      10.2  T
   9    -42.5404580 -0.875857E-07  0.811E-04    0.17      24.7  T
  10    -42.5404581 -0.228475E-08  0.311E-04    0.17      64.4  T
     SCC iter.                  ...        0 min,  0.012 sec
     gradient                   ...        0 min,  0.011 sec
 * total energy  :   -42.0499782 Eh     change       -0.2555471E-01 Eh
   gradient norm :     0.0601137 Eh/α   predicted    -0.2090261E-01 ( -18.20%)
   displ. norm   :     0.6627843 α      lambda       -0.2291905E-01
   maximum displ.:     0.3508125 α      in ANC's #11, #8, #12, ...

........................................................................
.............................. CYCLE   23 ..............................
........................................................................

 iter      E             dE          RMSdq      gap      omega  full diag
   1    -42.5710555 -0.425711E+02  0.377E-01    0.17       0.0  T
   2    -42.5712095 -0.154007E-03  0.238E-01    0.14       1.0  T
   3    -42.5700242  0.118526E-02  0.222E-01    0.21       1.0  T
   4    -42.5693073  0.716925E-03  0.221E-01    0.15       1.0  T
   5    -42.5713114 -0.200410E-02  0.846E-02    0.15       1.0  T
   6    -42.5715420 -0.230583E-03  0.166E-02    0.16       1.2  T
   7    -42.5715466 -0.468244E-05  0.730E-03    0.16       2.7  T
   8    -42.5715470 -0.386613E-06  0.245E-03    0.16       8.2  T
   9    -42.5715472 -0.138949E-06  0.806E-04    0.16      24.8  T
  10    -42.5715472 -0.139249E-08  0.277E-04    0.16      72.1  T
     SCC iter.                  ...        0 min,  0.012 sec
     gradient                   ...        0 min,  0.011 sec
 * total energy  :   -42.0652758 Eh     change       -0.1529765E-01 Eh
   gradient norm :     0.0756783 Eh/α   predicted    -0.1649350E-01 (   7.82%)
   displ. norm   :     0.4569520 α      lambda       -0.7163471E-02
   maximum displ.:     0.2150596 α      in ANC's #8, #11, #12, ...

........................................................................
.............................. CYCLE   24 ..............................
........................................................................

 iter      E             dE          RMSdq      gap      omega  full diag
   1    -42.5800972 -0.425801E+02  0.230E-01    0.18       0.0  T
   2    -42.5799211  0.176076E-03  0.170E-01    0.17       1.0  T
   3    -42.5772583  0.266285E-02  0.266E-01    0.17       1.0  T
   4    -42.5798348 -0.257655E-02  0.992E-02    0.18       1.0  T
   5    -42.5802133 -0.378454E-03  0.258E-02    0.16       1.0  T
   6    -42.5802319 -0.185913E-04  0.632E-03    0.17       3.2  T
   7    -42.5802323 -0.457632E-06  0.317E-03    0.17       6.3  T
   8    -42.5802324 -0.125781E-06  0.101E-03    0.17      19.7  T
   9    -42.5802325 -0.333260E-07  0.267E-04    0.17      74.9  T
  10    -42.5802325 -0.983817E-10  0.120E-04    0.17     166.3  T
     SCC iter.                  ...        0 min,  0.013 sec
     gradient                   ...        0 min,  0.011 sec
 * total energy  :   -42.0702569 Eh     change       -0.4981068E-02 Eh
   gradient norm :     0.0356977 Eh/α   predicted    -0.4329721E-02 ( -13.08%)
   displ. norm   :     0.5179192 α      lambda       -0.5504933E-02
   maximum displ.:     0.3136912 α      in ANC's #11, #8, #7, ...

........................................................................
.............................. CYCLE   25 ..............................
........................................................................

 iter      E             dE          RMSdq      gap      omega  full diag
   1    -42.5810903 -0.425811E+02  0.242E-01    0.17       0.0  T
   2    -42.5811188 -0.284959E-04  0.157E-01    0.16       1.0  T
   3    -42.5799462  0.117261E-02  0.174E-01    0.18       1.0  T
   4    -42.5805913 -0.645155E-03  0.116E-01    0.17       1.0  T
   5    -42.5811585 -0.567243E-03  0.267E-02    0.15       1.0  T
   6    -42.5811823 -0.237920E-04  0.586E-03    0.16       3.4  T
   7    -42.5811824 -0.267017E-07  0.259E-03    0.16       7.7  T
   8    -42.5811824 -0.719133E-07  0.882E-04    0.16      22.7  T
   9    -42.5811824  0.105864E-08  0.452E-04    0.16      44.2  T
     SCC iter.                  ...        0 min,  0.011 sec
     gradient                   ...        0 min,  0.011 sec
 * total energy  :   -42.0727549 Eh     change       -0.2497964E-02 Eh
   gradient norm :     0.1506012 Eh/α   predicted    -0.3490792E-02 (  39.75%)
   displ. norm   :     0.3504934 α      lambda       -0.6342396E-02
   maximum displ.:     0.1731398 α      in ANC's #5, #14, #11, ...

........................................................................
.............................. CYCLE   26 ..............................
........................................................................

 iter      E             dE          RMSdq      gap      omega  full diag
   1    -42.5806920 -0.425807E+02  0.302E-01    0.12       0.0  T
   2    -42.5682872  0.124048E-01  0.576E-01    0.10       1.0  T
   3    -42.5814987 -0.132115E-01  0.168E-01    0.12       1.0  T
   4    -42.5821128 -0.614058E-03  0.385E-02    0.14       1.0  T
   5    -42.5821441 -0.313152E-04  0.208E-02    0.12       1.0  T
   6    -42.5821553 -0.112188E-04  0.715E-03    0.13       2.8  T
   7    -42.5821554 -0.692363E-07  0.496E-03    0.13       4.0  T
   8    -42.5821561 -0.732212E-06  0.744E-04    0.13      26.9  T
   9    -42.5821561 -0.298251E-08  0.366E-04    0.13      54.6  T
     SCC iter.                  ...        0 min,  0.011 sec
     gradient                   ...        0 min,  0.011 sec
 * total energy  :   -42.0741940 Eh     change       -0.1439131E-02 Eh
   gradient norm :     0.1015247 Eh/α   predicted    -0.3560773E-02 ( 147.43%)
   displ. norm   :     0.2590781 α      lambda       -0.4149420E-02
   maximum displ.:     0.1276277 α      in ANC's #6, #3, #12, ...

........................................................................
.............................. CYCLE   27 ..............................
........................................................................

 iter      E             dE          RMSdq      gap      omega  full diag
   1    -42.5843505 -0.425844E+02  0.288E-01    0.18       0.0  T
   2    -42.5842640  0.865312E-04  0.174E-01    0.17       1.0  T
   3    -42.5793254  0.493858E-02  0.340E-01    0.14       1.0  T
   4    -42.5843327 -0.500730E-02  0.363E-02    0.17       1.0  T
   5    -42.5843835 -0.508442E-04  0.999E-03    0.16       2.0  T
   6    -42.5843855 -0.199757E-05  0.455E-03    0.16       4.4  T
   7    -42.5843855 -0.153650E-07  0.236E-03    0.16       8.5  T
   8    -42.5843857 -0.122859E-06  0.433E-04    0.16      46.2  T
   9    -42.5843857 -0.804896E-09  0.160E-04    0.16     125.0  T
     SCC iter.                  ...        0 min,  0.011 sec
     gradient                   ...        0 min,  0.011 sec
 * total energy  :   -42.0770044 Eh     change       -0.2810371E-02 Eh
   gradient norm :     0.0258196 Eh/α   predicted    -0.2213968E-02 ( -21.22%)
   displ. norm   :     0.3733446 α      lambda       -0.2902470E-02
   maximum displ.:     0.2379499 α      in ANC's #5, #3, #6, ...

........................................................................
.............................. CYCLE   28 ..............................
........................................................................

 iter      E             dE          RMSdq      gap      omega  full diag
   1    -42.5867190 -0.425867E+02  0.159E-01    0.20       0.0  T
   2    -42.5838717  0.284723E-02  0.286E-01    0.18       1.0  T
   3    -42.5869750 -0.310326E-02  0.827E-02    0.19       1.0  T
   4    -42.5869599  0.151190E-04  0.669E-02    0.21       1.0  T
   5    -42.5871123 -0.152456E-03  0.886E-03    0.19       2.3  T
   6    -42.5871132 -0.852432E-06  0.472E-03    0.19       4.2  T
   7    -42.5871134 -0.170429E-06  0.227E-03    0.19       8.8  T
   8    -42.5871135 -0.144655E-06  0.441E-04    0.19      45.3  T
   9    -42.5871135  0.260627E-10  0.253E-04    0.19      79.2  T
     SCC iter.                  ...        0 min,  0.011 sec
     gradient                   ...        0 min,  0.011 sec
 * total energy  :   -42.0789950 Eh     change       -0.1990617E-02 Eh
   gradient norm :     0.0627903 Eh/α   predicted    -0.1653520E-02 ( -16.93%)
   displ. norm   :     0.3972823 α      lambda       -0.2683351E-02
   maximum displ.:     0.2540483 α      in ANC's #5, #6, #3, ...

........................................................................
.............................. CYCLE   29 ..............................
........................................................................

 iter      E             dE          RMSdq      gap      omega  full diag
   1    -42.5906450 -0.425906E+02  0.167E-01    0.23       0.0  T
   2    -42.5875204  0.312456E-02  0.287E-01    0.21       1.0  T
   3    -42.5907470 -0.322653E-02  0.106E-01    0.21       1.0  T
   4    -42.5909772 -0.230244E-03  0.602E-02    0.24       1.0  T
   5    -42.5910788 -0.101612E-03  0.103E-02    0.22       1.9  T
   6    -42.5910809 -0.211179E-05  0.422E-03    0.22       4.7  T
   7    -42.5910811 -0.185267E-06  0.199E-03    0.22      10.0  T
   8    -42.5910812 -0.828768E-07  0.346E-04    0.22      57.8  T
   9    -42.5910812 -0.454264E-09  0.181E-04    0.22     110.3  T
     SCC iter.                  ...        0 min,  0.011 sec
     gradient                   ...        0 min,  0.011 sec
 * total energy  :   -42.0809134 Eh     change       -0.1918395E-02 Eh
   gradient norm :     0.0314644 Eh/α   predicted    -0.1553438E-02 ( -19.02%)
   displ. norm   :     0.4862568 α      lambda       -0.2116196E-02
   maximum displ.:     0.3133771 α      in ANC's #5, #3, #6, ...

........................................................................
.............................. CYCLE   30 ..............................
........................................................................

 iter      E             dE          RMSdq      gap      omega  full diag
   1    -42.5843377 -0.425843E+02  0.212E-01    0.24       0.0  T
   2    -42.5766596  0.767817E-02  0.448E-01    0.21       1.0  T
   3    -42.5851460 -0.848640E-02  0.108E-01    0.22       1.0  T
   4    -42.5851402  0.575581E-05  0.759E-02    0.25       1.0  T
   5    -42.5853389 -0.198684E-03  0.124E-02    0.23       1.6  T
   6    -42.5853420 -0.312223E-05  0.461E-03    0.23       4.3  T
   7    -42.5853421 -0.735568E-07  0.230E-03    0.23       8.7  T
   8    -42.5853422 -0.142914E-06  0.555E-04    0.23      36.1  T
   9    -42.5853422 -0.121017E-08  0.298E-04    0.23      67.0  T
     SCC iter.                  ...        0 min,  0.011 sec
     gradient                   ...        0 min,  0.011 sec
 * total energy  :   -42.0819268 Eh     change       -0.1013406E-02 Eh
   gradient norm :     0.0225976 Eh/α   predicted    -0.1308289E-02 (  29.10%)
   displ. norm   :     0.2280541 α      lambda       -0.1944883E-02
   maximum displ.:     0.1006541 α      in ANC's #9, #11, #5, ...

........................................................................
.............................. CYCLE   31 ..............................
........................................................................

 iter      E             dE          RMSdq      gap      omega  full diag
   1    -42.5940657 -0.425941E+02  0.156E-01    0.22       0.0  T
   2    -42.5932151  0.850581E-03  0.186E-01    0.21       1.0  T
   3    -42.5937735 -0.558380E-03  0.114E-01    0.23       1.0  T
   4    -42.5940151 -0.241611E-03  0.706E-02    0.21       1.0  T
   5    -42.5942226 -0.207553E-03  0.122E-02    0.22       1.6  T
   6    -42.5942256 -0.296217E-05  0.595E-03    0.22       3.4  T
   7    -42.5942263 -0.657598E-06  0.179E-03    0.22      11.2  T
   8    -42.5942263 -0.246726E-07  0.684E-04    0.22      29.2  T
   9    -42.5942263 -0.309914E-08  0.221E-04    0.22      90.7  T
     SCC iter.                  ...        0 min,  0.011 sec
     gradient                   ...        0 min,  0.011 sec
 * total energy  :   -42.0824102 Eh     change       -0.4834175E-03 Eh
   gradient norm :     0.0450189 Eh/α   predicted    -0.1023017E-02 ( 111.62%)
   displ. norm   :     0.0806053 α      lambda       -0.6801283E-03
   maximum displ.:     0.0328506 α      in ANC's #3, #5, #12, ...

........................................................................
.............................. CYCLE   32 ..............................
........................................................................

 iter      E             dE          RMSdq      gap      omega  full diag
   1    -42.5915111 -0.425915E+02  0.598E-02    0.21       0.0  T
   2    -42.5914353  0.758332E-04  0.603E-02    0.22       1.0  T
   3    -42.5914143  0.210179E-04  0.527E-02    0.21       1.0  T
   4    -42.5915043 -0.900547E-04  0.223E-02    0.22       1.0  T
   5    -42.5915257 -0.213503E-04  0.262E-03    0.22       7.6  T
   6    -42.5915258 -0.711174E-07  0.142E-03    0.22      14.1  T
   7    -42.5915258 -0.164626E-07  0.929E-04    0.22      21.5  T
   8    -42.5915258 -0.201669E-07  0.231E-04    0.22      86.8  T
     SCC iter.                  ...        0 min,  0.010 sec
     gradient                   ...        0 min,  0.011 sec
 * total energy  :   -42.0828532 Eh     change       -0.4430018E-03 Eh
   gradient norm :     0.0155763 Eh/α   predicted    -0.3422767E-03 ( -22.74%)
   displ. norm   :     0.0967505 α      lambda       -0.2478034E-03
   maximum displ.:     0.0520891 α      in ANC's #5, #2, #11, ...

........................................................................
.............................. CYCLE   33 ..............................
........................................................................

 iter      E             dE          RMSdq      gap      omega  full diag
   1    -42.5901598 -0.425902E+02  0.463E-02    0.21       0.0  T
   2    -42.5901429  0.169652E-04  0.350E-02    0.21       1.0  T
   3    -42.5900191  0.123776E-03  0.577E-02    0.20       1.0  T
   4    -42.5901550 -0.135896E-03  0.145E-02    0.21       1.4  T
   5    -42.5901637 -0.876205E-05  0.293E-03    0.21       6.8  T
   6    -42.5901640 -0.235771E-06  0.993E-04    0.21      20.1  T
   7    -42.5901640 -0.126109E-08  0.374E-04    0.21      53.5  T
     SCC iter.                  ...        0 min,  0.009 sec
     gradient                   ...        0 min,  0.011 sec
 * total energy  :   -42.0830123 Eh     change       -0.1590697E-03 Eh
   gradient norm :     0.0050522 Eh/α   predicted    -0.1250640E-03 ( -21.38%)
   displ. norm   :     0.0872655 α      lambda       -0.9734981E-04
   maximum displ.:     0.0532501 α      in ANC's #5, #9, #11, ...

........................................................................
.............................. CYCLE   34 ..............................
........................................................................

 iter      E             dE          RMSdq      gap      omega  full diag
   1    -42.5897918 -0.425898E+02  0.318E-02    0.20       0.0  T
   2    -42.5897809  0.109079E-04  0.262E-02    0.21       1.0  T
   3    -42.5897406  0.403152E-04  0.359E-02    0.21       1.0  T
   4    -42.5897883 -0.477877E-04  0.129E-02    0.20       1.5  T
   5    -42.5897950 -0.661049E-05  0.202E-03    0.21       9.9  T
   6    -42.5897950 -0.775308E-07  0.723E-04    0.21      27.6  T
   7    -42.5897950 -0.578609E-09  0.311E-04    0.21      64.2  T
     SCC iter.                  ...        0 min,  0.009 sec
     gradient                   ...        0 min,  0.011 sec
 * total energy  :   -42.0830668 Eh     change       -0.5454398E-04 Eh
   gradient norm :     0.0034246 Eh/α   predicted    -0.4904852E-04 ( -10.08%)
   displ. norm   :     0.0382669 α      lambda       -0.2708607E-04
   maximum displ.:     0.0248694 α      in ANC's #2, #11, #9, ...

........................................................................
.............................. CYCLE   35 ..............................
........................................................................

 iter      E             dE          RMSdq      gap      omega  full diag
   1    -42.5902272 -0.425902E+02  0.148E-02    0.20       0.0  T
   2    -42.5902183  0.886640E-05  0.187E-02    0.20       1.1  T
   3    -42.5902260 -0.768365E-05  0.101E-02    0.20       2.0  T
   4    -42.5902269 -0.846789E-06  0.712E-03    0.20       2.8  T
   5    -42.5902288 -0.193809E-05  0.160E-03    0.20      12.5  T
   6    -42.5902289 -0.689494E-07  0.400E-04    0.20      50.0  T
   7    -42.5902289 -0.140432E-08  0.230E-04    0.20      86.9  T
     SCC iter.                  ...        0 min,  0.009 sec
     gradient                   ...        0 min,  0.011 sec
 * total energy  :   -42.0830809 Eh     change       -0.1408051E-04 Eh
   gradient norm :     0.0022368 Eh/α   predicted    -0.1356395E-04 (  -3.67%)
   displ. norm   :     0.0164332 α      lambda       -0.8382934E-05
   maximum displ.:     0.0092972 α      in ANC's #2, #5, #14, ...

   *** GEOMETRY OPTIMIZATION CONVERGED AFTER 35 ITERATIONS ***

------------------------------------------------------------------------
 total energy gain   :       -26.4283662 Eh   -16584.0502 kcal/mol
 total RMSD          :         1.0293034 a0        0.5447 Å
 total power (kW/mol):     -1982.5047447 (step)********** (real)
------------------------------------------------------------------------

 ANCopt (total)                0 d,  0 h,  0 min,  1.003 sec
 optimizer setup                ...        0 min,  0.000 sec (  0.038%)
 model hessian                  ...        0 min,  0.011 sec (  1.064%)
 ANC generation                 ...        0 min,  0.001 sec (  0.144%)
 coordinate transformation      ...        0 min,  0.000 sec (  0.031%)
 single point calculation       ...        0 min,  0.981 sec ( 97.805%)
 optimization log               ...        0 min,  0.003 sec (  0.326%)
 hessian update                 ...        0 min,  0.000 sec (  0.044%)
 rational function              ...        0 min,  0.004 sec (  0.390%)

================
 final structure:
================
25
 xtb: 6.6.1 (8d0f1dd)
C            3.09109745792331        1.73512591397351        0.05375033939995
N            2.35384222439069        0.56689136573102        0.05172451968370
C            2.62848675711502       -2.39128891762105       -0.08134568450505
N            1.35240871353395       -2.19608090487831       -0.01942691832071
C            0.58832202300292       -1.03490177779097        0.00214946201897
C            1.10041740736176        0.29766546873079        0.01445697789564
C            0.09928272550171        1.43208221783845       -0.01427618443374
O            0.45568345353302        2.58650374594441       -0.03817168478681
N           -1.21889245152165        1.07683232602796       -0.00690651780409
C           -2.22865301000181        2.13009430656296       -0.01628557028798
C           -1.71245497332669       -0.20866568424366        0.01301193811044
O           -2.89159838504486       -0.43734662353099        0.02878028054370
N           -0.76616337825993       -1.24389470523306        0.00739799656228
C           -1.34040769390304       -2.58203317856291        0.00179053513941
H            3.62768049178075        1.80971611082976        1.00428969983193
H            3.84587551768985        1.66633304087445       -0.73861682506205
H            2.47856288462754        2.63845448862905       -0.08983015181604
H            2.97774188185092       -3.44015781073481       -0.09977172497011
H           -1.72421761142662        3.09286916618215       -0.00498160437551
H           -2.84588266802957        2.03628971075844       -0.90945188298334
H           -2.86994991954923        2.02618044664779        0.85838740194526
H           -1.06781078877055       -3.14064029892392        0.89984761418601
H           -1.07824378522792       -3.12750676396991       -0.90719528890469
H           -2.42562354170678       -2.45743948749107        0.01008187014422
H            0.73092818255721       -3.01684361415033        0.01176302068902

 Bond Distances (Angstroems)
 ---------------------------
C1-N2=1.3814         C1-H15=1.0941        C1-H16=1.0965        C1-H17=1.1008        N2-C1=1.3814         N2-C6=1.2826         
C3-N4=1.2924         C3-H18=1.1056        N4-C3=1.2924         N4-C5=1.3902         N4-H25=1.0300        C5-N4=1.3902         
C5-C6=1.4276         C5-N13=1.3705        C6-N2=1.2826         C6-C5=1.4276         C6-C7=1.5133         C7-C6=1.5133         
C7-O8=1.2084         C7-N9=1.3652         O8-C7=1.2084         N9-C7=1.3652         N9-C10=1.4591        N9-C11=1.3771        
C10-N9=1.4591        C10-H19=1.0870       C10-H20=1.0897       C10-H21=1.0895       C11-N9=1.3771        C11-O12=1.2012       
C11-N13=1.4026       O12-C11=1.2012       N13-C5=1.3705        N13-C11=1.4026       N13-C14=1.4562       C14-N13=1.4562       
C14-H22=1.0922       C14-H23=1.0920       C14-H24=1.0924       H15-C1=1.0941        H16-C1=1.0965        H17-C1=1.1008        
H18-C3=1.1056        H19-C10=1.0870       H20-C10=1.0897       H21-C10=1.0895       H22-C14=1.0922       H23-C14=1.0920       
H24-C14=1.0924       H25-N4=1.0300        
 C  H  Rav=1.0940 sigma=0.0053  Rmin=1.0870  Rmax=1.1056    10
 C  C  Rav=1.4705 sigma=0.0428  Rmin=1.4276  Rmax=1.5133     2
 N  H  Rav=1.0300 sigma=0.0000  Rmin=1.0300  Rmax=1.0300     1
 N  C  Rav=1.3777 sigma=0.0549  Rmin=1.2826  Rmax=1.4591    10
 O  C  Rav=1.2048 sigma=0.0036  Rmin=1.2012  Rmax=1.2084     2

 selected bond angles (degree)
 --------------------
H15-C1-N2=108.70               H16-C1-N2=108.26               H16-C1-H15=107.13              H17-C1-N2=113.38               
H17-C1-H15=109.29              H17-C1-H16=109.89              C6-N2-C1=134.36                H18-C3-N4=117.13               
C5-N4-C3=132.04                H25-N4-C3=118.48               H25-N4-C5=109.48               C6-C5-N4=125.64                
N13-C5-N4=114.57               N13-C5-C6=119.79               C5-C6-N2=123.14                C7-C6-N2=119.32                
C7-C6-C5=117.53                O8-C7-C6=121.43                N9-C7-C6=116.33                N9-C7-O8=122.24                
C10-N9-C7=118.71               C11-N9-C7=126.09               C11-N9-C10=115.21              H19-C10-N9=108.55              
H20-C10-N9=109.58              H20-C10-H19=110.34             H21-C10-N9=109.47              H21-C10-H19=110.44             
H21-C10-H20=108.44             

 selected dihedral angles (degree)
 ---------------------------------
C6-N2-C1-H15=115.79           C6-N2-C1-H16=231.84           C6-N2-C1-H17=354.04           C5-N4-C3-H18=180.95           
H25-N4-C3-H18=  0.15          C6-C5-N4-C3=357.13            C6-C5-N4-H25=177.87           N13-C5-N4-C3=176.94           
N13-C5-N4-H25=357.68          C5-C6-N2-C1=178.99            C7-C6-N2-C1=358.80            N2-C6-C5-N4=357.59            
N2-C6-C5-N13=177.80           C7-C6-C5-N4=177.78            C7-C6-C5-N13=357.98           O8-C7-C6-N2=  1.96            
O8-C7-C6-C5=181.79            N9-C7-C6-N2=182.18            N9-C7-C6-C5=  2.01            C10-N9-C7-C6=179.22           
C10-N9-C7-O8=359.44           C11-N9-C7-C6=359.43           C11-N9-C7-O8=179.66           H19-C10-N9-C7=358.69          
H19-C10-N9-C11=178.51         H20-C10-N9-C7=119.26          H20-C10-N9-C11=299.07         H21-C10-N9-C7=238.07          
H21-C10-N9-C11= 57.88         
           -------------------------------------------------
          |                Final Singlepoint                |
           -------------------------------------------------

          ...................................................
          :                      SETUP                      :
          :.................................................:
          :  # basis functions                  67          :
          :  # atomic orbitals                  67          :
          :  # shells                           39          :
          :  # electrons                        74          :
          :  max. iterations                   250          :
          :  Hamiltonian                  GFN2-xTB          :
          :  restarted?                      false          :
          :  GBSA solvation                  false          :
          :  PC potential                    false          :
          :  electronic temp.         5000.0000000     K    :
          :  accuracy                    1.0000000          :
          :  -> integral cutoff          0.2500000E+02      :
          :  -> integral neglect         0.1000000E-07      :
          :  -> SCF convergence          0.1000000E-05 Eh   :
          :  -> wf. convergence          0.1000000E-03 e    :
          :  Broyden damping             0.4000000          :
          ...................................................

 iter      E             dE          RMSdq      gap      omega  full diag
   1    -42.5902289 -0.425902E+02  0.586E-05    0.20       0.0  T
   2    -42.5902289  0.222656E-09  0.797E-05    0.20     250.9  T
   3    -42.5902289 -0.164079E-09  0.535E-05    0.20     373.9  T

   *** convergence criteria satisfied after 3 iterations ***

         #    Occupation            Energy/Eh            Energy/eV
      -------------------------------------------------------------
         1        2.0000           -0.8921156             -24.2757
       ...           ...                  ...                  ...
        31        1.9972           -0.6164476             -16.7744
        32        1.9946           -0.6058180             -16.4851
        33        1.9919           -0.5994611             -16.3122
        34        1.9843           -0.5887950             -16.0219
        35        1.9706           -0.5788068             -15.7501
        36        1.6537           -0.5369614             -14.6115
        37        1.2977           -0.5219267             -14.2023 (HOMO)
        38        1.0706           -0.5144435             -13.9987 (LUMO)
        39        0.0406           -0.4508078             -12.2671
        40        0.0018           -0.4009068             -10.9092
        41        0.0005           -0.3809761             -10.3669
        42        0.0000           -0.2978562              -8.1051
       ...           ...                  ...                  ...
        67                          0.5471878              14.8897
      -------------------------------------------------------------
                  HL-Gap            0.0074831 Eh            0.2036 eV
             Fermi-level           -0.5122047 Eh          -13.9378 eV

 SCC (total)                   0 d,  0 h,  0 min,  0.020 sec
 SCC setup                      ...        0 min,  0.000 sec (  0.917%)
 Dispersion                     ...        0 min,  0.000 sec (  0.802%)
 classical contributions        ...        0 min,  0.000 sec (  0.316%)
 integral evaluation            ...        0 min,  0.004 sec ( 20.380%)
 iterations                     ...        0 min,  0.004 sec ( 21.626%)
 molecular gradient             ...        0 min,  0.011 sec ( 55.363%)
 printout                       ...        0 min,  0.000 sec (  0.561%)

         :::::::::::::::::::::::::::::::::::::::::::::::::::::
         ::                     SUMMARY                     ::
         :::::::::::::::::::::::::::::::::::::::::::::::::::::
         :: total energy             -42.083080894436 Eh    ::
         :: gradient norm              0.002237852970 Eh/a0 ::
         :: HOMO-LUMO gap              0.203625603264 eV    ::
         ::.................................................::
         :: SCC energy               -42.590228885440 Eh    ::
         :: -> isotropic ES            0.132935410586 Eh    ::
         :: -> anisotropic ES         -0.007629990192 Eh    ::
         :: -> anisotropic XC          0.017268852524 Eh    ::
         :: -> dispersion             -0.021929205832 Eh    ::
         :: repulsion energy           0.507008977026 Eh    ::
         :: add. restraining           0.000024227473 Eh    ::
         :: total charge               1.000000000166 e     ::
         :::::::::::::::::::::::::::::::::::::::::::::::::::::

           -------------------------------------------------
          |                Property Printout                |
           -------------------------------------------------

    * Orbital Energies and Occupations

         #    Occupation            Energy/Eh            Energy/eV
      -------------------------------------------------------------
         1        2.0000           -0.8921156             -24.2757
       ...           ...                  ...                  ...
        25        1.9999           -0.6740907             -18.3429
        26        1.9999           -0.6677048             -18.1692
        27        1.9995           -0.6441481             -17.5282
        28        1.9994           -0.6415841             -17.4584
        29        1.9992           -0.6370050             -17.3338
        30        1.9987           -0.6284222             -17.1002
        31        1.9972           -0.6164476             -16.7744
        32        1.9946           -0.6058180             -16.4851
        33        1.9919           -0.5994611             -16.3122
        34        1.9843           -0.5887950             -16.0219
        35        1.9706           -0.5788068             -15.7501
        36        1.6537           -0.5369614             -14.6115
        37        1.2977           -0.5219267             -14.2023 (HOMO)
        38        1.0706           -0.5144435             -13.9987 (LUMO)
        39        0.0406           -0.4508078             -12.2671
        40        0.0018           -0.4009068             -10.9092
        41        0.0005           -0.3809761             -10.3669
        42        0.0000           -0.2978562              -8.1051
        43                         -0.2101178              -5.7176
        44                         -0.1707184              -4.6455
        45                         -0.1475991              -4.0164
        46                         -0.1171381              -3.1875
        47                         -0.0905091              -2.4629
        48                         -0.0443628              -1.2072
       ...                                ...                  ...
        67                          0.5471878              14.8897
      -------------------------------------------------------------
                  HL-Gap            0.0074831 Eh            0.2036 eV
             Fermi-level           -0.5122047 Eh          -13.9378 eV

     #   Z          covCN         q      C6AA      α(0)
     1   6 C        3.688    -0.058    21.818     6.686
     2   7 N        1.833    -0.083    23.602     7.199
     3   6 C        1.841    -0.066    32.957     9.274
     4   7 N        2.688     0.008    21.128     6.827
     5   6 C        2.833     0.098    25.821     8.327
     6   6 C        2.883     0.054    26.796     8.486
     7   6 C        2.769     0.268    22.477     7.765
     8   8 O        0.859    -0.326    20.261     6.035
     9   7 N        2.738    -0.064    22.477     7.041
    10   6 C        3.710    -0.063    21.855     6.681
    11   6 C        2.726     0.318    21.595     7.608
    12   8 O        0.860    -0.352    20.743     6.106
    13   7 N        2.744    -0.052    22.237     7.004
    14   6 C        3.702    -0.082    22.221     6.740
    15   1 H        0.924     0.132     1.519     1.928
    16   1 H        0.924     0.132     1.519     1.927
    17   1 H        0.923     0.144     1.436     1.874
    18   1 H        0.922     0.118     1.632     1.998
    19   1 H        0.925     0.114     1.660     2.015
    20   1 H        0.925     0.106     1.735     2.060
    21   1 H        0.925     0.106     1.727     2.055
    22   1 H        0.924     0.091     1.871     2.139
    23   1 H        0.924     0.091     1.870     2.138
    24   1 H        0.924     0.142     1.449     1.883
    25   1 H        0.859     0.225     0.988     1.557

 Mol. C6AA /au·bohr⁶  :       6565.728021
 Mol. C8AA /au·bohr⁸  :     151158.314856
 Mol. α(0) /au        :        123.352831


Wiberg/Mayer (AO) data.
largest (>0.10) Wiberg bond orders for each atom

 ---------------------------------------------------------------------------
     #   Z sym  total        # sym  WBO       # sym  WBO       # sym  WBO
 ---------------------------------------------------------------------------
     1   6 C    3.858 --     2 N    1.122    16 H    0.907    15 H    0.903
                            17 H    0.870
     2   7 N    2.842 --     6 C    1.576     1 C    1.122
     3   6 C    2.630 --     4 N    1.584    18 H    0.922
     4   7 N    3.657 --     3 C    1.584     5 C    1.125    25 H    0.856
     5   6 C    3.686 --    13 N    1.204     6 C    1.198     4 N    1.125
     6   6 C    3.918 --     2 N    1.576     5 C    1.198     7 C    0.927
     7   6 C    3.891 --     8 O    1.700     9 N    1.167     6 C    0.927
     8   8 O    2.021 --     7 C    1.700     9 N    0.138
     9   7 N    3.551 --     7 C    1.167    11 C    1.106    10 C    0.959
                             8 O    0.138    12 O    0.119
    10   6 C    3.894 --    19 H    0.968    21 H    0.960    20 H    0.960
                             9 N    0.959
    11   6 C    3.940 --    12 O    1.692     9 N    1.106    13 N    1.058
    12   8 O    2.011 --    11 C    1.692     9 N    0.119    13 N    0.112
    13   7 N    3.479 --     5 C    1.204    11 C    1.058    14 C    0.978
                            12 O    0.112
    14   6 C    3.915 --    13 N    0.978    23 H    0.959    22 H    0.958
                            24 H    0.948
    15   1 H    0.943 --     1 C    0.903
    16   1 H    0.941 --     1 C    0.907
    17   1 H    0.904 --     1 C    0.870
    18   1 H    0.942 --     3 C    0.922
    19   1 H    0.984 --    10 C    0.968
    20   1 H    0.980 --    10 C    0.960
    21   1 H    0.980 --    10 C    0.960
    22   1 H    0.982 --    14 C    0.958
    23   1 H    0.982 --    14 C    0.959
    24   1 H    0.977 --    14 C    0.948
    25   1 H    0.907 --     4 N    0.856
 ---------------------------------------------------------------------------

Topologies differ in total number of bonds
Writing topology from bond orders to xtbtopo.mol

molecular dipole:
                 x           y           z       tot (Debye)
 q only:        1.535      -1.459       0.021
   full:        1.337      -1.816       0.034       5.732
molecular quadrupole (traceless):
                xx          xy          yy          xz          yz          zz
 q only:        4.287      -0.700      14.531       0.383       0.401     -18.818
  q+dip:       -2.731      -1.239      17.998       0.556       0.441     -15.267
   full:       -4.124      -1.337      16.997       0.606       0.459     -12.873

           -------------------------------------------------
          |                Geometry Summary                 |
           -------------------------------------------------

      molecular mass/u    :      195.1988581
   center of mass at/Å    :        0.0693356      -0.0008812       0.0001155
  moments of inertia/u·Å² :        0.5806257E+03   0.6790023E+03   0.1249621E+04
rotational constants/cm⁻¹ :        0.2903356E-01   0.2482706E-01   0.1349019E-01

 * 23 selected distances

     #   Z          #   Z                                           value/Å
     1   6 C        2   7 N                                       1.3814202
     3   6 C        4   7 N                                       1.2924069
     4   7 N        5   6 C                                       1.3901911
     2   7 N        6   6 C                                       1.2825543
     5   6 C        6   6 C                                       1.4276306
     7   6 C        8   8 O                                       1.2084212
     7   6 C        9   7 N                                       1.3652263
     9   7 N       10   6 C                                       1.4591318 (max)
     9   7 N       11   6 C                                       1.3771370
    11   6 C       12   8 O                                       1.2012173
     5   6 C       13   7 N                                       1.3705242
    11   6 C       13   7 N                                       1.4025686
    13   7 N       14   6 C                                       1.4561603
     1   6 C       15   1 H                                       1.0940797
     1   6 C       16   1 H                                       1.0964800
     1   6 C       17   1 H                                       1.1008255
    10   6 C       19   1 H                                       1.0869768
    10   6 C       20   1 H                                       1.0897330
    10   6 C       21   1 H                                       1.0895471
    14   6 C       22   1 H                                       1.0921803
    14   6 C       23   1 H                                       1.0920288
    14   6 C       24   1 H                                       1.0923763
     4   7 N       25   1 H                                       1.0299818 (min)

 * 5 distinct bonds (by element types)

   Z      Z             #   av. dist./Å        max./Å        min./Å
   1 H    6 C           9     1.0926919     1.1008255     1.0869768
   6 C    6 C           1     1.4276306     1.4276306     1.4276306
   1 H    7 N           1     1.0299818     1.0299818     1.0299818
   6 C    7 N          10     1.3777321     1.4591318     1.2825543
   6 C    8 O           2     1.2048193     1.2084212     1.2012173


optimized geometry written to: xtbopt.xyz


           -------------------------------------------------
          | TOTAL ENERGY              -42.083080894436 Eh   |
          | GRADIENT NORM               0.002237852970 Eh/α |
          | HOMO-LUMO GAP               0.203625603264 eV   |
           -------------------------------------------------

------------------------------------------------------------------------
 * finished run on 2024/06/05 at 20:00:08.029     
------------------------------------------------------------------------
 total:
 * wall-time:     0 d,  0 h,  0 min,  1.110 sec
 *  cpu-time:     0 d,  0 h,  0 min,  1.076 sec
 * ratio c/w:     0.969 speedup
 SCF:
 * wall-time:     0 d,  0 h,  0 min,  0.040 sec
 *  cpu-time:     0 d,  0 h,  0 min,  0.040 sec
 * ratio c/w:     1.000 speedup
 ANC optimizer:
 * wall-time:     0 d,  0 h,  0 min,  1.042 sec
 *  cpu-time:     0 d,  0 h,  0 min,  1.025 sec
 * ratio c/w:     0.984 speedup

