      -----------------------------------------------------------      
     |                   =====================                   |     
     |                           x T B                           |     
     |                   =====================                   |     
     |                         S. Grimme                         |     
     |          Mulliken Center for Theoretical Chemistry        |     
     |                    University of Bonn                     |     
      -----------------------------------------------------------      

   * xtb version 6.6.1 (8d0f1dd) compiled by 'conda@1efc2f54142f' on 2023-08-01

   xtb is free software: you can redistribute it and/or modify it under
   the terms of the GNU Lesser General Public License as published by
   the Free Software Foundation, either version 3 of the License, or
   (at your option) any later version.
   
   xtb is distributed in the hope that it will be useful,
   but WITHOUT ANY WARRANTY; without even the implied warranty of
   MERCHANTABILITY or FITNESS FOR A PARTICULAR PURPOSE.  See the
   GNU Lesser General Public License for more details.
   
   Cite this work as:
   * C. Bannwarth, E. Caldeweyher, S. Ehlert, A. Hansen, P. Pracht,
     J. Seibert, S. Spicher, S. Grimme, WIREs Comput. Mol. Sci., 2020, 11,
     e01493. DOI: 10.1002/wcms.1493
   
   for GFN2-xTB:
   * C. Bannwarth, S. Ehlert and S. Grimme., J. Chem. Theory Comput., 2019,
     15, 1652-1671. DOI: 10.1021/acs.jctc.8b01176
   for GFN1-xTB:
   * S. Grimme, C. Bannwarth, P. Shushkov, J. Chem. Theory Comput., 2017,
     13, 1989-2009. DOI: 10.1021/acs.jctc.7b00118
   for GFN0-xTB:
   * P. Pracht, E. Caldeweyher, S. Ehlert, S. Grimme, ChemRxiv, 2019, preprint.
     DOI: 10.26434/chemrxiv.8326202.v1
   for GFN-FF:
   * S. Spicher and S. Grimme, Angew. Chem. Int. Ed., 2020, 59, 15665-15673.
     DOI: 10.1002/anie.202004239
   
   for ALPB and GBSA implicit solvation:
   * S. Ehlert, M. Stahn, S. Spicher, S. Grimme, J. Chem. Theory Comput.,
     2021, 17, 4250-4261. DOI: 10.1021/acs.jctc.1c00471
   
   for DFT-D4:
   * E. Caldeweyher, C. Bannwarth and S. Grimme, J. Chem. Phys., 2017,
     147, 034112. DOI: 10.1063/1.4993215
   * E. Caldeweyher, S. Ehlert, A. Hansen, H. Neugebauer, S. Spicher,
     C. Bannwarth and S. Grimme, J. Chem. Phys., 2019, 150, 154122.
     DOI: 10.1063/1.5090222
   * E. Caldeweyher, J.-M. Mewes, S. Ehlert and S. Grimme, Phys. Chem. Chem. Phys.
     2020, 22, 8499-8512. DOI: 10.1039/D0CP00502A
   
   for sTDA-xTB:
   * S. Grimme and C. Bannwarth, J. Chem. Phys., 2016, 145, 054103.
     DOI: 10.1063/1.4959605
   
   in the mass-spec context:
   * V. Asgeirsson, C. Bauer and S. Grimme, Chem. Sci., 2017, 8, 4879.
     DOI: 10.1039/c7sc00601b
   * J. Koopman and S. Grimme, ACS Omega 2019, 4, 12, 15120-15133.
     DOI: 10.1021/acsomega.9b02011
   
   for metadynamics refer to:
   * S. Grimme, J. Chem. Theory Comput., 2019, 155, 2847-2862
     DOI: 10.1021/acs.jctc.9b00143
   
   for SPH calculations refer to:
   * S. Spicher and S. Grimme, J. Chem. Theory Comput., 2021, 17, 1701-1714
     DOI: 10.1021/acs.jctc.0c01306
   
   with help from (in alphabetical order)
   P. Atkinson, C. Bannwarth, F. Bohle, G. Brandenburg, E. Caldeweyher
   M. Checinski, S. Dohm, S. Ehlert, S. Ehrlich, I. Gerasimov, C. Hölzer
   A. Katbashev, J. Koopman, C. Lavigne, S. Lehtola, F. März, M. Müller,
   F. Musil, H. Neugebauer, J. Pisarek, C. Plett, P. Pracht, F. Pultar,
   J. Seibert, P. Shushkov, S. Spicher, M. Stahn, M. Steiner, T. Strunk,
   J. Stückrath, T. Rose, and J. Unsleber
   
 * started run on 2024/06/05 at 19:57:57.137     

           -------------------------------------------------
          |                Calculation Setup                |
           -------------------------------------------------

          program call               : xtb struc.xyz --opt loose --input .xc1 --gfn2
          hostname                   : n-62-21-71
          coordinate file            : struc.xyz
          omp threads                :                     1

   ID    Z sym.   atoms
    1    6 C      1, 3, 5-7, 10, 11, 14
    2    7 N      2, 4, 9, 13
    3    8 O      8, 12
    4    1 H      15-25
constraining bond 5 12 to    5.7600000 Å, actual value:    3.4583605 Å

           -------------------------------------------------
          |                 G F N 2 - x T B                 |
           -------------------------------------------------

        Reference                      10.1021/acs.jctc.8b01176
      * Hamiltonian:
        H0-scaling (s, p, d)           1.850000    2.230000    2.230000
        zeta-weighting                 0.500000
      * Dispersion:
        s8                             2.700000
        a1                             0.520000
        a2                             5.000000
        s9                             5.000000
      * Repulsion:
        kExp                           1.500000    1.000000
        rExp                           1.000000
      * Coulomb:
        alpha                          2.000000
        third order                    shell-resolved
        anisotropic                    true
        a3                             3.000000
        a5                             4.000000
        cn-shift                       1.200000
        cn-exp                         4.000000
        max-rad                        5.000000


          ...................................................
          :                      SETUP                      :
          :.................................................:
          :  # basis functions                  67          :
          :  # atomic orbitals                  67          :
          :  # shells                           39          :
          :  # electrons                        74          :
          :  max. iterations                   250          :
          :  Hamiltonian                  GFN2-xTB          :
          :  restarted?                      false          :
          :  GBSA solvation                  false          :
          :  PC potential                    false          :
          :  electronic temp.         2500.0000000     K    :
          :  accuracy                    1.0000000          :
          :  -> integral cutoff          0.2500000E+02      :
          :  -> integral neglect         0.1000000E-07      :
          :  -> SCF convergence          0.1000000E-05 Eh   :
          :  -> wf. convergence          0.1000000E-03 e    :
          :  Broyden damping             0.4000000          :
          ...................................................

 iter      E             dE          RMSdq      gap      omega  full diag
   1    -42.5894761 -0.425895E+02  0.446E+00    3.52       0.0  T
   2    -42.7660496 -0.176573E+00  0.253E+00    3.37       1.0  T
   3    -42.7736311 -0.758158E-02  0.147E+00    3.27       1.0  T
   4    -42.7712089  0.242228E-02  0.522E-01    3.20       1.0  T
   5    -42.7763755 -0.516665E-02  0.115E-01    3.24       1.0  T
   6    -42.7764786 -0.103096E-03  0.599E-02    3.22       1.0  T
   7    -42.7764977 -0.190557E-04  0.265E-02    3.24       1.0  T
   8    -42.7765022 -0.458752E-05  0.826E-03    3.24       2.4  T
   9    -42.7765028 -0.511866E-06  0.435E-03    3.24       4.6  T
  10    -42.7765028 -0.741126E-07  0.110E-03    3.24      18.2  T
  11    -42.7765028 -0.615289E-08  0.514E-04    3.24      38.9  T
  12    -42.7765028 -0.131732E-08  0.162E-04    3.24     123.6  T

   *** convergence criteria satisfied after 12 iterations ***

         #    Occupation            Energy/Eh            Energy/eV
      -------------------------------------------------------------
         1        2.0000           -0.9218663             -25.0853
       ...           ...                  ...                  ...
        31        2.0000           -0.6245728             -16.9955
        32        2.0000           -0.6188521             -16.8398
        33        2.0000           -0.5946289             -16.1807
        34        1.9999           -0.5766508             -15.6915
        35        1.9996           -0.5616187             -15.2824
        36        1.9994           -0.5584494             -15.1962
        37        1.9993           -0.5575820             -15.1726 (HOMO)
        38        0.0017           -0.4385664             -11.9340 (LUMO)
        39        0.0000           -0.4059970             -11.0477
        40        0.0000           -0.3720875             -10.1250
        41                         -0.2883077              -7.8453
        42                         -0.2064013              -5.6165
       ...                                ...                  ...
        67                          0.5638960              15.3444
      -------------------------------------------------------------
                  HL-Gap            0.1190156 Eh            3.2386 eV
             Fermi-level           -0.4943591 Eh          -13.4522 eV

 SCC (total)                   0 d,  0 h,  0 min,  0.037 sec
 SCC setup                      ...        0 min,  0.000 sec (  0.640%)
 Dispersion                     ...        0 min,  0.000 sec (  0.846%)
 classical contributions        ...        0 min,  0.000 sec (  0.209%)
 integral evaluation            ...        0 min,  0.005 sec ( 14.327%)
 iterations                     ...        0 min,  0.018 sec ( 48.092%)
 molecular gradient             ...        0 min,  0.013 sec ( 35.396%)
 printout                       ...        0 min,  0.000 sec (  0.454%)

         :::::::::::::::::::::::::::::::::::::::::::::::::::::
         ::                     SUMMARY                     ::
         :::::::::::::::::::::::::::::::::::::::::::::::::::::
         :: total energy             -32.786347746816 Eh    ::
         :: gradient norm              6.151134516463 Eh/a0 ::
         :: HOMO-LUMO gap              3.238579380711 eV    ::
         ::.................................................::
         :: SCC energy               -42.776502838750 Eh    ::
         :: -> isotropic ES            0.143394945287 Eh    ::
         :: -> anisotropic ES         -0.005231236584 Eh    ::
         :: -> anisotropic XC          0.012162721064 Eh    ::
         :: -> dispersion             -0.022660936007 Eh    ::
         :: repulsion energy           0.531105277918 Eh    ::
         :: add. restraining           9.458935655007 Eh    ::
         :: total charge               1.000000000000 e     ::
         :::::::::::::::::::::::::::::::::::::::::::::::::::::

      ----------------------------------------------------------- 
     |                   =====================                   |
     |                        A N C O P T                        |
     |                   =====================                   |
     |               Approximate Normal Coordinate               |
     |                Rational Function Optimizer                |
      ----------------------------------------------------------- 

          ...................................................
          :                      SETUP                      :
          :.................................................:
          :   optimization level             loose          :
          :   max. optcycles                   200          :
          :   ANC micro-cycles                  20          :
          :   degrees of freedom                69          :
          :.................................................:
          :   RF solver                   davidson          :
          :   write xtbopt.log                true          :
          :   linear?                        false          :
          :   energy convergence         0.5000000E-04 Eh   :
          :   grad. convergence          0.4000000E-02 Eh/α :
          :   maxmium RF displ.          1.0000000          :
          :   Hlow (freq-cutoff)         0.1000000E-01      :
          :   Hmax (freq-cutoff)         5.0000000          :
          :   S6 in model hess.         20.0000000          :
          ...................................................

generating ANC from model Hessian ...
Using Lindh-Hessian (1995)
 Shifting diagonal of input Hessian by    1.1597297584166317     
 Lowest  eigenvalues of input Hessian
    0.010000    0.338327    0.000000    0.000000    0.000000    0.000000
    0.000000    0.000000    1.162738    1.164113    1.167633    1.168950
    1.169796    1.171316    1.171686    1.174806    1.180611    1.186488
 Highest eigenvalues
    3.161838    3.304691    3.385126    3.461146    3.609424    4.794883


........................................................................
.............................. CYCLE    1 ..............................
........................................................................

 iter      E             dE          RMSdq      gap      omega  full diag
   1    -42.7765028 -0.427765E+02  0.540E-05    3.24       0.0  T
   2    -42.7765028 -0.643041E-11  0.289E-05    3.24     692.1  T
   3    -42.7765028  0.881073E-12  0.138E-05    3.24    1448.6  T
     SCC iter.                  ...        0 min,  0.005 sec
     gradient                   ...        0 min,  0.013 sec
 * total energy  :   -32.7863477 Eh     change       -0.6633627E-10 Eh
   gradient norm :     6.1511349 Eh/α   predicted     0.0000000E+00 (-100.00%)
   displ. norm   :     0.7203027 α      lambda       -0.4384630E+01
   maximum displ.:     0.6012983 α      in ANC's #69, #60, #58, ...

........................................................................
.............................. CYCLE    2 ..............................
........................................................................

 iter      E             dE          RMSdq      gap      omega  full diag
   1    -42.6260495 -0.426260E+02  0.122E+00    2.99       0.0  T
   2    -42.6467452 -0.206958E-01  0.813E-01    2.07       1.0  T
   3    -42.6488554 -0.211018E-02  0.472E-01    2.16       1.0  T
   4    -42.6483835  0.471874E-03  0.209E-01    2.23       1.0  T
   5    -42.6491976 -0.814031E-03  0.553E-02    2.13       1.0  T
   6    -42.6492424 -0.448582E-04  0.205E-02    2.17       1.0  T
   7    -42.6492436 -0.120314E-05  0.977E-03    2.17       2.0  T
   8    -42.6492439 -0.247476E-06  0.412E-03    2.16       4.9  T
   9    -42.6492440 -0.154278E-06  0.215E-03    2.16       9.3  T
  10    -42.6492441 -0.350300E-07  0.758E-04    2.16      26.4  T
  11    -42.6492441 -0.495627E-08  0.288E-04    2.16      69.4  T
     SCC iter.                  ...        0 min,  0.015 sec
     gradient                   ...        0 min,  0.013 sec
 * total energy  :   -36.5252846 Eh     change       -0.3738937E+01 Eh
   gradient norm :     4.3236847 Eh/α   predicted    -0.3335383E+01 ( -10.79%)
   displ. norm   :     0.7601653 α      lambda       -0.3260890E+01
   maximum displ.:     0.6198596 α      in ANC's #69, #60, #58, ...

........................................................................
.............................. CYCLE    3 ..............................
........................................................................

 iter      E             dE          RMSdq      gap      omega  full diag
   1    -42.4021402 -0.424021E+02  0.133E+00    1.58       0.0  T
   2    -42.4091036 -0.696342E-02  0.123E+00    0.93       1.0  T
   3    -42.4333007 -0.241971E-01  0.556E-01    1.47       1.0  T
   4    -42.3856281  0.476726E-01  0.120E+00    0.66       1.0  T
   5    -42.4342005 -0.485724E-01  0.312E-01    1.32       1.0  T
   6    -42.4367626 -0.256209E-02  0.665E-02    1.24       1.0  T
   7    -42.4368510 -0.883982E-04  0.279E-02    1.22       1.0  T
   8    -42.4368559 -0.490437E-05  0.154E-02    1.21       1.3  T
   9    -42.4368558  0.704055E-07  0.102E-02    1.21       2.0  T
  10    -42.4368586 -0.276462E-05  0.472E-03    1.21       4.2  T
  11    -42.4368590 -0.435909E-06  0.188E-03    1.22      10.6  T
  12    -42.4368591 -0.630086E-07  0.848E-04    1.22      23.6  T
  13    -42.4368591 -0.144884E-07  0.409E-04    1.21      48.9  T
     SCC iter.                  ...        0 min,  0.018 sec
     gradient                   ...        0 min,  0.013 sec
 * total energy  :   -39.1397265 Eh     change       -0.2614442E+01 Eh
   gradient norm :     2.6718215 Eh/α   predicted    -0.2572600E+01 (  -1.60%)
   displ. norm   :     0.7522330 α      lambda       -0.1976792E+01
   maximum displ.:     0.5109807 α      in ANC's #69, #58, #60, ...

........................................................................
.............................. CYCLE    4 ..............................
........................................................................

 iter      E             dE          RMSdq      gap      omega  full diag
   1    -42.2056226 -0.422056E+02  0.132E+00    0.70       0.0  T
   2    -42.1018384  0.103784E+00  0.199E+00    1.53       1.0  T
   3    -42.1505698 -0.487313E-01  0.153E+00    0.37       1.0  T
   4    -42.2302544 -0.796846E-01  0.597E-01    1.06       1.0  T
   5    -42.2391491 -0.889469E-02  0.325E-01    0.76       1.0  T
   6    -42.2411351 -0.198605E-02  0.135E-01    0.78       1.0  T
   7    -42.2416403 -0.505144E-03  0.404E-02    0.82       1.0  T
   8    -42.2416105  0.297804E-04  0.353E-02    0.83       1.0  T
   9    -42.2416501 -0.396291E-04  0.110E-02    0.81       1.8  T
  10    -42.2416539 -0.375604E-05  0.500E-03    0.81       4.0  T
  11    -42.2416540 -0.113377E-06  0.296E-03    0.81       6.7  T
  12    -42.2416540 -0.498920E-07  0.143E-03    0.81      14.0  T
  13    -42.2416540  0.334098E-07  0.150E-03    0.81      13.3  T
  14    -42.2416541 -0.870257E-07  0.193E-04    0.81     103.9  T
  15    -42.2416541 -0.984443E-09  0.584E-05    0.81     342.4  T
     SCC iter.                  ...        0 min,  0.020 sec
     gradient                   ...        0 min,  0.013 sec
 * total energy  :   -40.6869022 Eh     change       -0.1547176E+01 Eh
   gradient norm :     1.5453135 Eh/α   predicted    -0.1547685E+01 (   0.03%)
   displ. norm   :     0.6253342 α      lambda       -0.9538118E+00
   maximum displ.:     0.4705546 α      in ANC's #69, #60, #39, ...

........................................................................
.............................. CYCLE    5 ..............................
........................................................................

 iter      E             dE          RMSdq      gap      omega  full diag
   1    -41.9559440 -0.419559E+02  0.214E+00    0.16       0.0  T
   2    -41.4158562  0.540088E+00  0.433E+00    1.30       1.0  T
   3    -41.9223913 -0.506535E+00  0.209E+00    1.66       1.0  T
   4    -42.1073602 -0.184969E+00  0.743E-01    0.41       1.0  T
   5    -42.0700815  0.372786E-01  0.112E+00    0.30       1.0  T
   6    -42.1013557 -0.312742E-01  0.688E-01    0.81       1.0  T
   7    -42.1070487 -0.569302E-02  0.604E-01    0.77       1.0  T
   8    -42.1156228 -0.857410E-02  0.433E-01    0.71       1.0  T
   9    -42.1239096 -0.828675E-02  0.910E-02    0.60       1.0  T
  10    -42.1243036 -0.394047E-03  0.111E-02    0.57       1.8  T
  11    -42.1243058 -0.215012E-05  0.705E-03    0.57       2.8  T
  12    -42.1243076 -0.178846E-05  0.301E-03    0.57       6.7  T
  13    -42.1243076 -0.914587E-07  0.180E-03    0.57      11.1  T
  14    -42.1243078 -0.140911E-06  0.300E-04    0.57      66.8  T
  15    -42.1243078  0.411320E-08  0.329E-04    0.57      60.9  T
     SCC iter.                  ...        0 min,  0.020 sec
     gradient                   ...        0 min,  0.013 sec
 * total energy  :   -41.3536587 Eh     change       -0.6667565E+00 Eh
   gradient norm :     0.6307870 Eh/α   predicted    -0.6633967E+00 (  -0.50%)
   displ. norm   :     0.4150851 α      lambda       -0.2576193E+00
   maximum displ.:     0.2649576 α      in ANC's #69, #39, #45, ...

........................................................................
.............................. CYCLE    6 ..............................
........................................................................

 iter      E             dE          RMSdq      gap      omega  full diag
   1    -41.8988841 -0.418989E+02  0.210E+00    0.02       0.0  T
   2    -41.1440341  0.754850E+00  0.477E+00    1.08       1.0  T
   3    -41.7872698 -0.643236E+00  0.263E+00    1.37       1.0  T
   4    -42.0614779 -0.274208E+00  0.890E-01    0.65       1.0  T
   5    -42.0939137 -0.324358E-01  0.212E-01    0.42       1.0  T
   6    -42.0898104  0.410328E-02  0.329E-01    0.36       1.0  T
   7    -42.0763523  0.134581E-01  0.612E-01    0.60       1.0  T
   8    -42.0947093 -0.183570E-01  0.490E-02    0.45       1.0  T
   9    -42.0942021  0.507243E-03  0.111E-01    0.41       1.0  T
  10    -42.0947910 -0.588914E-03  0.554E-03    0.44       3.6  T
  11    -42.0947909  0.753654E-07  0.363E-03    0.44       5.5  T
  12    -42.0947891  0.178712E-05  0.684E-03    0.44       2.9  T
  13    -42.0947912 -0.206178E-05  0.185E-03    0.44      10.8  T
  14    -42.0947913 -0.147249E-06  0.608E-04    0.44      32.9  T
  15    -42.0947913 -0.720505E-08  0.465E-04    0.44      43.0  T
     SCC iter.                  ...        0 min,  0.020 sec
     gradient                   ...        0 min,  0.013 sec
 * total energy  :   -41.5150673 Eh     change       -0.1614086E+00 Eh
   gradient norm :     0.2808019 Eh/α   predicted    -0.1510042E+00 (  -6.45%)
   displ. norm   :     0.2535882 α      lambda       -0.5928304E-01
   maximum displ.:     0.1077501 α      in ANC's #39, #45, #69, ...

........................................................................
.............................. CYCLE    7 ..............................
........................................................................

 iter      E             dE          RMSdq      gap      omega  full diag
   1    -42.0778936 -0.420779E+02  0.847E-01    0.20       0.0  T
   2    -41.7148169  0.363077E+00  0.295E+00    1.20       1.0  T
   3    -42.0685455 -0.353729E+00  0.111E+00    0.54       1.0  T
   4    -42.0536002  0.149453E-01  0.111E+00    0.66       1.0  T
   5    -42.1056646 -0.520644E-01  0.280E-01    0.44       1.0  T
   6    -42.1039366  0.172798E-02  0.293E-01    0.33       1.0  T
   7    -42.1078343 -0.389763E-02  0.858E-02    0.38       1.0  T
   8    -42.1076513  0.182952E-03  0.100E-01    0.37       1.0  T
   9    -42.1081011 -0.449779E-03  0.260E-02    0.39       1.0  T
  10    -42.1080655  0.355825E-04  0.350E-02    0.39       1.0  T
  11    -42.1081218 -0.562476E-04  0.601E-03    0.39       3.3  T
  12    -42.1081221 -0.396214E-06  0.505E-03    0.40       4.0  T
  13    -42.1081234 -0.125776E-05  0.435E-04    0.39      46.0  T
  14    -42.1081234 -0.365805E-08  0.313E-04    0.39      64.0  T
  15    -42.1081234 -0.407928E-08  0.996E-05    0.39     200.8  T
     SCC iter.                  ...        0 min,  0.020 sec
     gradient                   ...        0 min,  0.013 sec
 * total energy  :   -41.5608503 Eh     change       -0.4578299E-01 Eh
   gradient norm :     0.2486963 Eh/α   predicted    -0.3154773E-01 ( -31.09%)
   displ. norm   :     0.3845122 α      lambda       -0.6476412E-01
   maximum displ.:     0.1623548 α      in ANC's #2, #39, #35, ...

........................................................................
.............................. CYCLE    8 ..............................
........................................................................

 iter      E             dE          RMSdq      gap      omega  full diag
   1    -42.0924804 -0.420925E+02  0.110E+00    0.18       0.0  T
   2    -41.8409685  0.251512E+00  0.275E+00    0.67       1.0  T
   3    -42.0475488 -0.206580E+00  0.149E+00    0.22       1.0  T
   4    -41.9027736  0.144775E+00  0.226E+00    1.01       1.0  T
   5    -42.0835111 -0.180737E+00  0.113E+00    0.63       1.0  T
   6    -42.1043409 -0.208298E-01  0.826E-01    0.19       1.0  T
   7    -42.1357853 -0.314444E-01  0.288E-01    0.31       1.0  T
   8    -42.1370285 -0.124319E-02  0.236E-01    0.31       1.0  T
   9    -42.1395509 -0.252241E-02  0.749E-02    0.35       1.0  T
  10    -42.1397370 -0.186072E-03  0.422E-02    0.36       1.0  T
  11    -42.1398179 -0.808669E-04  0.561E-03    0.37       3.6  T
  12    -42.1398181 -0.237209E-06  0.487E-03    0.37       4.1  T
  13    -42.1398193 -0.116369E-05  0.808E-04    0.37      24.7  T
  14    -42.1398192  0.685772E-07  0.139E-03    0.37      14.4  T
  15    -42.1398193 -0.924801E-07  0.244E-04    0.37      82.0  T
  16    -42.1398193 -0.281678E-08  0.394E-05    0.37     507.1  T
     SCC iter.                  ...        0 min,  0.022 sec
     gradient                   ...        0 min,  0.013 sec
 * total energy  :   -41.6073833 Eh     change       -0.4653303E-01 Eh
   gradient norm :     0.2030049 Eh/α   predicted    -0.3716978E-01 ( -20.12%)
   displ. norm   :     0.3650059 α      lambda       -0.3904384E-01
   maximum displ.:     0.2006007 α      in ANC's #2, #39, #1, ...

........................................................................
.............................. CYCLE    9 ..............................
........................................................................

 iter      E             dE          RMSdq      gap      omega  full diag
   1    -42.0957008 -0.420957E+02  0.123E+00    0.28       0.0  T
   2    -41.4265002  0.669201E+00  0.392E+00    1.86       1.0  T
   3    -42.0165883 -0.590088E+00  0.180E+00    0.63       1.0  T
   4    -42.1163378 -0.997495E-01  0.112E+00    0.52       1.0  T
   5    -42.1577744 -0.414366E-01  0.562E-01    0.49       1.0  T
   6    -42.0785527  0.792217E-01  0.126E+00    0.18       1.0  T
   7    -42.1586585 -0.801058E-01  0.371E-01    0.36       1.0  T
   8    -42.1590068 -0.348335E-03  0.368E-01    0.35       1.0  T
   9    -42.1662670 -0.726013E-02  0.778E-02    0.41       1.0  T
  10    -42.1658261  0.440823E-03  0.116E-01    0.40       1.0  T
  11    -42.1665468 -0.720634E-03  0.192E-02    0.42       1.0  T
  12    -42.1665297  0.170318E-04  0.246E-02    0.42       1.0  T
  13    -42.1665627 -0.329484E-04  0.241E-03    0.42       8.3  T
  14    -42.1665629 -0.215411E-06  0.112E-03    0.42      17.9  T
  15    -42.1665630 -0.403906E-07  0.635E-04    0.42      31.5  T
  16    -42.1665630 -0.126369E-07  0.415E-04    0.42      48.2  T
     SCC iter.                  ...        0 min,  0.022 sec
     gradient                   ...        0 min,  0.013 sec
 * total energy  :   -41.6397358 Eh     change       -0.3235252E-01 Eh
   gradient norm :     0.2066290 Eh/α   predicted    -0.2212284E-01 ( -31.62%)
   displ. norm   :     0.6366724 α      lambda       -0.6690693E-01
   maximum displ.:     0.3916523 α      in ANC's #2, #39, #67, ...

........................................................................
.............................. CYCLE   10 ..............................
........................................................................

 iter      E             dE          RMSdq      gap      omega  full diag
   1    -41.8374398 -0.418374E+02  0.300E+00    0.00       0.0  T
   2    -40.8284548  0.100899E+01  0.542E+00    1.12       1.0  T
   3    -41.7021878 -0.873733E+00  0.315E+00    0.99       1.0  T
   4    -41.2532800  0.448908E+00  0.434E+00    0.02       1.0  T
   5    -42.1814830 -0.928203E+00  0.119E+00    0.22       1.0  T
   6    -42.1813805  0.102424E-03  0.110E+00    0.10       1.0  T
   7    -42.2057716 -0.243911E-01  0.602E-01    0.17       1.0  T
   8    -42.2043295  0.144208E-02  0.406E-01    0.15       1.0  T
   9    -42.2054123 -0.108272E-02  0.314E-01    0.16       1.0  T
  10    -42.2077436 -0.233135E-02  0.230E-01    0.24       1.0  T
  11    -42.2104779 -0.273434E-02  0.411E-02    0.21       1.0  T
  12    -42.2105368 -0.588865E-04  0.225E-02    0.21       1.0  T
  13    -42.2105478 -0.109927E-04  0.130E-02    0.21       1.5  T
  14    -42.2105484 -0.526434E-06  0.102E-02    0.20       2.0  T
  15    -42.2105539 -0.550904E-05  0.215E-03    0.20       9.3  T
  16    -42.2105541 -0.247276E-06  0.179E-04    0.20     111.7  T
  17    -42.2105541  0.185571E-08  0.220E-04    0.20      91.0  T
     SCC iter.                  ...        0 min,  0.023 sec
     gradient                   ...        0 min,  0.012 sec
 * total energy  :   -41.6992827 Eh     change       -0.5954685E-01 Eh
   gradient norm :     0.2251873 Eh/α   predicted    -0.4701394E-01 ( -21.05%)
   displ. norm   :     0.6822162 α      lambda       -0.6725947E-01
   maximum displ.:     0.4223449 α      in ANC's #2, #67, #19, ...

........................................................................
.............................. CYCLE   11 ..............................
........................................................................

 iter      E             dE          RMSdq      gap      omega  full diag
   1    -42.0901167 -0.420901E+02  0.184E+00    0.01       0.0  T
   2    -40.9264541  0.116366E+01  0.501E+00    1.50       1.0  T
   3    -42.2142889 -0.128783E+01  0.701E-01    0.13       1.0  T
   4    -42.2139598  0.329155E-03  0.528E-01    0.05       1.0  T
   5    -42.2195329 -0.557312E-02  0.280E-01    0.11       1.0  T
   6    -42.2224565 -0.292356E-02  0.102E-01    0.08       1.0  T
   7    -42.2228065 -0.350069E-03  0.358E-02    0.09       1.0  T
   8    -42.2228304 -0.238503E-04  0.149E-02    0.09       1.3  T
   9    -42.2228350 -0.461760E-05  0.409E-03    0.09       4.9  T
  10    -42.2228351 -0.138583E-06  0.239E-03    0.09       8.4  T
  11    -42.2228353 -0.140383E-06  0.120E-03    0.09      16.6  T
  12    -42.2228350  0.310090E-06  0.260E-03    0.09       7.7  T
  13    -42.2228353 -0.345260E-06  0.179E-04    0.09     111.6  T
  14    -42.2228353  0.928630E-08  0.436E-04    0.09      45.9  T
     SCC iter.                  ...        0 min,  0.019 sec
     gradient                   ...        0 min,  0.012 sec
 * total energy  :   -41.7317472 Eh     change       -0.3246454E-01 Eh
   gradient norm :     0.2874355 Eh/α   predicted    -0.4928224E-01 (  51.80%)
   displ. norm   :     0.1207281 α      lambda       -0.2775161E-01
   maximum displ.:     0.0587790 α      in ANC's #45, #39, #44, ...

........................................................................
.............................. CYCLE   12 ..............................
........................................................................

 iter      E             dE          RMSdq      gap      omega  full diag
   1    -42.2440868 -0.422441E+02  0.162E-01    0.08       0.0  T
   2    -42.2441287 -0.419019E-04  0.128E-01    0.09       1.0  T
   3    -42.2439470  0.181650E-03  0.122E-01    0.07       1.0  T
   4    -42.2393775  0.456951E-02  0.302E-01    0.12       1.0  T
   5    -42.2441485 -0.477096E-02  0.740E-02    0.08       1.0  T
   6    -42.2443906 -0.242132E-03  0.106E-02    0.08       1.9  T
   7    -42.2443935 -0.287159E-05  0.670E-03    0.08       3.0  T
   8    -42.2443942 -0.729531E-06  0.304E-03    0.08       6.6  T
   9    -42.2443945 -0.275782E-06  0.578E-04    0.08      34.6  T
  10    -42.2443945 -0.521520E-08  0.356E-04    0.08      56.2  T
     SCC iter.                  ...        0 min,  0.014 sec
     gradient                   ...        0 min,  0.012 sec
 * total energy  :   -41.7572042 Eh     change       -0.2545697E-01 Eh
   gradient norm :     0.2247422 Eh/α   predicted    -0.1407821E-01 ( -44.70%)
   displ. norm   :     0.5490532 α      lambda       -0.1015318E+00
   maximum displ.:     0.2584244 α      in ANC's #45, #44, #31, ...

........................................................................
.............................. CYCLE   13 ..............................
........................................................................

 iter      E             dE          RMSdq      gap      omega  full diag
   1    -42.3061631 -0.423062E+02  0.911E-01    0.03       0.0  T
   2    -41.7219718  0.584191E+00  0.339E+00    0.89       1.0  T
   3    -42.2882421 -0.566270E+00  0.880E-01    0.02       1.0  T
   4    -42.3144970 -0.262549E-01  0.468E-01    0.05       1.0  T
   5    -42.3172314 -0.273448E-02  0.227E-01    0.05       1.0  T
   6    -42.3194981 -0.226667E-02  0.330E-02    0.07       1.0  T
   7    -42.3195017 -0.362510E-05  0.224E-02    0.07       1.0  T
   8    -42.3195055 -0.379034E-05  0.140E-02    0.07       1.4  T
   9    -42.3195135 -0.800134E-05  0.431E-03    0.07       4.6  T
  10    -42.3195142 -0.681846E-06  0.144E-03    0.07      13.9  T
  11    -42.3195142 -0.340287E-07  0.536E-04    0.07      37.3  T
  12    -42.3195142 -0.325559E-08  0.372E-04    0.07      53.8  T
     SCC iter.                  ...        0 min,  0.017 sec
     gradient                   ...        0 min,  0.012 sec
 * total energy  :   -41.8210964 Eh     change       -0.6389214E-01 Eh
   gradient norm :     0.1257517 Eh/α   predicted    -0.6606963E-01 (   3.41%)
   displ. norm   :     0.2538864 α      lambda       -0.1505658E-01
   maximum displ.:     0.1298719 α      in ANC's #1, #45, #31, ...

........................................................................
.............................. CYCLE   14 ..............................
........................................................................

 iter      E             dE          RMSdq      gap      omega  full diag
   1    -42.3345511 -0.423346E+02  0.437E-01    0.04       0.0  T
   2    -42.0540445  0.280507E+00  0.233E+00    0.51       1.0  T
   3    -42.3348952 -0.280851E+00  0.319E-01    0.04       1.0  T
   4    -42.3378314 -0.293619E-02  0.173E-01    0.06       1.0  T
   5    -42.3387715 -0.940118E-03  0.391E-02    0.06       1.0  T
   6    -42.3388207 -0.491728E-04  0.124E-02    0.06       1.6  T
   7    -42.3388227 -0.200192E-05  0.567E-03    0.06       3.5  T
   8    -42.3388225  0.178515E-06  0.358E-03    0.06       5.6  T
   9    -42.3388230 -0.411240E-06  0.170E-03    0.06      11.8  T
  10    -42.3388230 -0.918623E-07  0.794E-04    0.06      25.2  T
  11    -42.3388231 -0.244135E-07  0.119E-04    0.06     167.9  T
     SCC iter.                  ...        0 min,  0.015 sec
     gradient                   ...        0 min,  0.013 sec
 * total energy  :   -41.8313642 Eh     change       -0.1026787E-01 Eh
   gradient norm :     0.1323618 Eh/α   predicted    -0.8013609E-02 ( -21.95%)
   displ. norm   :     0.1896599 α      lambda       -0.1308745E-01
   maximum displ.:     0.0797080 α      in ANC's #31, #38, #19, ...

........................................................................
.............................. CYCLE   15 ..............................
........................................................................

 iter      E             dE          RMSdq      gap      omega  full diag
   1    -42.3563615 -0.423564E+02  0.284E-01    0.04       0.0  T
   2    -42.2961127  0.602488E-01  0.110E+00    0.21       1.0  T
   3    -42.3536455 -0.575328E-01  0.294E-01    0.03       1.0  T
   4    -42.3572722 -0.362668E-02  0.133E-01    0.05       1.0  T
   5    -42.3576586 -0.386370E-03  0.359E-02    0.05       1.0  T
   6    -42.3576912 -0.326062E-04  0.100E-02    0.05       2.0  T
   7    -42.3576941 -0.293760E-05  0.348E-03    0.05       5.7  T
   8    -42.3576942 -0.251300E-07  0.164E-03    0.05      12.2  T
   9    -42.3576942 -0.217930E-07  0.802E-04    0.05      24.9  T
  10    -42.3576942 -0.201625E-07  0.340E-04    0.05      58.8  T
     SCC iter.                  ...        0 min,  0.014 sec
     gradient                   ...        0 min,  0.012 sec
 * total energy  :   -41.8413606 Eh     change       -0.9996341E-02 Eh
   gradient norm :     0.1102287 Eh/α   predicted    -0.6779425E-02 ( -32.18%)
   displ. norm   :     0.2443667 α      lambda       -0.1578297E-01
   maximum displ.:     0.1053947 α      in ANC's #1, #31, #38, ...

........................................................................
.............................. CYCLE   16 ..............................
........................................................................

 iter      E             dE          RMSdq      gap      omega  full diag
   1    -42.3746283 -0.423746E+02  0.311E-01    0.04       0.0  T
   2    -42.3724385  0.218982E-02  0.301E-01    0.06       1.0  T
   3    -42.3678731  0.456541E-02  0.418E-01    0.03       1.0  T
   4    -42.3732004 -0.532734E-02  0.228E-01    0.06       1.0  T
   5    -42.3754309 -0.223048E-02  0.551E-02    0.04       1.0  T
   6    -42.3755405 -0.109546E-03  0.128E-02    0.05       1.6  T
   7    -42.3755448 -0.434636E-05  0.522E-03    0.05       3.8  T
   8    -42.3755454 -0.534961E-06  0.221E-03    0.05       9.0  T
   9    -42.3755455 -0.153182E-06  0.462E-04    0.05      43.3  T
  10    -42.3755455 -0.151488E-09  0.297E-04    0.05      67.3  T
     SCC iter.                  ...        0 min,  0.014 sec
     gradient                   ...        0 min,  0.012 sec
 * total energy  :   -41.8511945 Eh     change       -0.9833938E-02 Eh
   gradient norm :     0.0768619 Eh/α   predicted    -0.8362759E-02 ( -14.96%)
   displ. norm   :     0.2181580 α      lambda       -0.5607468E-02
   maximum displ.:     0.1828588 α      in ANC's #1, #31, #17, ...

........................................................................
.............................. CYCLE   17 ..............................
........................................................................

 iter      E             dE          RMSdq      gap      omega  full diag
   1    -42.3795050 -0.423795E+02  0.212E-01    0.05       0.0  T
   2    -42.3778211  0.168385E-02  0.225E-01    0.03       1.0  T
   3    -42.3717750  0.604618E-02  0.402E-01    0.08       1.0  T
   4    -42.3794490 -0.767401E-02  0.145E-01    0.04       1.0  T
   5    -42.3800032 -0.554233E-03  0.283E-02    0.04       1.0  T
   6    -42.3800281 -0.249206E-04  0.999E-03    0.04       2.0  T
   7    -42.3800315 -0.336422E-05  0.301E-03    0.04       6.6  T
   8    -42.3800315  0.161533E-08  0.148E-03    0.04      13.5  T
   9    -42.3800316 -0.651215E-07  0.526E-04    0.04      38.0  T
  10    -42.3800316 -0.844361E-08  0.266E-04    0.04      75.2  T
     SCC iter.                  ...        0 min,  0.014 sec
     gradient                   ...        0 min,  0.012 sec
 * total energy  :   -41.8550863 Eh     change       -0.3891810E-02 Eh
   gradient norm :     0.0800292 Eh/α   predicted    -0.2937191E-02 ( -24.53%)
   displ. norm   :     0.2592486 α      lambda       -0.8597548E-02
   maximum displ.:     0.1546594 α      in ANC's #1, #31, #17, ...

........................................................................
.............................. CYCLE   18 ..............................
........................................................................

 iter      E             dE          RMSdq      gap      omega  full diag
   1    -42.3790699 -0.423791E+02  0.421E-01    0.05       0.0  T
   2    -42.3625512  0.165187E-01  0.658E-01    0.02       1.0  T
   3    -42.3594541  0.309714E-02  0.690E-01    0.13       1.0  T
   4    -42.3800449 -0.205909E-01  0.309E-01    0.03       1.0  T
   5    -42.3826010 -0.255605E-02  0.108E-01    0.04       1.0  T
   6    -42.3830073 -0.406364E-03  0.284E-02    0.04       1.0  T
   7    -42.3830367 -0.293068E-04  0.814E-03    0.04       2.5  T
   8    -42.3830377 -0.103471E-05  0.413E-03    0.04       4.8  T
   9    -42.3830381 -0.432696E-06  0.626E-04    0.04      32.0  T
  10    -42.3830381 -0.230598E-08  0.406E-04    0.04      49.3  T
     SCC iter.                  ...        0 min,  0.014 sec
     gradient                   ...        0 min,  0.012 sec
 * total energy  :   -41.8606671 Eh     change       -0.5580743E-02 Eh
   gradient norm :     0.0972947 Eh/α   predicted    -0.4587739E-02 ( -17.79%)
   displ. norm   :     0.2318279 α      lambda       -0.8133010E-02
   maximum displ.:     0.0906945 α      in ANC's #1, #31, #17, ...

........................................................................
.............................. CYCLE   19 ..............................
........................................................................

 iter      E             dE          RMSdq      gap      omega  full diag
   1    -42.3797583 -0.423798E+02  0.426E-01    0.04       0.0  T
   2    -42.3745618  0.519648E-02  0.477E-01    0.02       1.0  T
   3    -42.3675708  0.699097E-02  0.567E-01    0.10       1.0  T
   4    -42.3792848 -0.117140E-01  0.360E-01    0.02       1.0  T
   5    -42.3829179 -0.363307E-02  0.136E-01    0.03       1.0  T
   6    -42.3835688 -0.650954E-03  0.378E-02    0.04       1.0  T
   7    -42.3836255 -0.566575E-04  0.932E-03    0.04       2.1  T
   8    -42.3836276 -0.210964E-05  0.355E-03    0.04       5.6  T
   9    -42.3836278 -0.212590E-06  0.117E-03    0.04      17.1  T
  10    -42.3836278 -0.403239E-07  0.503E-04    0.04      39.7  T
  11    -42.3836278  0.170878E-09  0.294E-04    0.04      68.0  T
     SCC iter.                  ...        0 min,  0.015 sec
     gradient                   ...        0 min,  0.013 sec
 * total energy  :   -41.8667624 Eh     change       -0.6095308E-02 Eh
   gradient norm :     0.0855027 Eh/α   predicted    -0.4285071E-02 ( -29.70%)
   displ. norm   :     0.2567262 α      lambda       -0.9041378E-02
   maximum displ.:     0.0991448 α      in ANC's #31, #17, #60, ...

........................................................................
.............................. CYCLE   20 ..............................
........................................................................

 iter      E             dE          RMSdq      gap      omega  full diag
   1    -42.3787188 -0.423787E+02  0.518E-01    0.03       0.0  T
   2    -42.3740410  0.467779E-02  0.530E-01    0.05       1.0  T
   3    -42.3713642  0.267674E-02  0.603E-01    0.01       1.0  T
   4    -42.3832662 -0.119019E-01  0.204E-01    0.03       1.0  T
   5    -42.3837652 -0.499044E-03  0.554E-02    0.03       1.0  T
   6    -42.3838310 -0.658334E-04  0.125E-02    0.03       1.6  T
   7    -42.3838337 -0.265982E-05  0.598E-03    0.03       3.3  T
   8    -42.3838331  0.588527E-06  0.466E-03    0.03       4.3  T
   9    -42.3838338 -0.718875E-06  0.119E-03    0.03      16.8  T
  10    -42.3838339 -0.251887E-07  0.581E-04    0.03      34.4  T
  11    -42.3838338  0.105511E-07  0.594E-04    0.03      33.7  T
     SCC iter.                  ...        0 min,  0.015 sec
     gradient                   ...        0 min,  0.012 sec
 * total energy  :   -41.8730129 Eh     change       -0.6250522E-02 Eh
   gradient norm :     0.0816211 Eh/α   predicted    -0.4818656E-02 ( -22.91%)
   displ. norm   :     0.2007946 α      lambda       -0.6041429E-02
   maximum displ.:     0.0703164 α      in ANC's #17, #31, #60, ...
 * RMSD in coord.:     0.8712529 α      energy gain  -0.9086665E+01 Eh

generating ANC from model Hessian ...
Using Lindh-Hessian (1995)
 Shifting diagonal of input Hessian by    1.0637792954642173E-002
 Lowest  eigenvalues of input Hessian
    0.010000    0.000000    0.000000    0.000000    0.000000    0.000000
    0.000000    0.011433    0.012337    0.014105    0.017864    0.018675
    0.018846    0.020611    0.022866    0.025189    0.029514    0.032547
 Highest eigenvalues
    1.920798    2.127249    2.167057    2.284719    2.426859    2.898935


........................................................................
.............................. CYCLE   21 ..............................
........................................................................

 iter      E             dE          RMSdq      gap      omega  full diag
   1    -42.3809706 -0.423810E+02  0.405E-01    0.03       0.0  T
   2    -42.3615858  0.193848E-01  0.714E-01    0.10       1.0  T
   3    -42.3653043 -0.371849E-02  0.718E-01    0.00       1.0  T
   4    -42.3790743 -0.137700E-01  0.385E-01    0.01       1.0  T
   5    -42.3836505 -0.457616E-02  0.377E-02    0.03       1.0  T
   6    -42.3836943 -0.438438E-04  0.145E-02    0.03       1.4  T
   7    -42.3836990 -0.461011E-05  0.841E-03    0.03       2.4  T
   8    -42.3837005 -0.153806E-05  0.284E-03    0.03       7.0  T
   9    -42.3837006 -0.835741E-07  0.180E-03    0.03      11.1  T
  10    -42.3837007 -0.109875E-06  0.449E-04    0.03      44.5  T
  11    -42.3837007 -0.132174E-08  0.229E-04    0.03      87.4  T
     SCC iter.                  ...        0 min,  0.015 sec
     gradient                   ...        0 min,  0.012 sec
 * total energy  :   -41.8778912 Eh     change       -0.4878277E-02 Eh
   gradient norm :     0.1007695 Eh/α   predicted     0.0000000E+00 (-100.00%)
   displ. norm   :     0.4216601 α      lambda       -0.2274441E-01
   maximum displ.:     0.2103969 α      in ANC's #18, #16, #14, ...

........................................................................
.............................. CYCLE   22 ..............................
........................................................................

 iter      E             dE          RMSdq      gap      omega  full diag
   1    -42.3965701 -0.423966E+02  0.371E-01    0.03       0.0  T
   2    -42.3863053  0.102648E-01  0.642E-01    0.00       1.0  T
   3    -42.3964071 -0.101018E-01  0.277E-01    0.03       1.0  T
   4    -42.3921851  0.422200E-02  0.445E-01    0.01       1.0  T
   5    -42.3984439 -0.625886E-02  0.687E-02    0.02       1.0  T
   6    -42.3985859 -0.141988E-03  0.798E-03    0.02       2.5  T
   7    -42.3985841  0.179741E-05  0.964E-03    0.02       2.1  T
   8    -42.3985857 -0.151956E-05  0.537E-03    0.02       3.7  T
   9    -42.3985867 -0.100570E-05  0.652E-04    0.02      30.7  T
  10    -42.3985867 -0.270845E-08  0.406E-04    0.02      49.2  T
  11    -42.3985867  0.180694E-08  0.254E-04    0.02      78.7  T
     SCC iter.                  ...        0 min,  0.015 sec
     gradient                   ...        0 min,  0.013 sec
 * total energy  :   -41.8971468 Eh     change       -0.1925566E-01 Eh
   gradient norm :     0.0871919 Eh/α   predicted    -0.1340677E-01 ( -30.37%)
   displ. norm   :     0.6872411 α      lambda       -0.3170859E-01
   maximum displ.:     0.3507631 α      in ANC's #18, #14, #16, ...

........................................................................
.............................. CYCLE   23 ..............................
........................................................................

 iter      E             dE          RMSdq      gap      omega  full diag
   1    -42.4137081 -0.424137E+02  0.595E-01    0.01       0.0  T
   2    -42.3608167  0.528914E-01  0.116E+00    0.15       1.0  T
   3    -42.3853656 -0.245490E-01  0.102E+00    0.01       1.0  T
   4    -42.4035087 -0.181431E-01  0.680E-01    0.01       1.0  T
   5    -42.4171946 -0.136859E-01  0.132E-01    0.00       1.0  T
   6    -42.4176373 -0.442719E-03  0.539E-02    0.01       1.0  T
   7    -42.4177418 -0.104453E-03  0.228E-02    0.01       1.0  T
   8    -42.4177407  0.105199E-05  0.213E-02    0.01       1.0  T
   9    -42.4177577 -0.169818E-04  0.360E-03    0.01       5.6  T
  10    -42.4177581 -0.343777E-06  0.191E-03    0.01      10.5  T
  11    -42.4177582 -0.967069E-07  0.867E-04    0.01      23.1  T
  12    -42.4177582 -0.270662E-07  0.159E-04    0.01     125.6  T
     SCC iter.                  ...        0 min,  0.016 sec
     gradient                   ...        0 min,  0.013 sec
 * total energy  :   -41.9184905 Eh     change       -0.2134372E-01 Eh
   gradient norm :     0.0806913 Eh/α   predicted    -0.2334230E-01 (   9.36%)
   displ. norm   :     0.2897589 α      lambda       -0.6636005E-02
   maximum displ.:     0.1537215 α      in ANC's #7, #14, #17, ...

........................................................................
.............................. CYCLE   24 ..............................
........................................................................

 iter      E             dE          RMSdq      gap      omega  full diag
   1    -42.4246166 -0.424246E+02  0.281E-01    0.00       0.0  T
   2    -42.2937590  0.130858E+00  0.178E+00    0.28       1.0  T
   3    -42.4241654 -0.130406E+00  0.257E-01    0.00       1.0  T
   4    -42.4258137 -0.164836E-02  0.120E-01    0.00       1.0  T
   5    -42.4261849 -0.371124E-03  0.434E-02    0.00       1.0  T
   6    -42.4262478 -0.629266E-04  0.129E-02    0.00       1.5  T
   7    -42.4262517 -0.395477E-05  0.567E-03    0.01       3.5  T
   8    -42.4262527 -0.996049E-06  0.149E-03    0.01      13.4  T
   9    -42.4262528 -0.662706E-07  0.454E-04    0.01      44.0  T
  10    -42.4262528 -0.317852E-08  0.164E-04    0.01     121.9  T
     SCC iter.                  ...        0 min,  0.014 sec
     gradient                   ...        0 min,  0.013 sec
 * total energy  :   -41.9229553 Eh     change       -0.4464710E-02 Eh
   gradient norm :     0.0532373 Eh/α   predicted    -0.3596592E-02 ( -19.44%)
   displ. norm   :     0.2750352 α      lambda       -0.6230214E-02
   maximum displ.:     0.1502391 α      in ANC's #7, #2, #14, ...

........................................................................
.............................. CYCLE   25 ..............................
........................................................................

 iter      E             dE          RMSdq      gap      omega  full diag
   1    -42.4292698 -0.424293E+02  0.317E-01    0.01       0.0  T
   2    -42.3076697  0.121600E+00  0.172E+00    0.26       1.0  T
   3    -42.4302397 -0.122570E+00  0.205E-01    0.01       1.0  T
   4    -42.4310454 -0.805670E-03  0.855E-02    0.01       1.0  T
   5    -42.4311528 -0.107391E-03  0.226E-02    0.01       1.0  T
   6    -42.4311595 -0.677412E-05  0.693E-03    0.01       2.9  T
   7    -42.4311597 -0.146518E-06  0.404E-03    0.01       5.0  T
   8    -42.4311598 -0.156171E-06  0.135E-03    0.01      14.8  T
   9    -42.4311598 -0.176590E-07  0.728E-04    0.01      27.5  T
  10    -42.4311598  0.248838E-08  0.467E-04    0.01      42.9  T
     SCC iter.                  ...        0 min,  0.014 sec
     gradient                   ...        0 min,  0.013 sec
 * total energy  :   -41.9251557 Eh     change       -0.2200396E-02 Eh
   gradient norm :     0.0328655 Eh/α   predicted    -0.3350761E-02 (  52.28%)
   displ. norm   :     0.1242167 α      lambda       -0.1485439E-02
   maximum displ.:     0.0756591 α      in ANC's #2, #7, #12, ...

........................................................................
.............................. CYCLE   26 ..............................
........................................................................

 iter      E             dE          RMSdq      gap      omega  full diag
   1    -42.4345388 -0.424345E+02  0.926E-02    0.02       0.0  T
   2    -42.4328581  0.168070E-02  0.209E-01    0.03       1.0  T
   3    -42.4336544 -0.796303E-03  0.162E-01    0.02       1.0  T
   4    -42.4346027 -0.948282E-03  0.356E-02    0.02       1.0  T
   5    -42.4346243 -0.215912E-04  0.641E-03    0.02       3.1  T
   6    -42.4346246 -0.283857E-06  0.383E-03    0.02       5.2  T
   7    -42.4346249 -0.289458E-06  0.176E-03    0.02      11.4  T
   8    -42.4346249 -0.274711E-08  0.927E-04    0.02      21.6  T
   9    -42.4346249 -0.164018E-07  0.427E-04    0.02      46.8  T
     SCC iter.                  ...        0 min,  0.013 sec
     gradient                   ...        0 min,  0.013 sec
 * total energy  :   -41.9260073 Eh     change       -0.8516099E-03 Eh
   gradient norm :     0.0086769 Eh/α   predicted    -0.7541917E-03 ( -11.44%)
   displ. norm   :     0.1262090 α      lambda       -0.2735798E-03
   maximum displ.:     0.1107796 α      in ANC's #2, #7, #8, ...

........................................................................
.............................. CYCLE   27 ..............................
........................................................................

 iter      E             dE          RMSdq      gap      omega  full diag
   1    -42.4339302 -0.424339E+02  0.502E-02    0.03       0.0  T
   2    -42.4325363  0.139388E-02  0.190E-01    0.03       1.0  T
   3    -42.4339528 -0.141645E-02  0.304E-02    0.03       1.0  T
   4    -42.4339597 -0.695417E-05  0.198E-02    0.03       1.0  T
   5    -42.4339721 -0.123230E-04  0.381E-03    0.03       5.2  T
   6    -42.4339721 -0.531400E-07  0.242E-03    0.03       8.3  T
   7    -42.4339721 -0.141849E-07  0.108E-03    0.03      18.5  T
   8    -42.4339721  0.640286E-08  0.751E-04    0.03      26.6  T
   9    -42.4339721 -0.157306E-07  0.190E-04    0.03     105.4  T
     SCC iter.                  ...        0 min,  0.013 sec
     gradient                   ...        0 min,  0.013 sec
 * total energy  :   -41.9262270 Eh     change       -0.2197319E-03 Eh
   gradient norm :     0.0047859 Eh/α   predicted    -0.1389759E-03 ( -36.75%)
   displ. norm   :     0.2147000 α      lambda       -0.3061836E-03
   maximum displ.:     0.1909223 α      in ANC's #2, #7, #1, ...

........................................................................
.............................. CYCLE   28 ..............................
........................................................................

 iter      E             dE          RMSdq      gap      omega  full diag
   1    -42.4327555 -0.424328E+02  0.865E-02    0.05       0.0  T
   2    -42.4297874  0.296809E-02  0.280E-01    0.05       1.0  T
   3    -42.4327846 -0.299718E-02  0.592E-02    0.06       1.0  T
   4    -42.4328043 -0.196875E-04  0.436E-02    0.06       1.0  T
   5    -42.4328652 -0.609372E-04  0.780E-03    0.06       2.6  T
   6    -42.4328655 -0.303971E-06  0.483E-03    0.06       4.1  T
   7    -42.4328656 -0.731419E-07  0.201E-03    0.06      10.0  T
   8    -42.4328656  0.165184E-07  0.138E-03    0.06      14.5  T
   9    -42.4328656 -0.401397E-07  0.645E-04    0.06      31.0  T
  10    -42.4328656 -0.122237E-07  0.875E-05    0.06     228.6  T
     SCC iter.                  ...        0 min,  0.014 sec
     gradient                   ...        0 min,  0.013 sec
 * total energy  :   -41.9264715 Eh     change       -0.2445436E-03 Eh
   gradient norm :     0.0067374 Eh/α   predicted    -0.1601509E-03 ( -34.51%)
   displ. norm   :     0.2056683 α      lambda       -0.2295000E-03
   maximum displ.:     0.1837194 α      in ANC's #2, #7, #1, ...

........................................................................
.............................. CYCLE   29 ..............................
........................................................................

 iter      E             dE          RMSdq      gap      omega  full diag
   1    -42.4321201 -0.424321E+02  0.925E-02    0.09       0.0  T
   2    -42.4301452  0.197487E-02  0.234E-01    0.09       1.0  T
   3    -42.4320353 -0.189004E-02  0.788E-02    0.09       1.0  T
   4    -42.4321176 -0.823786E-04  0.548E-02    0.09       1.0  T
   5    -42.4322117 -0.941059E-04  0.899E-03    0.09       2.2  T
   6    -42.4322121 -0.334375E-06  0.554E-03    0.09       3.6  T
   7    -42.4322123 -0.206146E-06  0.209E-03    0.10       9.6  T
   8    -42.4322122  0.638367E-07  0.174E-03    0.10      11.5  T
   9    -42.4322123 -0.679354E-07  0.761E-04    0.10      26.3  T
  10    -42.4322123 -0.170740E-07  0.751E-05    0.10     266.4  T
     SCC iter.                  ...        0 min,  0.014 sec
     gradient                   ...        0 min,  0.013 sec
 * total energy  :   -41.9266897 Eh     change       -0.2181729E-03 Eh
   gradient norm :     0.0088236 Eh/α   predicted    -0.1196053E-03 ( -45.18%)
   displ. norm   :     0.3004336 α      lambda       -0.3747152E-03
   maximum displ.:     0.2550402 α      in ANC's #2, #1, #7, ...

........................................................................
.............................. CYCLE   30 ..............................
........................................................................

 iter      E             dE          RMSdq      gap      omega  full diag
   1    -42.4311413 -0.424311E+02  0.172E-01    0.16       0.0  T
   2    -42.4285745  0.256677E-02  0.287E-01    0.15       1.0  T
   3    -42.4296080 -0.103344E-02  0.218E-01    0.16       1.0  T
   4    -42.4309386 -0.133066E-02  0.117E-01    0.16       1.0  T
   5    -42.4313700 -0.431326E-03  0.183E-02    0.17       1.1  T
   6    -42.4313729 -0.294440E-05  0.975E-03    0.17       2.1  T
   7    -42.4313733 -0.420519E-06  0.437E-03    0.17       4.6  T
   8    -42.4313733  0.694977E-07  0.336E-03    0.17       5.9  T
   9    -42.4313735 -0.276998E-06  0.122E-03    0.17      16.3  T
  10    -42.4313736 -0.387771E-07  0.189E-04    0.17     106.0  T
  11    -42.4313736 -0.191449E-09  0.104E-04    0.17     192.2  T
     SCC iter.                  ...        0 min,  0.015 sec
     gradient                   ...        0 min,  0.013 sec
 * total energy  :   -41.9271331 Eh     change       -0.4433456E-03 Eh
   gradient norm :     0.0127339 Eh/α   predicted    -0.2042725E-03 ( -53.92%)
   displ. norm   :     0.4084543 α      lambda       -0.7790855E-03
   maximum displ.:     0.3301302 α      in ANC's #2, #1, #7, ...

........................................................................
.............................. CYCLE   31 ..............................
........................................................................

 iter      E             dE          RMSdq      gap      omega  full diag
   1    -42.4295082 -0.424295E+02  0.339E-01    0.31       0.0  T
   2    -42.4278254  0.168277E-02  0.322E-01    0.28       1.0  T
   3    -42.4097659  0.180595E-01  0.702E-01    0.23       1.0  T
   4    -42.4284378 -0.186719E-01  0.247E-01    0.30       1.0  T
   5    -42.4302442 -0.180640E-02  0.661E-02    0.31       1.0  T
   6    -42.4303522 -0.108010E-03  0.227E-02    0.31       1.0  T
   7    -42.4303580 -0.575206E-05  0.125E-02    0.31       1.6  T
   8    -42.4303602 -0.224532E-05  0.821E-03    0.31       2.4  T
   9    -42.4303623 -0.208040E-05  0.202E-03    0.31       9.9  T
  10    -42.4303623 -0.405886E-07  0.859E-04    0.31      23.3  T
  11    -42.4303623 -0.134553E-07  0.450E-04    0.31      44.5  T
     SCC iter.                  ...        0 min,  0.015 sec
     gradient                   ...        0 min,  0.013 sec
 * total energy  :   -41.9283588 Eh     change       -0.1225709E-02 Eh
   gradient norm :     0.0316748 Eh/α   predicted    -0.4545326E-03 ( -62.92%)
   displ. norm   :     0.5952542 α      lambda       -0.3035591E-02
   maximum displ.:     0.4375308 α      in ANC's #2, #1, #4, ...

........................................................................
.............................. CYCLE   32 ..............................
........................................................................

 iter      E             dE          RMSdq      gap      omega  full diag
   1    -42.4233555 -0.424234E+02  0.717E-01    0.69       0.0  T
   2    -42.4206909  0.266461E-02  0.600E-01    0.52       1.0  T
   3    -42.3967699  0.239209E-01  0.894E-01    0.40       1.0  T
   4    -42.4255498 -0.287799E-01  0.411E-01    0.60       1.0  T
   5    -42.4294089 -0.385906E-02  0.176E-01    0.61       1.0  T
   6    -42.4301201 -0.711277E-03  0.691E-02    0.62       1.0  T
   7    -42.4302568 -0.136622E-03  0.180E-02    0.62       1.1  T
   8    -42.4302598 -0.306588E-05  0.938E-03    0.63       2.1  T
   9    -42.4302607 -0.828075E-06  0.499E-03    0.63       4.0  T
  10    -42.4302608 -0.151285E-06  0.316E-03    0.63       6.3  T
  11    -42.4302608 -0.142693E-07  0.232E-03    0.63       8.6  T
  12    -42.4302609 -0.997615E-07  0.120E-03    0.63      16.7  T
  13    -42.4302610 -0.400745E-07  0.273E-04    0.63      73.2  T
  14    -42.4302610 -0.125272E-08  0.126E-04    0.63     158.7  T
     SCC iter.                  ...        0 min,  0.019 sec
     gradient                   ...        0 min,  0.013 sec
 * total energy  :   -41.9337978 Eh     change       -0.5439075E-02 Eh
   gradient norm :     0.0740192 Eh/α   predicted    -0.2055590E-02 ( -62.21%)
   displ. norm   :     0.6840701 α      lambda       -0.1193758E-01
   maximum displ.:     0.4403509 α      in ANC's #2, #1, #4, ...

........................................................................
.............................. CYCLE   33 ..............................
........................................................................

 iter      E             dE          RMSdq      gap      omega  full diag
   1    -42.4123021 -0.424123E+02  0.110E+00    1.29       0.0  T
   2    -42.3938820  0.184201E-01  0.108E+00    0.73       1.0  T
   3    -42.4249100 -0.310280E-01  0.571E-01    0.89       1.0  T
   4    -42.4336215 -0.871149E-02  0.297E-01    1.06       1.0  T
   5    -42.4351469 -0.152547E-02  0.140E-01    1.04       1.0  T
   6    -42.4352355 -0.885850E-04  0.811E-02    1.04       1.0  T
   7    -42.4353679 -0.132414E-03  0.201E-02    1.05       1.0  T
   8    -42.4353727 -0.477101E-05  0.822E-03    1.05       2.4  T
   9    -42.4353732 -0.526981E-06  0.291E-03    1.05       6.9  T
  10    -42.4353733 -0.495009E-07  0.151E-03    1.05      13.3  T
  11    -42.4353733 -0.219384E-07  0.802E-04    1.05      24.9  T
  12    -42.4353733 -0.497133E-08  0.532E-04    1.05      37.6  T
     SCC iter.                  ...        0 min,  0.016 sec
     gradient                   ...        0 min,  0.013 sec
 * total energy  :   -41.9497775 Eh     change       -0.1597967E-01 Eh
   gradient norm :     0.1161883 Eh/α   predicted    -0.8761873E-02 ( -45.17%)
   displ. norm   :     0.6352530 α      lambda       -0.2188827E-01
   maximum displ.:     0.3983775 α      in ANC's #2, #4, #10, ...

........................................................................
.............................. CYCLE   34 ..............................
........................................................................

 iter      E             dE          RMSdq      gap      omega  full diag
   1    -42.4250518 -0.424251E+02  0.130E+00    1.71       0.0  T
   2    -42.3902533  0.347986E-01  0.122E+00    0.84       1.0  T
   3    -42.4393850 -0.491318E-01  0.686E-01    1.47       1.0  T
   4    -42.4475044 -0.811934E-02  0.264E-01    1.48       1.0  T
   5    -42.4488128 -0.130839E-02  0.862E-02    1.39       1.0  T
   6    -42.4488551 -0.423650E-04  0.498E-02    1.37       1.0  T
   7    -42.4488586 -0.345357E-05  0.240E-02    1.37       1.0  T
   8    -42.4488708 -0.122181E-04  0.121E-02    1.37       1.7  T
   9    -42.4488716 -0.741768E-06  0.575E-03    1.37       3.5  T
  10    -42.4488719 -0.307654E-06  0.176E-03    1.37      11.3  T
  11    -42.4488719 -0.305203E-07  0.782E-04    1.37      25.6  T
  12    -42.4488719 -0.534534E-08  0.183E-04    1.37     109.0  T
     SCC iter.                  ...        0 min,  0.016 sec
     gradient                   ...        0 min,  0.013 sec
 * total energy  :   -41.9676460 Eh     change       -0.1786844E-01 Eh
   gradient norm :     0.1021469 Eh/α   predicted    -0.1536056E-01 ( -14.04%)
   displ. norm   :     0.4963219 α      lambda       -0.1935987E-01
   maximum displ.:     0.3492894 α      in ANC's #1, #2, #8, ...

........................................................................
.............................. CYCLE   35 ..............................
........................................................................

 iter      E             dE          RMSdq      gap      omega  full diag
   1    -42.4800887 -0.424801E+02  0.549E-01    1.72       0.0  T
   2    -42.4798598  0.228920E-03  0.302E-01    1.48       1.0  T
   3    -42.4810520 -0.119222E-02  0.286E-01    1.78       1.0  T
   4    -42.4820352 -0.983142E-03  0.483E-02    1.62       1.0  T
   5    -42.4820748 -0.396841E-04  0.222E-02    1.66       1.0  T
   6    -42.4820775 -0.262069E-05  0.117E-02    1.65       1.7  T
   7    -42.4820786 -0.109278E-05  0.456E-03    1.65       4.4  T
   8    -42.4820787 -0.126558E-06  0.287E-03    1.65       7.0  T
   9    -42.4820787 -0.585394E-07  0.111E-03    1.65      18.0  T
  10    -42.4820788 -0.154272E-07  0.427E-04    1.65      46.8  T
  11    -42.4820788 -0.114492E-08  0.194E-04    1.65     103.0  T
     SCC iter.                  ...        0 min,  0.015 sec
     gradient                   ...        0 min,  0.013 sec
 * total energy  :   -41.9731402 Eh     change       -0.5494269E-02 Eh
   gradient norm :     0.1843247 Eh/α   predicted    -0.1206440E-01 ( 119.58%)
   displ. norm   :     0.6778468 α      lambda       -0.3869006E-01
   maximum displ.:     0.4880440 α      in ANC's #2, #1, #15, ...

........................................................................
.............................. CYCLE   36 ..............................
........................................................................

 iter      E             dE          RMSdq      gap      omega  full diag
   1    -42.4859723 -0.424860E+02  0.598E-01    1.39       0.0  T
   2    -42.4873505 -0.137820E-02  0.361E-01    2.03       1.0  T
   3    -42.4889006 -0.155012E-02  0.233E-01    1.67       1.0  T
   4    -42.4891256 -0.225005E-03  0.566E-02    1.68       1.0  T
   5    -42.4891783 -0.527448E-04  0.180E-02    1.73       1.1  T
   6    -42.4891809 -0.251155E-05  0.845E-03    1.74       2.4  T
   7    -42.4891810 -0.116650E-06  0.366E-03    1.74       5.5  T
   8    -42.4891811 -0.169902E-06  0.189E-03    1.74      10.6  T
   9    -42.4891812 -0.297665E-07  0.100E-03    1.73      19.9  T
  10    -42.4891812 -0.854687E-08  0.385E-04    1.74      52.0  T
  11    -42.4891812 -0.778705E-09  0.208E-04    1.74      96.3  T
     SCC iter.                  ...        0 min,  0.015 sec
     gradient                   ...        0 min,  0.013 sec
 * total energy  :   -41.9870140 Eh     change       -0.1387381E-01 Eh
   gradient norm :     0.1465271 Eh/α   predicted    -0.2823354E-01 ( 103.50%)
   displ. norm   :     0.4874970 α      lambda       -0.3812525E-01
   maximum displ.:     0.2708139 α      in ANC's #2, #1, #4, ...

........................................................................
.............................. CYCLE   37 ..............................
........................................................................

 iter      E             dE          RMSdq      gap      omega  full diag
   1    -42.4850873 -0.424851E+02  0.332E-01    1.75       0.0  T
   2    -42.4852349 -0.147573E-03  0.180E-01    1.73       1.0  T
   3    -42.4851649  0.700386E-04  0.105E-01    1.77       1.0  T
   4    -42.4852793 -0.114426E-03  0.174E-02    1.72       1.2  T
   5    -42.4852836 -0.426778E-05  0.936E-03    1.74       2.1  T
   6    -42.4852840 -0.449819E-06  0.354E-03    1.73       5.7  T
   7    -42.4852841 -0.140029E-06  0.969E-04    1.73      20.6  T
   8    -42.4852842 -0.199368E-08  0.476E-04    1.73      42.0  T
     SCC iter.                  ...        0 min,  0.011 sec
     gradient                   ...        0 min,  0.013 sec
 * total energy  :   -42.0075718 Eh     change       -0.2055775E-01 Eh
   gradient norm :     0.1694329 Eh/α   predicted    -0.2359296E-01 (  14.76%)
   displ. norm   :     0.4886032 α      lambda       -0.3339211E-01
   maximum displ.:     0.2422751 α      in ANC's #14, #39, #1, ...

........................................................................
.............................. CYCLE   38 ..............................
........................................................................

 iter      E             dE          RMSdq      gap      omega  full diag
   1    -42.5014028 -0.425014E+02  0.500E-01    1.82       0.0  T
   2    -42.5020813 -0.678502E-03  0.270E-01    1.79       1.0  T
   3    -42.5020322  0.491444E-04  0.159E-01    1.81       1.0  T
   4    -42.5022110 -0.178769E-03  0.269E-02    1.79       1.0  T
   5    -42.5022225 -0.115278E-04  0.129E-02    1.80       1.6  T
   6    -42.5022243 -0.178317E-05  0.723E-03    1.80       2.8  T
   7    -42.5022245 -0.256220E-06  0.237E-03    1.80       8.4  T
   8    -42.5022246 -0.384028E-07  0.126E-03    1.80      15.9  T
   9    -42.5022246 -0.597976E-08  0.654E-04    1.80      30.6  T
  10    -42.5022246 -0.393500E-08  0.138E-04    1.80     145.0  T
     SCC iter.                  ...        0 min,  0.014 sec
     gradient                   ...        0 min,  0.013 sec
 * total energy  :   -42.0349401 Eh     change       -0.2736829E-01 Eh
   gradient norm :     0.1527832 Eh/α   predicted    -0.2068197E-01 ( -24.43%)
   displ. norm   :     0.8138416 α      lambda       -0.6307303E-01
   maximum displ.:     0.3768066 α      in ANC's #39, #14, #2, ...

........................................................................
.............................. CYCLE   39 ..............................
........................................................................

 iter      E             dE          RMSdq      gap      omega  full diag
   1    -42.5156879 -0.425157E+02  0.871E-01    1.42       0.0  T
   2    -42.5263632 -0.106753E-01  0.464E-01    1.62       1.0  T
   3    -42.5275017 -0.113855E-02  0.273E-01    1.64       1.0  T
   4    -42.5275465 -0.447082E-04  0.772E-02    1.61       1.0  T
   5    -42.5275875 -0.410110E-04  0.308E-02    1.64       1.0  T
   6    -42.5276053 -0.178753E-04  0.126E-02    1.63       1.6  T
   7    -42.5276058 -0.454438E-06  0.607E-03    1.63       3.3  T
   8    -42.5276060 -0.250676E-06  0.245E-03    1.63       8.2  T
   9    -42.5276061 -0.243898E-07  0.124E-03    1.63      16.2  T
  10    -42.5276061 -0.178452E-07  0.539E-04    1.63      37.1  T
  11    -42.5276061 -0.545685E-08  0.173E-04    1.63     115.7  T
     SCC iter.                  ...        0 min,  0.015 sec
     gradient                   ...        0 min,  0.013 sec
 * total energy  :   -42.0615189 Eh     change       -0.2657878E-01 Eh
   gradient norm :     0.1495016 Eh/α   predicted    -0.5242442E-01 (  97.24%)
   displ. norm   :     0.6866559 α      lambda       -0.6686190E-01
   maximum displ.:     0.4421162 α      in ANC's #1, #2, #8, ...

........................................................................
.............................. CYCLE   40 ..............................
........................................................................

 iter      E             dE          RMSdq      gap      omega  full diag
   1    -42.5769615 -0.425770E+02  0.765E-01    1.55       0.0  T
   2    -42.5781003 -0.113871E-02  0.466E-01    1.66       1.0  T
   3    -42.5776338  0.466412E-03  0.192E-01    1.46       1.0  T
   4    -42.5782023 -0.568430E-03  0.890E-02    1.67       1.0  T
   5    -42.5783970 -0.194704E-03  0.304E-02    1.59       1.0  T
   6    -42.5784034 -0.644390E-05  0.164E-02    1.60       1.2  T
   7    -42.5784039 -0.467435E-06  0.847E-03    1.60       2.4  T
   8    -42.5784044 -0.487963E-06  0.238E-03    1.60       8.4  T
   9    -42.5784045 -0.770687E-07  0.113E-03    1.60      17.6  T
  10    -42.5784045 -0.738209E-08  0.383E-04    1.60      52.2  T
  11    -42.5784045 -0.143548E-08  0.152E-04    1.60     131.9  T
     SCC iter.                  ...        0 min,  0.015 sec
     gradient                   ...        0 min,  0.013 sec
 * total energy  :   -42.0023724 Eh     change        0.5914645E-01 Eh
   gradient norm :     0.6571045 Eh/α   predicted    -0.4919347E-01 (-183.17%)
   displ. norm   :     0.3551124 α      lambda       -0.2043508E+00
   maximum displ.:     0.2540589 α      in ANC's #2, #1, #42, ...

........................................................................
.............................. CYCLE   41 ..............................
........................................................................

 iter      E             dE          RMSdq      gap      omega  full diag
   1    -42.5496700 -0.425497E+02  0.490E-01    1.67       0.0  T
   2    -42.5502092 -0.539158E-03  0.268E-01    1.66       1.0  T
   3    -42.5502288 -0.196118E-04  0.122E-01    1.69       1.0  T
   4    -42.5503144 -0.856272E-04  0.354E-02    1.66       1.0  T
   5    -42.5503229 -0.851174E-05  0.201E-02    1.68       1.0  T
   6    -42.5503259 -0.296067E-05  0.108E-02    1.67       1.9  T
   7    -42.5503267 -0.827396E-06  0.405E-03    1.67       4.9  T
   8    -42.5503269 -0.152402E-06  0.138E-03    1.67      14.4  T
   9    -42.5503269 -0.222468E-07  0.551E-04    1.67      36.3  T
  10    -42.5503269 -0.183654E-08  0.213E-04    1.67      93.8  T
     SCC iter.                  ...        0 min,  0.014 sec
     gradient                   ...        0 min,  0.013 sec
 * total energy  :   -42.0813615 Eh     change       -0.7898908E-01 Eh
   gradient norm :     0.0569823 Eh/α   predicted    -0.1150603E+00 (  45.67%)
   displ. norm   :     0.6351146 α      lambda       -0.2425050E-01
   maximum displ.:     0.3514363 α      in ANC's #1, #14, #21, ...

........................................................................
.............................. CYCLE   42 ..............................
........................................................................

 iter      E             dE          RMSdq      gap      omega  full diag
   1    -42.5583936 -0.425584E+02  0.418E-01    1.70       0.0  T
   2    -42.5585134 -0.119788E-03  0.248E-01    1.77       1.0  T
   3    -42.5583354  0.178049E-03  0.949E-02    1.67       1.0  T
   4    -42.5585519 -0.216534E-03  0.192E-02    1.77       1.0  T
   5    -42.5585585 -0.662036E-05  0.896E-03    1.75       2.2  T
   6    -42.5585592 -0.672660E-06  0.433E-03    1.75       4.6  T
   7    -42.5585593 -0.126471E-06  0.192E-03    1.75      10.4  T
   8    -42.5585594 -0.352236E-07  0.664E-04    1.75      30.1  T
   9    -42.5585594 -0.491583E-08  0.324E-04    1.75      61.7  T
     SCC iter.                  ...        0 min,  0.012 sec
     gradient                   ...        0 min,  0.013 sec
 * total energy  :   -42.0823595 Eh     change       -0.9980511E-03 Eh
   gradient norm :     0.1383054 Eh/α   predicted    -0.1701621E-01 (1604.94%)
   displ. norm   :     0.3322084 α      lambda       -0.1954451E-01
   maximum displ.:     0.1719864 α      in ANC's #1, #39, #28, ...
 * RMSD in coord.:     0.9973191 α      energy gain  -0.2093466E+00 Eh

generating ANC from model Hessian ...
Using Lindh-Hessian (1995)
 Shifting diagonal of input Hessian by    9.7879556190943774E-003
 Lowest  eigenvalues of input Hessian
    0.000000    0.000000    0.000000    0.000000    0.000000    0.000000
    0.010000    0.011846    0.012379    0.013772    0.017956    0.019124
    0.019989    0.021662    0.028058    0.028451    0.030823    0.036141
 Highest eigenvalues
    1.865376    1.982895    2.095219    2.248139    2.273740    3.336124


........................................................................
.............................. CYCLE   43 ..............................
........................................................................

 iter      E             dE          RMSdq      gap      omega  full diag
   1    -42.5632094 -0.425632E+02  0.336E-01    1.75       0.0  T
   2    -42.5636293 -0.419908E-03  0.178E-01    1.70       1.0  T
   3    -42.5636487 -0.193754E-04  0.990E-02    1.75       1.0  T
   4    -42.5636936 -0.449091E-04  0.244E-02    1.70       1.0  T
   5    -42.5637059 -0.123406E-04  0.926E-03    1.73       2.2  T
   6    -42.5637074 -0.147859E-05  0.380E-03    1.72       5.3  T
   7    -42.5637075 -0.665301E-07  0.194E-03    1.72      10.3  T
   8    -42.5637075 -0.149178E-07  0.711E-04    1.72      28.1  T
   9    -42.5637075 -0.671922E-08  0.276E-04    1.72      72.5  T
     SCC iter.                  ...        0 min,  0.013 sec
     gradient                   ...        0 min,  0.013 sec
 * total energy  :   -42.0928394 Eh     change       -0.1047987E-01 Eh
   gradient norm :     0.0589399 Eh/α   predicted     0.0000000E+00 (-100.00%)
   displ. norm   :     0.4001705 α      lambda       -0.8135625E-02
   maximum displ.:     0.2212716 α      in ANC's #3, #4, #2, ...

........................................................................
.............................. CYCLE   44 ..............................
........................................................................

 iter      E             dE          RMSdq      gap      omega  full diag
   1    -42.5710918 -0.425711E+02  0.162E-01    1.73       0.0  T
   2    -42.5712110 -0.119197E-03  0.993E-02    1.78       1.0  T
   3    -42.5712191 -0.812103E-05  0.554E-02    1.74       1.0  T
   4    -42.5712348 -0.156483E-04  0.190E-02    1.77       1.1  T
   5    -42.5712423 -0.748327E-05  0.672E-03    1.76       3.0  T
   6    -42.5712426 -0.317680E-06  0.345E-03    1.76       5.8  T
   7    -42.5712426 -0.406360E-07  0.188E-03    1.76      10.6  T
   8    -42.5712426 -0.280060E-07  0.595E-04    1.76      33.6  T
   9    -42.5712426 -0.563396E-08  0.220E-04    1.76      90.9  T
     SCC iter.                  ...        0 min,  0.013 sec
     gradient                   ...        0 min,  0.013 sec
 * total energy  :   -42.0990169 Eh     change       -0.6177512E-02 Eh
   gradient norm :     0.0367039 Eh/α   predicted    -0.4727339E-02 ( -23.48%)
   displ. norm   :     0.4743926 α      lambda       -0.6025754E-02
   maximum displ.:     0.2921008 α      in ANC's #3, #4, #2, ...

........................................................................
.............................. CYCLE   45 ..............................
........................................................................

 iter      E             dE          RMSdq      gap      omega  full diag
   1    -42.5761799 -0.425762E+02  0.216E-01    1.77       0.0  T
   2    -42.5763633 -0.183455E-03  0.126E-01    1.84       1.0  T
   3    -42.5763713 -0.793928E-05  0.692E-02    1.78       1.0  T
   4    -42.5763974 -0.261708E-04  0.215E-02    1.83       1.0  T
   5    -42.5764068 -0.936368E-05  0.786E-03    1.81       2.5  T
   6    -42.5764072 -0.390518E-06  0.391E-03    1.81       5.1  T
   7    -42.5764072 -0.470537E-07  0.200E-03    1.81      10.0  T
   8    -42.5764073 -0.314178E-07  0.689E-04    1.81      29.0  T
   9    -42.5764073 -0.790678E-08  0.269E-04    1.81      74.2  T
     SCC iter.                  ...        0 min,  0.012 sec
     gradient                   ...        0 min,  0.013 sec
 * total energy  :   -42.1029969 Eh     change       -0.3979938E-02 Eh
   gradient norm :     0.0219093 Eh/α   predicted    -0.3690923E-02 (  -7.26%)
   displ. norm   :     0.3418146 α      lambda       -0.2286388E-02
   maximum displ.:     0.2095105 α      in ANC's #3, #12, #2, ...

........................................................................
.............................. CYCLE   46 ..............................
........................................................................

 iter      E             dE          RMSdq      gap      omega  full diag
   1    -42.5781435 -0.425781E+02  0.144E-01    1.83       0.0  T
   2    -42.5782015 -0.579775E-04  0.856E-02    1.86       1.0  T
   3    -42.5781995  0.197780E-05  0.444E-02    1.83       1.0  T
   4    -42.5782117 -0.121987E-04  0.112E-02    1.85       1.8  T
   5    -42.5782145 -0.277950E-05  0.404E-03    1.84       4.9  T
   6    -42.5782146 -0.126252E-06  0.201E-03    1.84      10.0  T
   7    -42.5782146 -0.827526E-08  0.106E-03    1.84      18.9  T
   8    -42.5782146 -0.798816E-08  0.379E-04    1.84      52.8  T
   9    -42.5782146 -0.211919E-08  0.155E-04    1.84     128.8  T
     SCC iter.                  ...        0 min,  0.012 sec
     gradient                   ...        0 min,  0.013 sec
 * total energy  :   -42.1045970 Eh     change       -0.1600152E-02 Eh
   gradient norm :     0.0223509 Eh/α   predicted    -0.1276764E-02 ( -20.21%)
   displ. norm   :     0.3125109 α      lambda       -0.1658616E-02
   maximum displ.:     0.1726966 α      in ANC's #12, #3, #2, ...

[...]
H            3.94130573865109        1.10815422732125       -0.75811867671801
H            2.52794874976848        2.08448687437806       -0.27634574509534
H            3.77524622249795       -1.49289550642419        0.16965987750815
H           -1.69036141691293        2.83500819246403        0.35673163539728
H           -4.23389634762956        2.12874695653762       -0.63327229028299
H           -2.82912363209882        1.64290222865621        1.11877018082452
H           -1.01159336343427       -3.37966097462861        0.89689947912170
H           -0.97962163579856       -3.42994223502687       -0.88432347494240
H           -2.40912337481417       -2.81266783402529       -0.03668480320348
H            1.77667226901485       -3.07478260151149        0.17012500380527

 Bond Distances (Angstroems)
 ---------------------------
C1-N2=1.4409         C1-H15=1.0909        C1-H16=1.0889        C1-H17=1.0899        N2-C1=1.4409         N2-C3=1.3252         
N2-C6=1.3733         C3-N2=1.3252         C3-N4=1.3526         C3-H18=1.0724        N4-C3=1.3526         N4-C5=1.3505         
N4-H25=1.0107        C5-N4=1.3505         C5-C6=1.4022         C5-N13=1.3872        C6-N2=1.3733         C6-C5=1.4022         
C6-C7=1.4954         C7-C6=1.4954         C7-O8=1.2075         C7-N9=1.4107         O8-C7=1.2075         N9-C7=1.4107         
N9-C10=1.6689        N9-C11=1.3491        C10-N9=1.6689        C10-O12=1.4253       C10-H19=1.0914       C10-H21=1.0930       
C11-N9=1.3491        C11-N13=1.3796       O12-C10=1.4253       O12-H20=0.9649       N13-C5=1.3872        N13-C11=1.3796       
N13-C14=1.4533       C14-N13=1.4533       C14-H22=1.0911       C14-H23=1.0911       C14-H24=1.0866       H15-C1=1.0909        
H16-C1=1.0889        H17-C1=1.0899        H18-C3=1.0724        H19-C10=1.0914       H20-O12=0.9649       H21-C10=1.0930       
H22-C14=1.0911       H23-C14=1.0911       H24-C14=1.0866       H25-N4=1.0107        
 C  H  Rav=1.0884 sigma=0.0059  Rmin=1.0724  Rmax=1.0930     9
 C  C  Rav=1.4488 sigma=0.0466  Rmin=1.4022  Rmax=1.4954     2
 N  H  Rav=1.0107 sigma=0.0000  Rmin=1.0107  Rmax=1.0107     1
 N  C  Rav=1.4083 sigma=0.0906  Rmin=1.3252  Rmax=1.6689    11
 O  H  Rav=0.9649 sigma=0.0000  Rmin=0.9649  Rmax=0.9649     1
 O  C  Rav=1.3164 sigma=0.1089  Rmin=1.2075  Rmax=1.4253     2

 selected bond angles (degree)
 --------------------
H15-C1-N2=110.05               H16-C1-N2=110.24               H16-C1-H15=108.90              H17-C1-N2=108.84               
H17-C1-H15=108.84              H17-C1-H16=109.94              C3-N2-C1=125.42                C6-N2-C1=126.31                
C6-N2-C3=108.26                N4-C3-N2=110.56                H18-C3-N2=125.10               H18-C3-N4=124.33               
C5-N4-C3=107.05                H25-N4-C3=125.75               H25-N4-C5=127.20               C6-C5-N4=108.27                
N13-C5-N4=139.45               N13-C5-C6=112.28               C5-C6-N2=105.86                C7-C6-N2=128.29                
C7-C6-C5=125.83                O8-C7-C6=122.11                N9-C7-C6=114.03                N9-C7-O8=123.84                
C10-N9-C7=114.83               C11-N9-C7=120.57               C11-N9-C10=122.48              O12-C10-N9=133.54              
H19-C10-N9= 98.36              H19-C10-O12=103.76             H21-C10-N9= 98.14              H21-C10-O12=109.87             
H21-C10-H19=112.50             

 selected dihedral angles (degree)
 ---------------------------------
C3-N2-C1-H15=290.68           C3-N2-C1-H16= 50.83           C3-N2-C1-H17=171.49           C6-N2-C1-H15=109.53           
C6-N2-C1-H16=229.68           C6-N2-C1-H17=350.34           N4-C3-N2-C1=178.90            N4-C3-N2-C6=359.88            
H18-C3-N2-C1=358.79           H18-C3-N2-C6=179.77           C5-N4-C3-N2=  0.00            C5-N4-C3-H18=180.13           
H25-N4-C3-N2=179.58           H25-N4-C3-H18=359.70          C6-C5-N4-C3=  0.09            C6-C5-N4-H25=180.53           
N13-C5-N4-C3=181.31           N13-C5-N4-H25=  1.75          C5-C6-N2-C1=181.16            C5-C6-N2-C3=  0.17            
C7-C6-N2-C1=359.67            C7-C6-N2-C3=178.69            N2-C6-C5-N4=359.84            N2-C6-C5-N13=178.99           
C7-C6-C5-N4=181.28            C7-C6-C5-N13=  0.42           O8-C7-C6-N2=  1.96            O8-C7-C6-C5=180.21            
N9-C7-C6-N2=183.34            N9-C7-C6-C5=  1.58            C10-N9-C7-C6=162.19           C10-N9-C7-O8=343.59           
C11-N9-C7-C6=358.35           C11-N9-C7-O8=179.75           O12-C10-N9-C7=115.59          O12-C10-N9-C11=279.09         
H19-C10-N9-C7=357.47          H19-C10-N9-C11=160.97         H21-C10-N9-C7=243.16          H21-C10-N9-C11= 46.66         
           -------------------------------------------------
          |                Final Singlepoint                |
           -------------------------------------------------

          ...................................................
          :                      SETUP                      :
          :.................................................:
          :  # basis functions                  67          :
          :  # atomic orbitals                  67          :
          :  # shells                           39          :
          :  # electrons                        74          :
          :  max. iterations                   250          :
          :  Hamiltonian                  GFN2-xTB          :
          :  restarted?                      false          :
          :  GBSA solvation                  false          :
          :  PC potential                    false          :
          :  electronic temp.         2500.0000000     K    :
          :  accuracy                    1.0000000          :
          :  -> integral cutoff          0.2500000E+02      :
          :  -> integral neglect         0.1000000E-07      :
          :  -> SCF convergence          0.1000000E-05 Eh   :
          :  -> wf. convergence          0.1000000E-03 e    :
          :  Broyden damping             0.4000000          :
          ...................................................

 iter      E             dE          RMSdq      gap      omega  full diag
   1    -42.5893625 -0.425894E+02  0.122E-04    1.82       0.0  T
   2    -42.5893625 -0.610072E-10  0.862E-05    1.82     231.9  T
   3    -42.5893625 -0.114163E-09  0.475E-05    1.82     421.0  T

   *** convergence criteria satisfied after 3 iterations ***

         #    Occupation            Energy/Eh            Energy/eV
      -------------------------------------------------------------
         1        2.0000           -0.9127715             -24.8378
       ...           ...                  ...                  ...
        31        2.0000           -0.6156895             -16.7538
        32        2.0000           -0.6014819             -16.3672
        33        2.0000           -0.5836047             -15.8807
        34        2.0000           -0.5631966             -15.3254
        35        2.0000           -0.5558071             -15.1243
        36        1.9999           -0.5475689             -14.9001
        37        1.9706           -0.5013829             -13.6433 (HOMO)
        38        0.0288           -0.4346266             -11.8268 (LUMO)
        39        0.0008           -0.4056927             -11.0395
        40        0.0000           -0.3835529             -10.4370
        41                         -0.3176206              -8.6429
        42                         -0.2897286              -7.8839
       ...                                ...                  ...
        67                          0.5095301              13.8650
      -------------------------------------------------------------
                  HL-Gap            0.0667563 Eh            1.8165 eV
             Fermi-level           -0.4680971 Eh          -12.7376 eV

 SCC (total)                   0 d,  0 h,  0 min,  0.023 sec
 SCC setup                      ...        0 min,  0.000 sec (  0.842%)
 Dispersion                     ...        0 min,  0.000 sec (  0.861%)
 classical contributions        ...        0 min,  0.000 sec (  0.313%)
 integral evaluation            ...        0 min,  0.005 sec ( 21.397%)
 iterations                     ...        0 min,  0.005 sec ( 20.270%)
 molecular gradient             ...        0 min,  0.013 sec ( 55.719%)
 printout                       ...        0 min,  0.000 sec (  0.536%)

         :::::::::::::::::::::::::::::::::::::::::::::::::::::
         ::                     SUMMARY                     ::
         :::::::::::::::::::::::::::::::::::::::::::::::::::::
         :: total energy             -42.110524545193 Eh    ::
         :: gradient norm              0.002608920763 Eh/a0 ::
         :: HOMO-LUMO gap              1.816531454707 eV    ::
         ::.................................................::
         :: SCC energy               -42.589362450420 Eh    ::
         :: -> isotropic ES            0.127913719867 Eh    ::
         :: -> anisotropic ES         -0.006075259384 Eh    ::
         :: -> anisotropic XC          0.014713513982 Eh    ::
         :: -> dispersion             -0.021672923639 Eh    ::
         :: repulsion energy           0.477035666901 Eh    ::
         :: add. restraining           0.001735159177 Eh    ::
         :: total charge               1.000000000000 e     ::
         :::::::::::::::::::::::::::::::::::::::::::::::::::::

           -------------------------------------------------
          |                Property Printout                |
           -------------------------------------------------

    * Orbital Energies and Occupations

         #    Occupation            Energy/Eh            Energy/eV
      -------------------------------------------------------------
         1        2.0000           -0.9127715             -24.8378
       ...           ...                  ...                  ...
        25        2.0000           -0.6638015             -18.0630
        26        2.0000           -0.6487956             -17.6546
        27        2.0000           -0.6425121             -17.4836
        28        2.0000           -0.6297399             -17.1361
        29        2.0000           -0.6190426             -16.8450
        30        2.0000           -0.6168813             -16.7862
        31        2.0000           -0.6156895             -16.7538
        32        2.0000           -0.6014819             -16.3672
        33        2.0000           -0.5836047             -15.8807
        34        2.0000           -0.5631966             -15.3254
        35        2.0000           -0.5558071             -15.1243
        36        1.9999           -0.5475689             -14.9001
        37        1.9706           -0.5013829             -13.6433 (HOMO)
        38        0.0288           -0.4346266             -11.8268 (LUMO)
        39        0.0008           -0.4056927             -11.0395
        40        0.0000           -0.3835529             -10.4370
        41                         -0.3176206              -8.6429
        42                         -0.2897286              -7.8839
        43                         -0.2085887              -5.6760
        44                         -0.1784580              -4.8561
        45                         -0.1397245              -3.8021
        46                         -0.0931055              -2.5335
        47                         -0.0646149              -1.7583
        48                         -0.0593238              -1.6143
       ...                                ...                  ...
        67                          0.5095301              13.8650
      -------------------------------------------------------------
                  HL-Gap            0.0667563 Eh            1.8165 eV
             Fermi-level           -0.4680971 Eh          -12.7376 eV

     #   Z          covCN         q      C6AA      α(0)
     1   6 C        3.692    -0.095    22.508     6.788
     2   7 N        2.835     0.085    19.770     6.604
     3   6 C        3.087     0.055    26.665     8.465
     4   7 N        2.777    -0.048    22.165     6.992
     5   6 C        3.059     0.105    25.626     8.302
     6   6 C        3.108    -0.011    28.146     8.692
     7   6 C        2.761     0.273    22.389     7.749
     8   8 O        0.857    -0.375    21.195     6.172
     9   7 N        2.677    -0.070    22.610     7.062
    10   6 C        3.549     0.115    19.616     6.476
    11   6 C        1.860    -0.092    33.679     9.374
    12   8 O        1.653    -0.365    20.182     6.064
    13   7 N        2.749     0.009    21.101     6.822
    14   6 C        3.705    -0.077    22.124     6.724
    15   1 H        0.924     0.108     1.718     2.050
    16   1 H        0.925     0.104     1.746     2.066
    17   1 H        0.925     0.141     1.451     1.884
    18   1 H        0.926     0.123     1.586     1.970
    19   1 H        0.924     0.124     1.579     1.965
    20   1 H        0.805     0.318     0.668     1.284
    21   1 H        0.924     0.078     1.997     2.210
    22   1 H        0.924     0.074     2.046     2.237
    23   1 H        0.924     0.075     2.028     2.227
    24   1 H        0.925     0.115     1.654     2.011
    25   1 H        0.860     0.230     0.965     1.539

 Mol. C6AA /au·bohr⁶  :       6572.895205
 Mol. C8AA /au·bohr⁸  :     151660.322302
 Mol. α(0) /au        :        123.729653


Wiberg/Mayer (AO) data.
largest (>0.10) Wiberg bond orders for each atom

 ---------------------------------------------------------------------------
     #   Z sym  total        # sym  WBO       # sym  WBO       # sym  WBO
 ---------------------------------------------------------------------------
     1   6 C    3.913 --     2 N    0.982    16 H    0.963    17 H    0.957
                            15 H    0.956
     2   7 N    3.721 --     3 C    1.415     6 C    1.183     1 C    0.982
     3   6 C    3.917 --     2 N    1.415     4 N    1.279    18 H    0.952
     4   7 N    3.614 --     3 C    1.279     5 C    1.209    25 H    0.919
     5   6 C    3.961 --     6 C    1.371     4 N    1.209    13 N    1.163
     6   6 C    3.933 --     5 C    1.371     2 N    1.183     7 C    1.037
     7   6 C    3.956 --     8 O    1.716     9 N    1.102     6 C    1.037
     8   8 O    2.072 --     7 C    1.716     9 N    0.137
     9   7 N    3.614 --    11 C    1.385     7 C    1.102    10 C    0.825
                             8 O    0.137
    10   6 C    3.908 --    12 O    1.102    21 H    0.967    19 H    0.958
                             9 N    0.825
    11   6 C    2.866 --     9 N    1.385    13 N    1.264
    12   8 O    2.090 --    10 C    1.102    20 H    0.886
    13   7 N    3.621 --    11 C    1.264     5 C    1.163    14 C    0.986
    14   6 C    3.943 --    13 N    0.986    22 H    0.973    23 H    0.973
                            24 H    0.972
    15   1 H    0.987 --     1 C    0.956
    16   1 H    0.988 --     1 C    0.963
    17   1 H    0.980 --     1 C    0.957
    18   1 H    0.984 --     3 C    0.952
    19   1 H    0.984 --    10 C    0.958
    20   1 H    0.899 --    12 O    0.886
    21   1 H    0.993 --    10 C    0.967
    22   1 H    0.993 --    14 C    0.973
    23   1 H    0.992 --    14 C    0.973
    24   1 H    0.986 --    14 C    0.972
    25   1 H    0.946 --     4 N    0.919
 ---------------------------------------------------------------------------

Topologies differ in total number of bonds
Writing topology from bond orders to xtbtopo.mol

molecular dipole:
                 x           y           z       tot (Debye)
 q only:        1.944      -2.506       0.491
   full:        2.569      -3.123       0.517      10.362
molecular quadrupole (traceless):
                xx          xy          yy          xz          yz          zz
 q only:       25.599      -5.352      -2.870      -0.439       2.317     -22.729
  q+dip:       25.406      -8.935      -4.728      -0.557       2.544     -20.678
   full:       24.159      -8.276      -5.636      -0.450       2.908     -18.523

           -------------------------------------------------
          |                Geometry Summary                 |
           -------------------------------------------------

      molecular mass/u    :      195.1988581
   center of mass at/Å    :        0.0122231       0.1099922      -0.0766792
  moments of inertia/u·Å² :        0.4848969E+03   0.9122616E+03   0.1379347E+04
rotational constants/cm⁻¹ :        0.3476540E-01   0.1847894E-01   0.1222146E-01

 * 23 selected distances

     #   Z          #   Z                                           value/Å
     1   6 C        2   7 N                                       1.4409152
     2   7 N        3   6 C                                       1.3251958
     3   6 C        4   7 N                                       1.3526347
     4   7 N        5   6 C                                       1.3504625
     2   7 N        6   6 C                                       1.3732810
     5   6 C        6   6 C                                       1.4022400
     7   6 C        8   8 O                                       1.2075484
     7   6 C        9   7 N                                       1.4107495
     9   7 N       11   6 C                                       1.3491391
    10   6 C       12   8 O                                       1.4253470
     5   6 C       13   7 N                                       1.3871616
    13   7 N       14   6 C                                       1.4532848 (max)
     1   6 C       15   1 H                                       1.0908935
     1   6 C       16   1 H                                       1.0888568
     1   6 C       17   1 H                                       1.0898746
     3   6 C       18   1 H                                       1.0724487
    10   6 C       19   1 H                                       1.0913688
    12   8 O       20   1 H                                       0.9649119 (min)
    10   6 C       21   1 H                                       1.0930146
    14   6 C       22   1 H                                       1.0910798
    14   6 C       23   1 H                                       1.0911211
    14   6 C       24   1 H                                       1.0865897
     4   7 N       25   1 H                                       1.0107247

 * 6 distinct bonds (by element types)

   Z      Z             #   av. dist./Å        max./Å        min./Å
   1 H    6 C           9     1.0883608     1.0930146     1.0724487
   6 C    6 C           1     1.4022400     1.4022400     1.4022400
   1 H    7 N           1     1.0107247     1.0107247     1.0107247
   6 C    7 N           9     1.3825360     1.4532848     1.3251958
   1 H    8 O           1     0.9649119     0.9649119     0.9649119
   6 C    8 O           2     1.3164477     1.4253470     1.2075484


optimized geometry written to: xtbopt.xyz


           -------------------------------------------------
          | TOTAL ENERGY              -42.110524545193 Eh   |
          | GRADIENT NORM               0.002608920763 Eh/α |
          | HOMO-LUMO GAP               1.816531454707 eV   |
           -------------------------------------------------

------------------------------------------------------------------------
 * finished run on 2024/06/05 at 19:57:59.110     
------------------------------------------------------------------------
 total:
 * wall-time:     0 d,  0 h,  0 min,  1.973 sec
 *  cpu-time:     0 d,  0 h,  0 min,  1.955 sec
 * ratio c/w:     0.991 speedup
 SCF:
 * wall-time:     0 d,  0 h,  0 min,  0.037 sec
 *  cpu-time:     0 d,  0 h,  0 min,  0.037 sec
 * ratio c/w:     1.000 speedup
 ANC optimizer:
 * wall-time:     0 d,  0 h,  0 min,  1.910 sec
 *  cpu-time:     0 d,  0 h,  0 min,  1.906 sec
 * ratio c/w:     0.998 speedup

