25
 energy: -42.104573010427 gnorm: 0.003506412945 xtb: 6.6.1 (8d0f1dd)
C            3.29643566318948        1.08965877881727        0.03116780087269
N            2.33606026586070        0.01878299010808        0.00926701566658
C            2.59590875691763       -1.28523628007173        0.05128643825571
N            1.43750227382171       -1.98483164008721        0.02388123660017
C            0.40745202325833       -1.09433579459438       -0.03835139056705
C            0.96735498246110        0.17669306208343       -0.04626504734800
C            0.17447323095981        1.36670193411615       -0.11688575016362
O            0.55739139469641        2.51538591212859       -0.11868001179743
N           -1.22749212427622        1.05373800052181       -0.19649786546303
C           -2.08354090007311        2.08247509201675       -0.27702504904863
C           -1.80077274146503       -0.25012861407701       -0.18838597007562
O           -2.98662562357915       -0.40958795789307       -0.26238513560903
N           -0.91983412955519       -1.32485055096066       -0.08746807984549
C           -1.46107863956509       -2.67204648644349       -0.05174726090957
H            3.80910746220264        1.11962196874329        0.99338452179511
H            4.03628171146539        0.95053715650541       -0.75666265362099
H            2.77262843106513        2.03251028715989       -0.12076613723972
H            3.57291753743539       -1.72304176794897        0.09815582068256
H           -1.67346126111974        3.07515505340244       -0.27472032725356
H           -3.13465626384207        1.87694335754156       -0.33848035857413
H           -4.04329710768995        3.20588685155661        1.78367291264132
H           -1.15405555050404       -3.17842684551031        0.86347980144132
H           -1.13571150084094       -3.23854886656819       -0.92467690843083
H           -2.54710523404671       -2.59287319284249       -0.06742067803307
H            1.36454885732341       -2.99194390610392        0.04329469392441
