      -----------------------------------------------------------      
     |                   =====================                   |     
     |                           x T B                           |     
     |                   =====================                   |     
     |                         S. Grimme                         |     
     |          Mulliken Center for Theoretical Chemistry        |     
     |                    University of Bonn                     |     
      -----------------------------------------------------------      

   * xtb version 6.6.1 (8d0f1dd) compiled by 'conda@1efc2f54142f' on 2023-08-01

   xtb is free software: you can redistribute it and/or modify it under
   the terms of the GNU Lesser General Public License as published by
   the Free Software Foundation, either version 3 of the License, or
   (at your option) any later version.
   
   xtb is distributed in the hope that it will be useful,
   but WITHOUT ANY WARRANTY; without even the implied warranty of
   MERCHANTABILITY or FITNESS FOR A PARTICULAR PURPOSE.  See the
   GNU Lesser General Public License for more details.
   
   Cite this work as:
   * C. Bannwarth, E. Caldeweyher, S. Ehlert, A. Hansen, P. Pracht,
     J. Seibert, S. Spicher, S. Grimme, WIREs Comput. Mol. Sci., 2020, 11,
     e01493. DOI: 10.1002/wcms.1493
   
   for GFN2-xTB:
   * C. Bannwarth, S. Ehlert and S. Grimme., J. Chem. Theory Comput., 2019,
     15, 1652-1671. DOI: 10.1021/acs.jctc.8b01176
   for GFN1-xTB:
   * S. Grimme, C. Bannwarth, P. Shushkov, J. Chem. Theory Comput., 2017,
     13, 1989-2009. DOI: 10.1021/acs.jctc.7b00118
   for GFN0-xTB:
   * P. Pracht, E. Caldeweyher, S. Ehlert, S. Grimme, ChemRxiv, 2019, preprint.
     DOI: 10.26434/chemrxiv.8326202.v1
   for GFN-FF:
   * S. Spicher and S. Grimme, Angew. Chem. Int. Ed., 2020, 59, 15665-15673.
     DOI: 10.1002/anie.202004239
   
   for ALPB and GBSA implicit solvation:
   * S. Ehlert, M. Stahn, S. Spicher, S. Grimme, J. Chem. Theory Comput.,
     2021, 17, 4250-4261. DOI: 10.1021/acs.jctc.1c00471
   
   for DFT-D4:
   * E. Caldeweyher, C. Bannwarth and S. Grimme, J. Chem. Phys., 2017,
     147, 034112. DOI: 10.1063/1.4993215
   * E. Caldeweyher, S. Ehlert, A. Hansen, H. Neugebauer, S. Spicher,
     C. Bannwarth and S. Grimme, J. Chem. Phys., 2019, 150, 154122.
     DOI: 10.1063/1.5090222
   * E. Caldeweyher, J.-M. Mewes, S. Ehlert and S. Grimme, Phys. Chem. Chem. Phys.
     2020, 22, 8499-8512. DOI: 10.1039/D0CP00502A
   
   for sTDA-xTB:
   * S. Grimme and C. Bannwarth, J. Chem. Phys., 2016, 145, 054103.
     DOI: 10.1063/1.4959605
   
   in the mass-spec context:
   * V. Asgeirsson, C. Bauer and S. Grimme, Chem. Sci., 2017, 8, 4879.
     DOI: 10.1039/c7sc00601b
   * J. Koopman and S. Grimme, ACS Omega 2019, 4, 12, 15120-15133.
     DOI: 10.1021/acsomega.9b02011
   
   for metadynamics refer to:
   * S. Grimme, J. Chem. Theory Comput., 2019, 155, 2847-2862
     DOI: 10.1021/acs.jctc.9b00143
   
   for SPH calculations refer to:
   * S. Spicher and S. Grimme, J. Chem. Theory Comput., 2021, 17, 1701-1714
     DOI: 10.1021/acs.jctc.0c01306
   
   with help from (in alphabetical order)
   P. Atkinson, C. Bannwarth, F. Bohle, G. Brandenburg, E. Caldeweyher
   M. Checinski, S. Dohm, S. Ehlert, S. Ehrlich, I. Gerasimov, C. Hölzer
   A. Katbashev, J. Koopman, C. Lavigne, S. Lehtola, F. März, M. Müller,
   F. Musil, H. Neugebauer, J. Pisarek, C. Plett, P. Pracht, F. Pultar,
   J. Seibert, P. Shushkov, S. Spicher, M. Stahn, M. Steiner, T. Strunk,
   J. Stückrath, T. Rose, and J. Unsleber
   
 * started run on 2024/04/06 at 11:16:24.316     

           -------------------------------------------------
          |                Calculation Setup                |
           -------------------------------------------------

          program call               : xtb xtbopt.xyz --opt crude --input .xc2 --gfn2
          hostname                   : n-62-30-23
          coordinate file            : xtbopt.xyz
          omp threads                :                     1

   ID    Z sym.   atoms
    1    7 N      1, 17
    2    6 C      2-6, 8, 9, 11-16, 18-23, 25, 26, 28-33
    3    8 O      7, 10, 24, 27
    4    1 H      34-72

molecular fragmentation (1/2 indicates fragments):
111111111111111111111111112211111111111111111111111111111221111111111111
# atoms in fragment 1/2:    68     4
 fragment masses (1/2) :      425.58       30.03
CMA distance (Bohr)    :   8.911
constraining FC (au)   :  0.0500
########################################################################
[WARNING] Please study the warnings concerning your input carefully
-1- readin_getIntValue: could not parse ''
########################################################################

           -------------------------------------------------
          |                 G F N 2 - x T B                 |
           -------------------------------------------------

        Reference                      10.1021/acs.jctc.8b01176
      * Hamiltonian:
        H0-scaling (s, p, d)           1.850000    2.230000    2.230000
        zeta-weighting                 0.500000
      * Dispersion:
        s8                             2.700000
        a1                             0.520000
        a2                             5.000000
        s9                             5.000000
      * Repulsion:
        kExp                           1.500000    1.000000
        rExp                           1.000000
      * Coulomb:
        alpha                          2.000000
        third order                    shell-resolved
        anisotropic                    true
        a3                             3.000000
        a5                             4.000000
        cn-shift                       1.200000
        cn-exp                         4.000000
        max-rad                        5.000000

q/qsh data taken from xtbrestart
CAMM data taken from xtbrestart

          ...................................................
          :                      SETUP                      :
          :.................................................:
          :  # basis functions                 171          :
          :  # atomic orbitals                 171          :
          :  # shells                          105          :
          :  # electrons                       180          :
          :  max. iterations                   250          :
          :  Hamiltonian                  GFN2-xTB          :
          :  restarted?                       true          :
          :  GBSA solvation                  false          :
          :  PC potential                    false          :
          :  electronic temp.         5000.0000000     K    :
          :  accuracy                    1.0000000          :
          :  -> integral cutoff          0.2500000E+02      :
          :  -> integral neglect         0.1000000E-07      :
          :  -> SCF convergence          0.1000000E-05 Eh   :
          :  -> wf. convergence          0.1000000E-03 e    :
          :  Broyden damping             0.4000000          :
          ...................................................

 iter      E             dE          RMSdq      gap      omega  full diag
   1   -100.7963309 -0.100796E+03  0.231E-05    1.78       0.0  T
   2   -100.7963309  0.597140E-10  0.329E-05    1.78     358.7  T
   3   -100.7963309 -0.105103E-09  0.561E-06    1.78    2099.6  T

   *** convergence criteria satisfied after 3 iterations ***

         #    Occupation            Energy/Eh            Energy/eV
      -------------------------------------------------------------
         1        2.0000           -0.8147633             -22.1708
       ...           ...                  ...                  ...
        84        1.9932           -0.5119193             -13.9300
        85        1.9884           -0.5035194             -13.7015
        86        1.9855           -0.4999424             -13.6041
        87        1.9769           -0.4925021             -13.4017
        88        1.9265           -0.4737860             -12.8924
        89        1.8961           -0.4680360             -12.7359
        90        1.8436           -0.4611209             -12.5477 (HOMO)
        91        0.3180           -0.3956860             -10.7672 (LUMO)
        92        0.0853           -0.3727878             -10.1441
        93        0.0125           -0.3418055              -9.3010
        94        0.0032           -0.3203565              -8.7173
        95        0.0029           -0.3183146              -8.6618
       ...           ...                  ...                  ...
       171                          1.2247689              33.3277
      -------------------------------------------------------------
                  HL-Gap            0.0654349 Eh            1.7806 eV
             Fermi-level           -0.4220583 Eh          -11.4848 eV

 SCC (total)                   0 d,  0 h,  0 min,  0.120 sec
 SCC setup                      ...        0 min,  0.001 sec (  1.088%)
 Dispersion                     ...        0 min,  0.002 sec (  1.826%)
 classical contributions        ...        0 min,  0.001 sec (  0.493%)
 integral evaluation            ...        0 min,  0.018 sec ( 15.295%)
 iterations                     ...        0 min,  0.027 sec ( 22.659%)
 molecular gradient             ...        0 min,  0.070 sec ( 58.100%)
 printout                       ...        0 min,  0.001 sec (  0.527%)

         :::::::::::::::::::::::::::::::::::::::::::::::::::::
         ::                     SUMMARY                     ::
         :::::::::::::::::::::::::::::::::::::::::::::::::::::
         :: total energy             -99.257095122966 Eh    ::
         :: gradient norm              0.781973870239 Eh/a0 ::
         :: HOMO-LUMO gap              1.780573779232 eV    ::
         ::.................................................::
         :: SCC energy              -100.796330852023 Eh    ::
         :: -> isotropic ES            0.116728670340 Eh    ::
         :: -> anisotropic ES         -0.001422650318 Eh    ::
         :: -> anisotropic XC          0.047416389407 Eh    ::
         :: -> dispersion             -0.075264535412 Eh    ::
         :: repulsion energy           1.537818198287 Eh    ::
         :: add. restraining           0.000000000000 Eh    ::
         :: total charge               1.000000000024 e     ::
         :::::::::::::::::::::::::::::::::::::::::::::::::::::

      ----------------------------------------------------------- 
     |                   =====================                   |
     |                        A N C O P T                        |
     |                   =====================                   |
     |               Approximate Normal Coordinate               |
     |                Rational Function Optimizer                |
      ----------------------------------------------------------- 

          ...................................................
          :                      SETUP                      :
          :.................................................:
          :   optimization level             crude          :
          :   max. optcycles                   200          :
          :   ANC micro-cycles                  20          :
          :   degrees of freedom               210          :
          :.................................................:
          :   RF solver                   davidson          :
          :   write xtbopt.log                true          :
          :   linear?                        false          :
          :   energy convergence         0.5000000E-03 Eh   :
          :   grad. convergence          0.1000000E-01 Eh/α :
          :   maxmium RF displ.          1.0000000          :
          :   Hlow (freq-cutoff)         0.1000000E-01      :
          :   Hmax (freq-cutoff)         5.0000000          :
          :   S6 in model hess.         20.0000000          :
          ...................................................

generating ANC from model Hessian ...
Using Lindh-Hessian (1995)
 Shifting diagonal of input Hessian by    1.0026381625390528E-002
 Lowest  eigenvalues of input Hessian
    0.010000    0.000000    0.000000    0.000000    0.000000    0.000000
    0.000000    0.010065    0.010086    0.010274    0.010333    0.010346
    0.010645    0.010662    0.010703    0.010802    0.010954    0.011116
 Highest eigenvalues
    2.042626    2.110449    2.175047    2.183413    2.340022    2.494255


........................................................................
.............................. CYCLE    1 ..............................
........................................................................

 iter      E             dE          RMSdq      gap      omega  full diag
   1   -100.7963309 -0.100796E+03  0.355E-06    1.78       0.0  T
   2   -100.7963309 -0.270006E-12  0.246E-06    1.78    4787.9  T
   3   -100.7963309 -0.284217E-13  0.176E-06    1.78    6689.5  T
     SCC iter.                  ...        0 min,  0.026 sec
     gradient                   ...        0 min,  0.075 sec
 * total energy  :   -99.2570951 Eh     change       -0.5684342E-13 Eh
   gradient norm :     0.7819739 Eh/α   predicted     0.0000000E+00 (-100.00%)
   displ. norm   :     0.3691254 α      lambda       -0.2624472E+00
   maximum displ.:     0.2411745 α      in ANC's #210, #201, #199, ...

........................................................................
.............................. CYCLE    2 ..............................
........................................................................

 iter      E             dE          RMSdq      gap      omega  full diag
   1   -100.7854095 -0.100785E+03  0.237E-01    1.79       0.0  T
   2   -100.7855967 -0.187218E-03  0.128E-01    1.78       1.0  T
   3   -100.7854427  0.154042E-03  0.801E-02    1.78       1.0  T
   4   -100.7856537 -0.211071E-03  0.187E-02    1.80       1.0  T
   5   -100.7856651 -0.114001E-04  0.130E-02    1.77       1.0  T
   6   -100.7856767 -0.115344E-04  0.500E-03    1.78       2.4  T
   7   -100.7856774 -0.765608E-06  0.173E-03    1.78       6.8  T
   8   -100.7856775 -0.108795E-06  0.521E-04    1.78      22.6  T
   9   -100.7856776 -0.772837E-08  0.214E-04    1.78      55.1  T
     SCC iter.                  ...        0 min,  0.073 sec
     gradient                   ...        0 min,  0.071 sec
 * total energy  :   -99.3637751 Eh     change       -0.1066800E+00 Eh
   gradient norm :     0.0400101 Eh/α   predicted    -0.1491106E+00 (  39.77%)
   displ. norm   :     0.1024318 α      lambda       -0.1995174E-02
   maximum displ.:     0.0329779 α      in ANC's #115, #114, #45, ...

........................................................................
.............................. CYCLE    3 ..............................
........................................................................

 iter      E             dE          RMSdq      gap      omega  full diag
   1   -100.7755851 -0.100776E+03  0.533E-02    1.78       0.0  T
   2   -100.7755901 -0.506858E-05  0.325E-02    1.78       1.0  T
   3   -100.7755734  0.167275E-04  0.156E-02    1.77       1.0  T
   4   -100.7755902 -0.167634E-04  0.533E-03    1.79       2.2  T
   5   -100.7755927 -0.255315E-05  0.190E-03    1.78       6.2  T
   6   -100.7755930 -0.284561E-06  0.566E-04    1.78      20.8  T
   7   -100.7755930 -0.266225E-08  0.280E-04    1.78      42.1  T
     SCC iter.                  ...        0 min,  0.057 sec
     gradient                   ...        0 min,  0.069 sec
 * total energy  :   -99.3651565 Eh     change       -0.1381338E-02 Eh
   gradient norm :     0.0253478 Eh/α   predicted    -0.1005456E-02 ( -27.21%)
   displ. norm   :     0.3438829 α      lambda       -0.2287267E-02
   maximum displ.:     0.2102820 α      in ANC's #15, #7, #14, ...

........................................................................
.............................. CYCLE    4 ..............................
........................................................................

 iter      E             dE          RMSdq      gap      omega  full diag
   1   -100.7464802 -0.100746E+03  0.265E-01    1.79       0.0  T
   2   -100.7463811  0.990422E-04  0.193E-01    1.75       1.0  T
   3   -100.7466121 -0.230959E-03  0.142E-01    1.85       1.0  T
   4   -100.7472250 -0.612911E-03  0.717E-02    1.70       1.0  T
   5   -100.7476831 -0.458093E-03  0.143E-02    1.80       1.0  T
   6   -100.7476963 -0.132289E-04  0.432E-03    1.78       2.7  T
   7   -100.7476962  0.130770E-06  0.224E-03    1.78       5.3  T
   8   -100.7476965 -0.273135E-06  0.526E-04    1.78      22.4  T
   9   -100.7476965 -0.878940E-08  0.227E-04    1.78      52.0  T
     SCC iter.                  ...        0 min,  0.073 sec
     gradient                   ...        0 min,  0.069 sec
 * total energy  :   -99.3581508 Eh     change        0.7005638E-02 Eh
   gradient norm :     0.0549368 Eh/α   predicted    -0.1275181E-02 (-118.20%)
   displ. norm   :     0.2517966 α      lambda       -0.2232658E-01
   maximum displ.:     0.1742630 α      in ANC's #15, #7, #16, ...

........................................................................
.............................. CYCLE    5 ..............................
........................................................................

 iter      E             dE          RMSdq      gap      omega  full diag
   1   -100.7652603 -0.100765E+03  0.209E-01    1.78       0.0  T
   2   -100.7653823 -0.121987E-03  0.130E-01    1.81       1.0  T
   3   -100.7647772  0.605067E-03  0.120E-01    1.71       1.0  T
   4   -100.7655893 -0.812094E-03  0.431E-02    1.83       1.0  T
   5   -100.7657432 -0.153919E-03  0.839E-03    1.77       1.4  T
   6   -100.7657473 -0.407540E-05  0.273E-03    1.78       4.3  T
   7   -100.7657473  0.369607E-07  0.140E-03    1.78       8.4  T
   8   -100.7657474 -0.972540E-07  0.321E-04    1.78      36.8  T
   9   -100.7657474 -0.252187E-08  0.160E-04    1.78      73.7  T
     SCC iter.                  ...        0 min,  0.073 sec
     gradient                   ...        0 min,  0.075 sec
 * total energy  :   -99.3655317 Eh     change       -0.7380820E-02 Eh
   gradient norm :     0.0115562 Eh/α   predicted    -0.7605954E-02 (   3.05%)
   displ. norm   :     0.0724621 α      lambda       -0.1703799E-02
   maximum displ.:     0.0331735 α      in ANC's #15, #7, #115, ...

........................................................................
.............................. CYCLE    6 ..............................
........................................................................

 iter      E             dE          RMSdq      gap      omega  full diag
   1   -100.7697891 -0.100770E+03  0.437E-02    1.78       0.0  T
   2   -100.7697907 -0.159969E-05  0.272E-02    1.78       1.0  T
   3   -100.7697540  0.367454E-04  0.208E-02    1.80       1.0  T
   4   -100.7697922 -0.381984E-04  0.499E-03    1.78       2.4  T
   5   -100.7697944 -0.221207E-05  0.129E-03    1.78       9.1  T
   6   -100.7697945 -0.769257E-07  0.596E-04    1.78      19.8  T
   7   -100.7697945 -0.391125E-09  0.238E-04    1.78      49.6  T
     SCC iter.                  ...        0 min,  0.057 sec
     gradient                   ...        0 min,  0.069 sec
 * total energy  :   -99.3658084 Eh     change       -0.2767320E-03 Eh
   gradient norm :     0.0036053 Eh/α   predicted    -0.2833734E-03 (   2.40%)
   displ. norm   :     0.0432335 α      lambda       -0.1253155E-03
   maximum displ.:     0.0245063 α      in ANC's #1, #13, #5, ...

   *** GEOMETRY OPTIMIZATION CONVERGED AFTER 6 ITERATIONS ***

------------------------------------------------------------------------
 total energy gain   :        -0.1087133 Eh      -68.2186 kcal/mol
 total RMSD          :         0.0600173 a0        0.0318 Å
 total power (kW/mol):       -47.5711099 (step) -287.6222 (real)
------------------------------------------------------------------------

 ANCopt (total)                0 d,  0 h,  0 min,  0.992 sec
 optimizer setup                ...        0 min,  0.000 sec (  0.033%)
 model hessian                  ...        0 min,  0.055 sec (  5.574%)
 ANC generation                 ...        0 min,  0.006 sec (  0.638%)
 coordinate transformation      ...        0 min,  0.000 sec (  0.040%)
 single point calculation       ...        0 min,  0.919 sec ( 92.621%)
 optimization log               ...        0 min,  0.003 sec (  0.352%)
 hessian update                 ...        0 min,  0.000 sec (  0.038%)
 rational function              ...        0 min,  0.003 sec (  0.318%)

================
 final structure:
================
72
 xtb: 6.6.1 (8d0f1dd)
N           -1.76853202855702        2.75763937658111        2.27760356445760
C           -1.74243773505546        2.04851562231336        1.25019542011793
C           -2.91268569822133        1.83627963894165        0.32910414195884
C           -3.36780823715142        0.38647287897108        0.40961562016945
C           -4.28376085303353       -0.10476096200396       -0.52273666571985
C           -4.74525187717153       -1.40941355249135       -0.46623512593289
O           -5.62744875462140       -1.96182032007814       -1.32279530065039
C           -6.19462581704915       -1.16958873830721       -2.33940918630352
C           -4.27736998866189       -2.27365497592543        0.56178588509798
O           -4.78095503882170       -3.52187168460755        0.54102612167397
C           -4.42920070434352       -4.42262289679218        1.56579541955792
C           -3.36827714590050       -1.77870217178125        1.48400112407841
C           -2.92107076972476       -0.46633824110349        1.40791088835780
C           -2.39846285773778        2.15003007097337       -1.09990077738435
C           -1.44059659363570        1.09094935486275       -1.67299812302452
C           -0.06815646535810        1.18405741274639       -1.12809679494722
N            0.69105352544907        0.17198023194260       -0.76309815220295
C            2.09169513110118        0.36953947847974       -0.47110920098739
C            2.96804524816252       -0.01767854216248       -1.67823388900753
C            4.41778890935561       -0.02832176223818       -1.28443605393895
C            5.09842599053017        1.15792723291671       -1.04073088940767
C            6.42517503691302        1.16176143148276       -0.65103334667325
C            7.10892917405390       -0.04483597284122       -0.49690783851903
O            8.39714840781388       -0.16741817186537       -0.12134523177832
C            9.16533088134637        0.99202153907581        0.11224383500548
C            6.42701642509806       -1.24320603290175       -0.74348952563897
O            2.86985150193022       -2.05575839282693        1.36770567438338
C            3.94118192893338       -2.30810044530752        1.86324937836024
C            5.10430222851323       -1.22947937745293       -1.12762111646960
C            0.19684314745853       -1.18209882164346       -0.68346423439501
C           -4.13186807014952        2.74653726906212        0.66475237993495
C           -4.72686023372425        2.40342534336786        2.02832312429728
C           -3.80402435713348        4.23594072123885        0.60587926699721
H           -4.65345739905659        0.54744227965789       -1.29627251497572
H           -6.74624169737561       -0.31990722815881       -1.92599501571681
H           -6.88555790253592       -1.82379371425164       -2.86743208493443
H           -5.43427801586796       -0.80847797865821       -3.03963511364291
H           -4.72162981011438       -4.04322356610768        2.54928849679515
H           -4.98062036217466       -5.33626790658905        1.35268419014557
H           -3.35605902491698       -4.63737221841458        1.56060087622369
H           -3.00595603874890       -2.40654480184839        2.28150459680384
H           -2.23565630878010       -0.10997127599348        2.16113105205737
H           -3.25517095132143        2.23454705536992       -1.76717161188422
H           -1.89521490009731        3.11746187750757       -1.08962575515691
H           -1.86378534371395        0.09640774711150       -1.54042751609808
H           -1.36604201665804        1.27907384648184       -2.75189574273164
H           -0.83443417692461        1.53302378935118        0.88644740742263
H            0.39998666898126        2.15867482906935       -1.14487474082329
H            2.36525180142813       -0.26036046356869        0.37851208652332
H            2.26847675037258        1.41473930929830       -0.21122276004272
H            2.79824760011957        0.69346301996358       -2.49014501695837
H            2.68142277101114       -1.01135755957171       -2.02321061808410
H            4.58992880276871        2.10290007360301       -1.16686717744839
H            6.91779341802248        2.10438466715556       -0.47490447322590
H            8.76249000243888        1.57787901199780        0.94397630032225
H            9.22581304329494        1.61850024068177       -0.78229797459364
H           10.16086118241725        0.63672381125494        0.37122571020898
H            4.69378288370674       -1.53085617416791        2.05902511426336
H            4.23120811511300       -3.32670895306034        2.15060474973128
H            6.96360420806396       -2.16812401758480       -0.63514893036584
H            4.59829332670096       -2.16443966669941       -1.31804180999259
H            0.03179958951117       -1.60201947207380       -1.67763869976097
H           -0.74553926137361       -1.21066137111730       -0.13235436037105
H            0.92614478492151       -1.79375295219978       -0.15665149310810
H           -4.89261862303798        2.53665616133568       -0.09599924013259
H           -4.00446019295920        2.60851266217943        2.81185474849950
H           -5.01669004736912        1.35676112821680        2.07939893622791
H           -5.61000679582141        3.01192159589578        2.20373249217026
H           -3.02471977795836        4.47924473436772        1.32150533550501
H           -3.48989954832097        4.54494213901696       -0.38757881170548
H           -4.69193933934278        4.80631755683839        0.86535786210487
H           -0.91200612757563        2.85099476621565        2.81425595825861

 Bond Distances (Angstroems)
 ---------------------------
N1-C2=1.2486         N1-H72=1.0151        C2-N1=1.2486         C2-C3=1.5043         C2-H47=1.1057        C3-C2=1.5043         
C3-C4=1.5217         C3-C14=1.5508        C3-C31=1.5581        C4-C3=1.5217         C4-C5=1.3963         C4-C13=1.3869        
C5-C4=1.3963         C5-C6=1.3850         C5-H34=1.0772        C6-C5=1.3850         C6-O7=1.3480         C6-C9=1.4222         
O7-C6=1.3480         O7-C8=1.4081         C8-O7=1.4081         C8-H35=1.0941        C8-H36=1.0882        C8-H37=1.0949        
C9-C6=1.4222         C9-O10=1.3461        C9-C12=1.3863        O10-C9=1.3461        O10-C11=1.4090       C11-O10=1.4090       
C11-H38=1.0939       C11-H39=1.0882       C11-H40=1.0944       C12-C9=1.3863        C12-C13=1.3886       C12-H41=1.0777       
C13-C4=1.3869        C13-C12=1.3886       C13-H42=1.0789       C14-C3=1.5508        C14-C15=1.5387       C14-H43=1.0892       
C14-H44=1.0905       C15-C14=1.5387       C15-C16=1.4796       C15-H45=1.0889       C15-H46=1.0977       C16-C15=1.4796       
C16-N17=1.3168       C16-H48=1.0814       N17-C16=1.3168       N17-C18=1.4443       N17-C30=1.4436       C18-N17=1.4443       
C18-C19=1.5411       C18-H49=1.0925       C18-H50=1.0914       C19-C18=1.5411       C19-C20=1.5023       C19-H51=1.0926       
C19-H52=1.0902       C20-C19=1.5023       C20-C21=1.3892       C20-C29=1.3924       C21-C20=1.3892       C21-C22=1.3828       
C21-H53=1.0805       C22-C21=1.3828       C22-C23=1.3954       C22-H54=1.0781       C23-C22=1.3954       C23-O24=1.3474       
C23-C26=1.4007       O24-C23=1.3474       O24-C25=1.4103       C25-O24=1.4103       C25-H55=1.0942       C25-H56=1.0938       
C25-H57=1.0883       C26-C23=1.4007       C26-C29=1.3774       C26-H60=1.0748       O27-C28=1.2071       C28-O27=1.2071       
C28-H58=1.0995       C28-H59=1.0974       C29-C20=1.3924       C29-C26=1.3774       C29-H61=1.0800       C30-N17=1.4436       
C30-H62=1.0918       C30-H63=1.0921       C30-H64=1.0879       C31-C3=1.5581        C31-C32=1.5268       C31-C33=1.5262       
C31-H65=1.0961       C32-C31=1.5268       C32-H66=1.0853       C32-H67=1.0873       C32-H68=1.0867       C33-C31=1.5262       
C33-H69=1.0856       C33-H70=1.0868       C33-H71=1.0868       H34-C5=1.0772        H35-C8=1.0941        H36-C8=1.0882        
H37-C8=1.0949        H38-C11=1.0939       H39-C11=1.0882       H40-C11=1.0944       H41-C12=1.0777       H42-C13=1.0789       
H43-C14=1.0892       H44-C14=1.0905       H45-C15=1.0889       H46-C15=1.0977       H47-C2=1.1057        H48-C16=1.0814       
H49-C18=1.0925       H50-C18=1.0914       H51-C19=1.0926       H52-C19=1.0902       H53-C21=1.0805       H54-C22=1.0781       
H55-C25=1.0942       H56-C25=1.0938       H57-C25=1.0883       H58-C28=1.0995       H59-C28=1.0974       H60-C26=1.0748       
H61-C29=1.0800       H62-C30=1.0918       H63-C30=1.0921       H64-C30=1.0879       H65-C31=1.0961       H66-C32=1.0853       
H67-C32=1.0873       H68-C32=1.0867       H69-C33=1.0856       H70-C33=1.0868       H71-C33=1.0868       H72-N1=1.0151        
 C  H  Rav=1.0890 sigma=0.0068  Rmin=1.0748  Rmax=1.1057    38
 C  C  Rav=1.4524 sigma=0.0685  Rmin=1.3774  Rmax=1.5581    22
 N  H  Rav=1.0151 sigma=0.0000  Rmin=1.0151  Rmax=1.0151     1
 N  C  Rav=1.3634 sigma=0.0842  Rmin=1.2486  Rmax=1.4443     4
 O  C  Rav=1.3537 sigma=0.0664  Rmin=1.2071  Rmax=1.4103     7

 selected bond angles (degree)
 --------------------
H72-N1-C2=118.01               C3-C2-N1=124.59                H47-C2-N1=123.55               H47-C2-C3=111.82               
C4-C3-C2=109.55                C14-C3-C2=106.12               C14-C3-C4=109.92               C31-C3-C2=113.23               
C31-C3-C4=108.13               C31-C3-C14=109.86              C5-C4-C3=119.74                C13-C4-C3=121.84               
C13-C4-C5=118.40               C6-C5-C4=121.52                H34-C5-C4=119.45               H34-C5-C6=119.03               
O7-C6-C5=125.32                C9-C6-C5=119.49                C9-C6-O7=115.19                C8-O7-C6=119.46                
H35-C8-O7=111.54               H36-C8-O7=105.53               H36-C8-H35=109.27              H37-C8-O7=111.56               
H37-C8-H35=109.61              H37-C8-H36=109.20              O10-C9-C6=115.42               C12-C9-C6=118.66               
C12-C9-O10=125.92              C11-O10-C9=119.22              

 selected dihedral angles (degree)
 ---------------------------------
C3-C2-N1-H72=181.61           H47-C2-N1-H72=358.92          C4-C3-C2-N1=247.15            C4-C3-C2-H47= 69.56           
C14-C3-C2-N1=128.52           C14-C3-C2-H47=310.94          C31-C3-C2-N1=  7.93           C31-C3-C2-H47=190.34          
C5-C4-C3-C2=191.14            C5-C4-C3-C14=307.38           C5-C4-C3-C31= 67.31           C13-C4-C3-C2= 12.62           
C13-C4-C3-C14=128.86          C13-C4-C3-C31=248.79          C6-C5-C4-C3=181.44            C6-C5-C4-C13=  0.00           
H34-C5-C4-C3=  0.50           H34-C5-C4-C13=179.07          O7-C6-C5-C4=179.94            O7-C6-C5-H34=  0.87           
C9-C6-C5-C4=359.91            C9-C6-C5-H34=180.84           C8-O7-C6-C5=357.14            C8-O7-C6-C9=177.17            
H35-C8-O7-C6=300.33           H36-C8-O7-C6=181.77           H37-C8-O7-C6= 63.29           O10-C9-C6-C5=179.87           
O10-C9-C6-O7=359.84           C12-C9-C6-C5=  0.10           C12-C9-C6-O7=180.07           C11-O10-C9-C6=183.48          
C11-O10-C9-C12=  3.23         

 CMA Distance (Angstroems)
 ---------------------------
R(CMA):  4.7129
           -------------------------------------------------
          |                Final Singlepoint                |
           -------------------------------------------------

          ...................................................
          :                      SETUP                      :
          :.................................................:
          :  # basis functions                 171          :
          :  # atomic orbitals                 171          :
          :  # shells                          105          :
          :  # electrons                       180          :
          :  max. iterations                   250          :
          :  Hamiltonian                  GFN2-xTB          :
          :  restarted?                      false          :
          :  GBSA solvation                  false          :
          :  PC potential                    false          :
          :  electronic temp.         5000.0000000     K    :
          :  accuracy                    1.0000000          :
          :  -> integral cutoff          0.2500000E+02      :
          :  -> integral neglect         0.1000000E-07      :
          :  -> SCF convergence          0.1000000E-05 Eh   :
          :  -> wf. convergence          0.1000000E-03 e    :
          :  Broyden damping             0.4000000          :
          ...................................................

 iter      E             dE          RMSdq      gap      omega  full diag
   1   -100.7697945 -0.100770E+03  0.613E-05    1.78       0.0  T
   2   -100.7697945 -0.687237E-10  0.427E-05    1.78     276.0  T
   3   -100.7697945 -0.757581E-10  0.253E-05    1.78     465.4  T

   *** convergence criteria satisfied after 3 iterations ***

         #    Occupation            Energy/Eh            Energy/eV
      -------------------------------------------------------------
         1        2.0000           -0.8147089             -22.1694
       ...           ...                  ...                  ...
        84        1.9929           -0.5112949             -13.9130
        85        1.9884           -0.5034433             -13.6994
        86        1.9851           -0.4994803             -13.5916
        87        1.9769           -0.4924628             -13.4006
        88        1.9268           -0.4737832             -12.8923
        89        1.8959           -0.4679466             -12.7335
        90        1.8440           -0.4610986             -12.5471 (HOMO)
        91        0.3183           -0.3956385             -10.7659 (LUMO)
        92        0.0857           -0.3728205             -10.1450
        93        0.0125           -0.3417915              -9.3006
        94        0.0029           -0.3182878              -8.6611
        95        0.0027           -0.3175799              -8.6418
       ...           ...                  ...                  ...
       171                          0.5702823              15.5182
      -------------------------------------------------------------
                  HL-Gap            0.0654602 Eh            1.7813 eV
             Fermi-level           -0.4219960 Eh          -11.4831 eV

 SCC (total)                   0 d,  0 h,  0 min,  0.117 sec
 SCC setup                      ...        0 min,  0.001 sec (  0.752%)
 Dispersion                     ...        0 min,  0.002 sec (  1.330%)
 classical contributions        ...        0 min,  0.000 sec (  0.371%)
 integral evaluation            ...        0 min,  0.018 sec ( 15.333%)
 iterations                     ...        0 min,  0.026 sec ( 22.489%)
 molecular gradient             ...        0 min,  0.069 sec ( 59.149%)
 printout                       ...        0 min,  0.001 sec (  0.562%)

         :::::::::::::::::::::::::::::::::::::::::::::::::::::
         ::                     SUMMARY                     ::
         :::::::::::::::::::::::::::::::::::::::::::::::::::::
         :: total energy             -99.365808398326 Eh    ::
         :: gradient norm              0.003603306845 Eh/a0 ::
         :: HOMO-LUMO gap              1.781261920123 eV    ::
         ::.................................................::
         :: SCC energy              -100.769794455786 Eh    ::
         :: -> isotropic ES            0.116540802029 Eh    ::
         :: -> anisotropic ES         -0.000967881890 Eh    ::
         :: -> anisotropic XC          0.048879189150 Eh    ::
         :: -> dispersion             -0.075217637462 Eh    ::
         :: repulsion energy           1.402565225550 Eh    ::
         :: add. restraining           0.000000000000 Eh    ::
         :: total charge               1.000000000025 e     ::
         :::::::::::::::::::::::::::::::::::::::::::::::::::::

           -------------------------------------------------
          |                Property Printout                |
           -------------------------------------------------

    * Orbital Energies and Occupations

         #    Occupation            Energy/Eh            Energy/eV
      -------------------------------------------------------------
         1        2.0000           -0.8147089             -22.1694
       ...           ...                  ...                  ...
        78        1.9979           -0.5307331             -14.4420
        79        1.9978           -0.5300407             -14.4231
        80        1.9968           -0.5239651             -14.2578
        81        1.9951           -0.5171689             -14.0729
        82        1.9943           -0.5146540             -14.0044
        83        1.9932           -0.5118854             -13.9291
        84        1.9929           -0.5112949             -13.9130
        85        1.9884           -0.5034433             -13.6994
        86        1.9851           -0.4994803             -13.5916
        87        1.9769           -0.4924628             -13.4006
        88        1.9268           -0.4737832             -12.8923
        89        1.8959           -0.4679466             -12.7335
        90        1.8440           -0.4610986             -12.5471 (HOMO)
        91        0.3183           -0.3956385             -10.7659 (LUMO)
        92        0.0857           -0.3728205             -10.1450
        93        0.0125           -0.3417915              -9.3006
        94        0.0029           -0.3182878              -8.6611
        95        0.0027           -0.3175799              -8.6418
        96        0.0024           -0.3154266              -8.5832
        97        0.0016           -0.3092046              -8.4139
        98        0.0000           -0.1927202              -5.2442
        99        0.0000           -0.1871361              -5.0922
       100                         -0.1323695              -3.6020
       101                         -0.0703327              -1.9139
       ...                                ...                  ...
       171                          0.5702823              15.5182
      -------------------------------------------------------------
                  HL-Gap            0.0654602 Eh            1.7813 eV
             Fermi-level           -0.4219960 Eh          -11.4831 eV

     #   Z          covCN         q      C6AA      α(0)
     1   7 N        1.774    -0.266    27.729     7.798
     2   6 C        2.826     0.102    25.742     8.314
     3   6 C        3.907     0.007    20.410     6.422
     4   6 C        2.974     0.003    27.964     8.674
     5   6 C        2.920    -0.080    29.995     8.981
     6   6 C        2.862     0.131    25.137     8.218
     7   8 O        1.706    -0.227    17.758     5.690
     8   6 C        3.644     0.027    20.461     6.502
     9   6 C        2.864     0.131    25.137     8.218
    10   8 O        1.706    -0.224    17.719     5.683
    11   6 C        3.645     0.025    20.483     6.505
    12   6 C        2.913    -0.072    29.801     8.952
    13   6 C        2.921    -0.051    29.276     8.873
    14   6 C        3.812    -0.065    21.744     6.637
    15   6 C        3.802    -0.070    21.841     6.654
    16   6 C        2.845     0.014    27.685     8.623
    17   7 N        2.729     0.033    20.674     6.753
    18   6 C        3.758    -0.032    21.191     6.563
    19   6 C        3.807    -0.069    21.817     6.649
    20   6 C        2.969     0.004    27.939     8.670
    21   6 C        2.924    -0.037    28.924     8.820
    22   6 C        2.915    -0.063    29.558     8.915
    23   6 C        2.865     0.152    24.694     8.146
    24   8 O        1.706    -0.240    17.971     5.724
    25   6 C        3.644     0.027    20.452     6.501
    26   6 C        2.919    -0.052    29.291     8.875
    27   8 O        0.856    -0.328    20.298     6.040
    28   6 C        2.702     0.173    24.258     8.061
    29   6 C        2.923    -0.035    28.881     8.813
    30   6 C        3.701    -0.080    22.201     6.738
    31   6 C        3.853    -0.007    20.671     6.467
    32   6 C        3.756    -0.119    22.835     6.814
    33   6 C        3.755    -0.119    22.835     6.814
    34   1 H        0.926     0.053     2.288     2.365
    35   1 H        0.924     0.055     2.261     2.351
    36   1 H        0.925     0.082     1.954     2.186
    37   1 H        0.924     0.048     2.343     2.394
    38   1 H        0.924     0.057     2.238     2.340
    39   1 H        0.925     0.083     1.953     2.185
    40   1 H        0.924     0.052     2.296     2.370
    41   1 H        0.926     0.056     2.246     2.344
    42   1 H        0.926     0.042     2.417     2.431
    43   1 H        0.925     0.061     2.188     2.313
    44   1 H        0.924     0.055     2.263     2.353
    45   1 H        0.925     0.069     2.099     2.265
    46   1 H        0.924     0.083     1.945     2.181
    47   1 H        0.922     0.007     2.933     2.678
    48   1 H        0.925     0.073     2.051     2.240
    49   1 H        0.924     0.104     1.746     2.066
    50   1 H        0.924     0.064     2.151     2.294
    51   1 H        0.924     0.052     2.290     2.367
    52   1 H        0.924     0.058     2.226     2.333
    53   1 H        0.926     0.041     2.432     2.439
    54   1 H        0.926     0.052     2.294     2.368
    55   1 H        0.924     0.052     2.294     2.368
    56   1 H        0.924     0.055     2.262     2.352
    57   1 H        0.925     0.079     1.988     2.205
    58   1 H        0.923     0.041     2.440     2.443
    59   1 H        0.924     0.052     2.292     2.368
    60   1 H        0.926     0.064     2.148     2.292
    61   1 H        0.926     0.046     2.373     2.409
    62   1 H        0.924     0.078     2.004     2.214
    63   1 H        0.924     0.079     1.987     2.204
    64   1 H        0.925     0.108     1.714     2.048
    65   1 H        0.924     0.038     2.474     2.460
    66   1 H        0.925     0.070     2.088     2.260
    67   1 H        0.925     0.036     2.499     2.472
    68   1 H        0.925     0.052     2.291     2.367
    69   1 H        0.925     0.062     2.180     2.309
    70   1 H        0.925     0.035     2.516     2.481
    71   1 H        0.925     0.056     2.251     2.346
    72   1 H        0.860     0.159     1.343     1.815

 Mol. C6AA /au·bohr⁶  :      47767.349916
 Mol. C8AA /au·bohr⁸  :    1090140.386047
 Mol. α(0) /au        :        336.379445


Wiberg/Mayer (AO) data.
largest (>0.10) Wiberg bond orders for each atom

 ---------------------------------------------------------------------------
     #   Z sym  total        # sym  WBO       # sym  WBO       # sym  WBO
 ---------------------------------------------------------------------------
     1   7 N    3.037 --     2 C    1.958    72 H    0.941
     2   6 C    3.933 --     1 N    1.958     3 C    0.994    47 H    0.905
     3   6 C    3.974 --     2 C    0.994     4 C    0.969    14 C    0.958
                            31 C    0.942
     4   6 C    3.943 --    13 C    1.410     5 C    1.369     3 C    0.969
     5   6 C    3.959 --     6 C    1.399     4 C    1.369    34 H    0.957
     6   6 C    3.899 --     5 C    1.399     9 C    1.217     7 O    1.103
     7   8 O    2.254 --     6 C    1.103     8 C    0.978
     8   6 C    3.931 --     7 O    0.978    36 H    0.976    37 H    0.973
                            35 H    0.973
     9   6 C    3.895 --    12 C    1.388     6 C    1.217    10 O    1.107
    10   8 O    2.253 --     9 C    1.107    11 C    0.976
    11   6 C    3.928 --    39 H    0.977    10 O    0.976    40 H    0.973
                            38 H    0.973
    12   6 C    3.959 --    13 C    1.408     9 C    1.388    41 H    0.963
    13   6 C    3.949 --     4 C    1.410    12 C    1.408    42 H    0.962
    14   6 C    3.975 --    15 C    0.983    44 H    0.972    43 H    0.968
                             3 C    0.958
    15   6 C    3.986 --    16 C    1.059    14 C    0.983    45 H    0.960
                            46 H    0.925
    16   6 C    3.656 --    17 N    1.459    15 C    1.059    48 H    0.956
    17   7 N    3.530 --    16 C    1.459    30 C    0.996    18 C    0.984
    18   6 C    3.943 --    17 N    0.984    50 H    0.968    19 C    0.965
                            49 H    0.945
    19   6 C    3.976 --    20 C    1.008    52 H    0.973    51 H    0.968
                            18 C    0.965
    20   6 C    3.941 --    21 C    1.401    29 C    1.381    19 C    1.008
    21   6 C    3.972 --    22 C    1.452    20 C    1.401    53 H    0.968
    22   6 C    3.955 --    21 C    1.452    23 C    1.344    54 H    0.964
    23   6 C    3.906 --    22 C    1.344    26 C    1.320    24 O    1.102
    24   8 O    2.245 --    23 C    1.102    25 C    0.976
    25   6 C    3.930 --    57 H    0.977    24 O    0.976    56 H    0.973
                            55 H    0.973
    26   6 C    3.950 --    29 C    1.478    23 C    1.320    60 H    0.966
    27   8 O    2.020 --    28 C    1.907
    28   6 C    3.804 --    27 O    1.907    58 H    0.946    59 H    0.946
    29   6 C    3.973 --    26 C    1.478    20 C    1.381    61 H    0.966
    30   6 C    3.949 --    17 N    0.996    64 H    0.970    62 H    0.964
                            63 H    0.963
    31   6 C    3.971 --    33 C    1.009    32 C    1.008    65 H    0.959
                             3 C    0.942
    32   6 C    3.976 --    31 C    1.008    67 H    0.981    68 H    0.981
                            66 H    0.973
    33   6 C    3.981 --    31 C    1.009    70 H    0.982    71 H    0.980
                            69 H    0.976
    34   1 H    0.996 --     5 C    0.957
    35   1 H    0.992 --     8 C    0.973
    36   1 H    0.992 --     8 C    0.976
    37   1 H    0.993 --     8 C    0.973
    38   1 H    0.992 --    11 C    0.973
    39   1 H    0.992 --    11 C    0.977
    40   1 H    0.992 --    11 C    0.973
    41   1 H    0.995 --    12 C    0.963
    42   1 H    0.997 --    13 C    0.962
    43   1 H    0.995 --    14 C    0.968
    44   1 H    0.996 --    14 C    0.972
    45   1 H    0.994 --    15 C    0.960
    46   1 H    0.973 --    15 C    0.925
    47   1 H    0.985 --     2 C    0.905
    48   1 H    0.994 --    16 C    0.956
    49   1 H    0.985 --    18 C    0.945
    50   1 H    0.995 --    18 C    0.968
    51   1 H    0.994 --    19 C    0.968
    52   1 H    0.996 --    19 C    0.973
    53   1 H    0.997 --    21 C    0.968
    54   1 H    0.996 --    22 C    0.964
    55   1 H    0.992 --    25 C    0.973
    56   1 H    0.992 --    25 C    0.973
    57   1 H    0.993 --    25 C    0.977
    58   1 H    0.995 --    28 C    0.946
    59   1 H    0.993 --    28 C    0.946
    60   1 H    0.994 --    26 C    0.966
    61   1 H    0.996 --    29 C    0.966
    62   1 H    0.985 --    30 C    0.964
    63   1 H    0.988 --    30 C    0.963
    64   1 H    0.988 --    30 C    0.970
    65   1 H    0.991 --    31 C    0.959
    66   1 H    0.990 --    32 C    0.973
    67   1 H    0.996 --    32 C    0.981
    68   1 H    0.994 --    32 C    0.981
    69   1 H    0.992 --    33 C    0.976
    70   1 H    0.997 --    33 C    0.982
    71   1 H    0.993 --    33 C    0.980
    72   1 H    0.969 --     1 N    0.941
 ---------------------------------------------------------------------------

Topologies differ in total number of bonds
Writing topology from bond orders to xtbtopo.mol

molecular dipole:
                 x           y           z       tot (Debye)
 q only:        0.544       0.447      -0.759
   full:        1.138       0.476      -0.795       3.731
molecular quadrupole (traceless):
                xx          xy          yy          xz          yz          zz
 q only:       57.570       9.443     -23.030       8.969      -9.028     -34.539
  q+dip:       56.880      13.113     -22.241      15.435     -13.383     -34.639
   full:       56.436      12.910     -24.651      12.510     -13.700     -31.785

           -------------------------------------------------
          |                Geometry Summary                 |
           -------------------------------------------------

      molecular mass/u    :      455.6105846
   center of mass at/Å    :       -0.0787731      -0.0446725      -0.0198754
  moments of inertia/u·Å² :        0.2455837E+04   0.1021971E+05   0.1130835E+05
rotational constants/cm⁻¹ :        0.6864312E-02   0.1649522E-02   0.1490724E-02

 * 65 selected distances

     #   Z          #   Z                                           value/Å
     1   7 N        2   6 C                                       1.2486413
     4   6 C        5   6 C                                       1.3962668
     5   6 C        6   6 C                                       1.3850217
     6   6 C        7   8 O                                       1.3480060
     7   8 O        8   6 C                                       1.4081281
     6   6 C        9   6 C                                       1.4222005
     9   6 C       10   8 O                                       1.3461330
    10   8 O       11   6 C                                       1.4089842
     9   6 C       12   6 C                                       1.3863295
     4   6 C       13   6 C                                       1.3868868
    12   6 C       13   6 C                                       1.3885542
    14   6 C       15   6 C                                       1.5387010
    15   6 C       16   6 C                                       1.4795874
    16   6 C       17   7 N                                       1.3167856
    17   7 N       18   6 C                                       1.4443284
    18   6 C       19   6 C                                       1.5411287 (max)
    20   6 C       21   6 C                                       1.3891890
    21   6 C       22   6 C                                       1.3828023
    22   6 C       23   6 C                                       1.3954039
    23   6 C       24   8 O                                       1.3474356
    24   8 O       25   6 C                                       1.4103081
    23   6 C       26   6 C                                       1.4006779
    27   8 O       28   6 C                                       1.2070581
    20   6 C       29   6 C                                       1.3923618
    26   6 C       29   6 C                                       1.3774319
    17   7 N       30   6 C                                       1.4436467
    31   6 C       32   6 C                                       1.5267832
    31   6 C       33   6 C                                       1.5261948
     5   6 C       34   1 H                                       1.0772198
     8   6 C       35   1 H                                       1.0941436
     8   6 C       36   1 H                                       1.0882002
     8   6 C       37   1 H                                       1.0949184
    11   6 C       38   1 H                                       1.0939458
    11   6 C       39   1 H                                       1.0882222
    11   6 C       40   1 H                                       1.0944302
    12   6 C       41   1 H                                       1.0777175
    13   6 C       42   1 H                                       1.0789491
    14   6 C       43   1 H                                       1.0891935
    14   6 C       44   1 H                                       1.0905451
    15   6 C       45   1 H                                       1.0889338
    15   6 C       46   1 H                                       1.0977110
    16   6 C       48   1 H                                       1.0813505
    18   6 C       49   1 H                                       1.0924577
    18   6 C       50   1 H                                       1.0914374
    19   6 C       51   1 H                                       1.0925903
    19   6 C       52   1 H                                       1.0902108
    21   6 C       53   1 H                                       1.0804877
    22   6 C       54   1 H                                       1.0780691
    25   6 C       55   1 H                                       1.0942070
    25   6 C       56   1 H                                       1.0937728
    25   6 C       57   1 H                                       1.0882963
    28   6 C       58   1 H                                       1.0994750
    28   6 C       59   1 H                                       1.0973841
    26   6 C       60   1 H                                       1.0747733 (min)
    29   6 C       61   1 H                                       1.0800259
    30   6 C       62   1 H                                       1.0917673
    30   6 C       63   1 H                                       1.0920727
    30   6 C       64   1 H                                       1.0879033
    31   6 C       65   1 H                                       1.0961454
    32   6 C       66   1 H                                       1.0852855
    32   6 C       67   1 H                                       1.0872517
    32   6 C       68   1 H                                       1.0867310
    33   6 C       69   1 H                                       1.0856488
    33   6 C       70   1 H                                       1.0867914
    33   6 C       71   1 H                                       1.0867622

 * 4 distinct bonds (by element types)

   Z      Z             #   av. dist./Å        max./Å        min./Å
   1 H    6 C          37     1.0885143     1.0994750     1.0747733
   6 C    6 C          17     1.4303248     1.5411287     1.3774319
   6 C    7 N           4     1.3633505     1.4443284     1.2486413
   6 C    8 O           7     1.3537219     1.4103081     1.2070581


optimized geometry written to: xtbopt.xyz


           -------------------------------------------------
          | TOTAL ENERGY              -99.365808398326 Eh   |
          | GRADIENT NORM               0.003603306845 Eh/α |
          | HOMO-LUMO GAP               1.781261920123 eV   |
           -------------------------------------------------

------------------------------------------------------------------------
 * finished run on 2024/04/06 at 11:16:25.601     
------------------------------------------------------------------------
 total:
 * wall-time:     0 d,  0 h,  0 min,  1.284 sec
 *  cpu-time:     0 d,  0 h,  0 min,  1.254 sec
 * ratio c/w:     0.976 speedup
 SCF:
 * wall-time:     0 d,  0 h,  0 min,  0.120 sec
 *  cpu-time:     0 d,  0 h,  0 min,  0.120 sec
 * ratio c/w:     0.999 speedup
 ANC optimizer:
 * wall-time:     0 d,  0 h,  0 min,  1.116 sec
 *  cpu-time:     0 d,  0 h,  0 min,  1.109 sec
 * ratio c/w:     0.994 speedup

