72
 energy: 0.000000000000 xtb: 6.6.1 (8d0f1dd)
N           -1.47310921155849        2.74401293103706        2.22063921685122
C           -1.55658879776851        2.16490285539332        1.13274273951491
C           -2.74549199786261        2.05621232186130        0.23826248438941
C           -3.31377553111525        0.64333411542669        0.32332512650568
C           -4.30230156009016        0.24487110156316       -0.58026161703006
C           -4.85238763031941       -1.02286490450319       -0.53363588718165
O           -5.81419972815119       -1.48606034185536       -1.36157882725342
C           -6.39655633239252       -0.60827000183299       -2.29568474302620
C           -4.39972501531283       -1.94646102182611        0.44396929121966
O           -4.98748311285188       -3.16145997157803        0.41085992006324
C           -4.66362127904578       -4.10093827755394        1.40909127743729
C           -3.42072513477031       -1.54561384810496        1.33436546260297
C           -2.88302799614223       -0.26315800396994        1.27400150770375
C           -2.19303798107274        2.30467000305896       -1.18742977106749
C           -1.26651538239283        1.17243369445008       -1.65249429687285
C            0.01082524939134        1.09745454476277       -0.89354803499847
N            0.61779393476578       -0.02034948052406       -0.57705522512502
C            2.00145210352228       -0.02376006389122       -0.15611399603240
C            2.92554934655222       -0.53865282675074       -1.27700088804721
C            4.35756843073516       -0.43050757231754       -0.83075544324989
C            5.07346135469827        0.73206409086248       -1.03980965825901
C            6.38627986649936        0.84224441421807       -0.60344822702769
C            7.00047264773336       -0.20824756335880        0.05722314418200
O            8.26703657141718       -0.21011313101264        0.52410943644933
C            9.06912227848686        0.92943601033931        0.31863058007678
C            6.27039964270142       -1.40439753960823        0.28033466008274
O            6.94829939911432       -2.38012925705718        0.92751999079483
C            6.31537317745639       -3.61583200086742        1.15217711710877
C            4.96302794628964       -1.49347471867959       -0.16064430359178
C           -0.05511211367372       -1.29906247805359       -0.62085686319744
C           -3.86758037025447        3.07992600430699        0.58498060215443
C           -4.49286159663096        2.77383493050346        1.94313289484366
C           -3.39165179876499        4.52917666589254        0.54797523472093
H           -4.66030026466202        0.94509067363451       -1.31640568823548
H           -6.85037928558380        0.25803162192116       -1.80468845313260
H           -7.17287442604349       -1.18600110843259       -2.79318157561361
H           -5.66836817451085       -0.26952966318766       -3.04040255244073
H           -4.88416720672258       -3.71589460520039        2.40913542187496
H           -5.29223570620378       -4.96637458756866        1.20969236903657
H           -3.61139813139015       -4.39919835331056        1.35529357841967
H           -3.07077796610445       -2.21868765711333        2.10002662693138
H           -2.14562754426994        0.02067850696302        2.01001344383370
H           -3.02188875377605        2.38238012313952       -1.88813545054866
H           -1.65198530896729        3.25146700677685       -1.20556284570283
H           -1.81103374245520        0.23006524641044       -1.62116301628650
H           -0.99335688527853        1.37490212198123       -2.69443256973690
H           -0.67628064361333        1.65183887049447        0.61785727145403
H            0.63525841192517        1.98466369793744       -0.92314021190751
H            2.11132552493482       -0.65949692842762        0.72532613231274
H            2.30680473056284        0.98978251704176        0.11078972794250
H            2.76694198818247        0.06750735147374       -2.17075252200790
H            2.67954581369920       -1.57455627803457       -1.51167743520200
H            4.62169998552446        1.56295612048703       -1.56123579000624
H            6.92357674630170        1.75715815945204       -0.79119596719031
H            8.65159112996149        1.81001823324363        0.81701555159939
H            9.20136171144928        1.14042857828877       -0.74698991949293
H           10.03428838009630        0.69003240176163        0.76064937965836
H            7.05567174969094       -4.23621171795340        1.65347565939075
H            5.43848001056755       -3.50813558175093        1.79970565785717
H            6.02060041905269       -4.09420497120334        0.21253282636366
H            4.40102758497114       -2.40127266373392       -0.00490198249042
H           -0.22071299714579       -1.61775583601871       -1.65116008982042
H           -1.01972258008625       -1.24102717432227       -0.10935206830928
H            0.55899954147532       -2.04486085926761       -0.12333730421426
H           -4.63991875734388        2.95501092798550       -0.18098088071825
H           -3.76095216473977        2.90314704960906        2.73380821053058
H           -4.87457614030224        1.75695641518947        1.97884603101694
H           -5.31925552549014        3.45579210326349        2.12325564252114
H           -2.60025590131176        4.69225046143352        1.27368918226171
H           -3.03987406413880        4.81897652321898       -0.43870975059559
H           -4.22191740670577        5.18069648090034        0.80616693961239
H           -0.59832433787845        2.77744694953323        2.72958984441332
72
 energy: 0.000000000000 xtb: 6.6.1 (8d0f1dd)
N           -1.48595306415885        2.77827650711101        2.23626216949739
C           -1.55936513370240        2.15893394488165        1.15450875838813
C           -2.74249844407858        2.05674778261735        0.25158737335676
C           -3.31751405082592        0.64766467695428        0.33707620544762
C           -4.30328166457406        0.24765572236089       -0.56822900207632
C           -4.85491182906740       -1.01877360889913       -0.52018698484402
O           -5.81896231573856       -1.48475818456066       -1.34585041530115
C           -6.37500973224629       -0.61571066918845       -2.30545232818152
C           -4.40841641157393       -1.94011746251703        0.45967093931671
O           -5.00201303542968       -3.15868598252825        0.42718869237114
C           -4.66383461180340       -4.10342153849171        1.41132228924646
C           -3.43409108865124       -1.53943622914810        1.35423078974407
C           -2.89470697026324       -0.25797865275948        1.29288504689976
C           -2.18435047388161        2.29489508873264       -1.17334557693493
C           -1.26932774405192        1.16310329701091       -1.66246427013620
C            0.00019893611797        1.06844842387298       -0.92076337215364
N            0.61657792866251       -0.05576010093265       -0.56833933924585
C            1.99930617662675       -0.04892975352828       -0.16249831104907
C            2.93959050661812       -0.52690240189704       -1.28518454151339
C            4.36782828973014       -0.42070761807962       -0.83932842768862
C            5.08476989184179        0.74266213119906       -1.03954015975735
C            6.39613645673202        0.85049346156628       -0.59980907588335
C            7.00874744926484       -0.20189266872254        0.05890896483565
O            8.27644039954308       -0.20937214902152        0.52697268752706
C            9.08207327440547        0.92819914791763        0.32269393556270
C            6.27668093188082       -1.39674447615694        0.27706899602459
O            6.95692498515787       -2.37631289356258        0.92417119926480
C            6.31916826517554       -3.60996551838919        1.14591229160440
C            4.97160502925904       -1.48526005884036       -0.16839307234616
C           -0.10353607093193       -1.32620499273002       -0.62511068739484
C           -3.86327669997461        3.08266456958431        0.58271922878585
C           -4.49595469035956        2.78844509729364        1.94255614282427
C           -3.38610891900566        4.53039075301380        0.53815102938231
H           -4.65251375917328        0.94557660457722       -1.30951292944411
H           -6.82946515696140        0.26202210313268       -1.83727906225925
H           -7.14592826005110       -1.19584764342999       -2.80914529351657
H           -5.63012304852439       -0.29232119819296       -3.04006126999476
H           -4.88057697393607       -3.73171773610528        2.41793436096198
H           -5.28722475381244       -4.97222645052763        1.20573415224859
H           -3.60913708300750       -4.39235003907464        1.34821429758249
H           -3.08673823073250       -2.21353662986927        2.12223739826773
H           -2.15887326243330        0.02577301444034        2.03189206975034
H           -3.00885719454255        2.39309110740268       -1.86957763119312
H           -1.62846633124779        3.23377533682471       -1.18673007677566
H           -1.81660264826464        0.21796909010793       -1.60656876068601
H           -1.01877516846454        1.36163429457993       -2.71071471005915
H           -0.68572423167213        1.62392477112613        0.68410463953058
H            0.64389733722258        1.97023561496975       -0.94386691432156
H            2.12804615148778       -0.68936211635286        0.71365748186700
H            2.28363361676551        0.96405686609203        0.11824007344923
H            2.77785980813476        0.09942697007726       -2.16819827354322
H            2.69959252596688       -1.55479530792244       -1.54255593833839
H            4.63542163224443        1.57731106344092       -1.55771241002779
H            6.93511718654837        1.76539435302515       -0.78409765562130
H            8.67104263089343        1.80948625866909        0.82474423441486
H            9.21311886579336        1.14211805436198       -0.74269712187702
H           10.04839784404935        0.68382534045443        0.76182083122609
H            7.05788832780027       -4.23147204146714        1.64783706731271
H            5.44050510223841       -3.50159946867700        1.79128267025517
H            6.02441540719711       -4.08797948560016        0.20592125011171
H            4.40750832411442       -2.39199385087465       -0.01534944449005
H           -0.26373150571429       -1.62543761217943       -1.63288716926646
H           -1.13989272066365       -1.27686273461346       -0.24579568657876
H            0.52946043023616       -2.08042018048627       -0.14289243244251
H           -4.63400077816735        2.95521734316319       -0.18596673251734
H           -3.76335166319518        2.92412777392537        2.73161783806649
H           -4.87733640521757        1.77265753420071        1.98472876848924
H           -5.32313081009600        3.47309665571105        2.11568885335394
H           -2.59511402798996        4.69387118528130        1.26426684827861
H           -3.02958197283697        4.81058586359603       -0.44811503238192
H           -4.21632276463276        5.18712722458615        0.78856766007330
H           -0.61280096931591        2.80144591223657        2.74893733569413
72
 energy: 0.000000000000 xtb: 6.6.1 (8d0f1dd)
N           -1.49913764594647        2.81371216008912        2.24646937244599
C           -1.56059926827993        2.15395313583580        1.17651453722262
C           -2.73903950582573        2.05664283716376        0.26477298521796
C           -3.32085639174234        0.65111048080844        0.35110701009164
C           -4.30420847667099        0.25025662115800       -0.55615330656177
C           -4.85756367928021       -1.01487365076107       -0.50670692760443
O           -5.82351275569345       -1.48217474749960       -1.33021516849336
C           -6.35337921114613       -0.62296878446748       -2.31517078962012
C           -4.41719573446699       -1.93416508936891        0.47547128456228
O           -5.01624240513293       -3.15494051389638        0.44360085985392
C           -4.66393582226534       -4.10586895415404        1.41359701518361
C           -3.44730291204377       -1.53398134797693        1.37439079166936
C           -2.90628512641948       -0.25362159739342        1.31200821496235
C           -2.17497922285581        2.28741060907851       -1.15851337466441
C           -1.27375449475573        1.15167091559386       -1.66247594797951
C           -0.00533917775101        1.03300120476755       -0.94438525717579
N            0.61001861335004       -0.09038696125767       -0.56523719537871
C            1.99106695943684       -0.07236747494916       -0.16897251488925
C            2.95171505366152       -0.51386602539118       -1.29406861385529
C            4.37702466304549       -0.40891173322144       -0.84512547511558
C            5.09596839330556        0.75335177941707       -1.03897811293731
C            6.40622170633142        0.85852054374780       -0.59633505339567
C            7.01712647329036       -0.19559291287838        0.06018400728897
O            8.28580899100195       -0.20844350941267        0.52984984681597
C            9.09499819813706        0.92689878798279        0.32681829996212
C            6.28297120499087       -1.38920848686254        0.27357469564578
O            6.96463388770139       -2.37179380917737        0.91967331473576
C            6.32267393762536       -3.60397156710284        1.13960507369896
C            4.97959915787552       -1.47627715391068       -0.17577798887992
C           -0.15210198750452       -1.34880570144245       -0.64145650066868
C           -3.85802928532751        3.08506663262583        0.58220490321342
C           -4.49881126021741        2.80310215282408        1.94200327557063
C           -3.38033191584170        4.53202418996728        0.52853448762703
H           -4.64490231659649        0.94609344039021       -1.30243354227562
H           -6.80912621290081        0.26582370224136       -1.87025350437975
H           -7.11884757978561       -1.20520621517725       -2.82517040656769
H           -5.59185494970418       -0.31507602345802       -3.04002937076692
H           -4.87738330550922       -3.74773477570341        2.42652598130575
H           -5.28191504481091       -4.97784499306147        1.20183230616782
H           -3.60675673547253       -4.38551857883734        1.34115599310172
H           -3.10263056082622       -2.20850886089359        2.14452520383567
H           -2.17215359495022        0.02981685840280        2.05395651181169
H           -2.99795908155438        2.40677691888461       -1.85161001902260
H           -1.60414610079530        3.21798270834260       -1.16735676893606
H           -1.82606429067923        0.20680107899730       -1.59304732457832
H           -1.04522258290746        1.34664234429517       -2.72035441358318
H           -0.69429913217405        1.59505508140758        0.75005625945585
H            0.65245085140807        1.95117739152822       -0.95830356095683
H            2.14199693449533       -0.72023863900396        0.70028658175364
H            2.25821568562341        0.94094015853217        0.12698519334258
H            2.78819931560119        0.13154252627574       -2.16566419371339
H            2.71875445777968       -1.53677743966549       -1.57498504895503
H            4.64919722066051        1.59157605414100       -1.55403277162948
H            6.94663275056263        1.77352356576267       -0.77684309139853
H            8.69046041924291        1.80900884258623        0.83256029365251
H            9.22484390941035        1.14384120570514       -0.73833134688357
H           10.06244124495413        0.67745971251862        0.76292177295175
H            7.05968226857906       -4.22654065660634        1.64221644714053
H            5.44257946431689       -3.49496543902937        1.78294956757722
H            6.02841679436536       -4.08189099072548        0.19929685313332
H            4.41371662113739       -2.38263606856204       -0.02588470037144
H           -0.30672795657951       -1.63700161508060       -1.62970916457025
H           -1.25960368668062       -1.31214614610003       -0.38279912620631
H            0.48803646447161       -2.10431930979752       -0.15769673677744
H           -4.62656127365169        2.95364017193918       -0.18861630837010
H           -3.76680182772994        2.94501899555718        2.73061166116875
H           -4.88062564088003        1.78806472772095        1.99106050798334
H           -5.32618172538361        3.49014250137857        2.10730513104311
H           -2.59030485967121        4.69660951311899        1.25496346468142
H           -3.01925302547535        4.80280505838775       -0.45795489784266
H           -4.21029479695547        5.19296430330829        0.77091636356780
H           -0.62946411295068        2.82642462217088        2.76454398393740
72
 energy: 0.000000000000 xtb: 6.6.1 (8d0f1dd)
N           -1.51271526762074        2.85039773054394        2.25298045875956
C           -1.56086486189050        2.14933577325094        1.19884925821598
C           -2.73512996261359        2.05573767966202        0.27784099335068
C           -3.32383631925420        0.65384525083286        0.36543251311200
C           -4.30507893303583        0.25268503613163       -0.54403369539865
C           -4.86037748448834       -1.01112603145079       -0.49321389197355
O           -5.82685546523224       -1.47818770191846       -1.31454615265589
C           -6.33170849626700       -0.63007825840307       -2.32490994280642
C           -4.42608488804864       -1.92856144862486        0.49134253169372
O           -5.02984666720198       -3.15027979095114        0.46026552309679
C           -4.66399014634609       -4.10827671429958        1.41591806549780
C           -3.46039972118812       -1.52898163615397        1.39476081954802
C           -2.91774170175520       -0.24985279390790        1.33135533796019
C           -2.16524088332252        2.28162529847480       -1.14303996145252
C           -1.27974492556351        1.13977084992079       -1.66100221861541
C           -0.00713006631145        0.99892267862635       -0.97054553990023
N            0.59475756570580       -0.12363191213867       -0.56422802834242
C            1.97913137616772       -0.09478584445578       -0.17553528609249
C            2.96194068198537       -0.49962179016770       -1.30367817848791
C            4.38517829467286       -0.39507092023989       -0.84898114011443
C            5.10706309998315        0.76413148322272       -1.03775226037528
C            6.41654912436916        0.86632195832996       -0.59302205974441
C            7.02556421673264       -0.18932245157658        0.06127264840505
O            8.29514006772059       -0.20714863826720        0.53274705162714
C            9.10790001600817        0.92554518675743        0.33099927537771
C            6.28926836930425       -1.38177030695220        0.26987255590184
O            6.97131010503382       -2.36669382466196        0.91432963705858
C            6.32598333544965       -3.59793182627258        1.13323142536103
C            4.98708499800737       -1.46651056957613       -0.18283003817554
C           -0.19836235092181       -1.37053221680753       -0.66372785238218
C           -3.85322060940382        3.08811399866683        0.58237468898633
C           -4.50148163256570        2.81779789527090        1.94149901119537
C           -3.37439658627176        4.53386923761813        0.51904155658549
H           -4.63744263312083        0.94662947106664       -1.29519310331085
H           -6.78880769738511        0.26920268381213       -1.90328728958225
H           -7.09167003324642       -1.21430083429582       -2.84118861730490
H           -5.55359855877203       -0.33785140402677       -3.04000300706699
H           -4.87439119623806       -3.76387436613079        2.43496606719092
H           -5.27642636327801       -4.98330842770964        1.19794934543205
H           -3.60452201607478       -4.37856870988029        1.33415950151331
H           -3.11856594998325       -2.20347814837338        2.16678072906418
H           -2.18541813515406        0.03356359002005        2.07609598475194
H           -2.98724599525490        2.42107282431668       -1.83395815290829
H           -1.57940039278880        3.20335814703497       -1.14749421823920
H           -1.83826491106948        0.19839282013057       -1.58016178671279
H           -1.07269903314325        1.32973366222364       -2.72601689280843
H           -0.70285182527333        1.56610438214557        0.81600045592791
H            0.66027926062108        1.92812970544301       -0.96926185923674
H            2.14942567191698       -0.75196649588350        0.68545859423103
H            2.23278764584184        0.91770708295521        0.13537090198658
H            2.79793528366993        0.16383087081839       -2.16292807976479
H            2.73756753710859       -1.51951621906172       -1.60806676659817
H            4.66292895730961        1.60584264128964       -1.55020610995807
H            6.95813004804332        1.78152991647902       -0.76941902240417
H            8.70984507348226        1.80854902628653        0.84045952130271
H            9.23654160164876        1.14558027478416       -0.73389806878800
H           10.07641419354564        0.67093354776085        0.76399191743140
H            7.06128180590320       -4.22148127487518        1.63664826110614
H            5.44466379484565       -3.48825102987029        1.77468294157835
H            6.03253377351068       -4.07589836862415        0.19265105537146
H            4.41971173735787       -2.37321429664545       -0.03649264863540
H           -0.34888861949534       -1.65581038552581       -1.63816860561549
H           -1.37940526661022       -1.34740077555190       -0.51970601804210
H            0.44482802571053       -2.12595600090387       -0.17265227629650
H           -4.61918978572904        2.95175671226054       -0.19086044826665
H           -3.77106284768197        2.96580787503273        2.73026142112475
H           -4.88420240178649        1.80336777774686        1.99752711849822
H           -5.32874596397067        3.50699953215424        2.09830327796694
H           -2.58573685121961        4.70039607256947        1.24589885142553
H           -3.00891331583747        4.79544681038384       -0.46814095882495
H           -4.20397579528695        5.19838921495751        0.75322452646508
H           -0.64653879648430        2.85248362949977        2.77819036862339
72
 energy: 0.000000000000 xtb: 6.6.1 (8d0f1dd)
N           -1.52764210917138        2.88612924811012        2.26088772744414
C           -1.56125743789525        2.14820833462720        1.22132698163026
C           -2.73147591816240        2.05496405284593        0.29098044649113
C           -3.32653803230203        0.65615991777721        0.37986524707815
C           -4.30554927705366        0.25511259819542       -0.53189711148080
C           -4.86369044853718       -1.00736378450101       -0.47985169255732
O           -5.82947039492568       -1.47257797624977       -1.29926705919992
C           -6.31004522072322       -0.63704303228780       -2.33477329295749
C           -4.43521922290420       -1.92338047543099        0.50721057489834
O           -5.04285690400396       -3.14472365651466        0.47717660084699
C           -4.66402289532045       -4.11062437570422        1.41830134683920
C           -3.47340730863005       -1.52413643318151        1.41521763591900
C           -2.92884320510550       -0.24621729254947        1.35092026577246
C           -2.15565476227902        2.27711032922676       -1.12705404552281
C           -1.28708561287746        1.12915403435367       -1.65846163695919
C           -0.00392717192145        0.97117721459736       -1.00258256826939
N            0.57659387510560       -0.15432604334195       -0.56997372160394
C            1.96634198540771       -0.11643692670105       -0.18216012591615
C            2.97003648877048       -0.48457751571506       -1.31410942967265
C            4.39208505650899       -0.38042900372386       -0.85109580731744
C            5.11756701607683        0.77535498160429       -1.03606667744889
C            6.42666179011630        0.87434692702514       -0.58961805293971
C            7.03400618380410       -0.18307499395121        0.06245668411097
O            8.30441407414872       -0.20553824064834        0.53565684699779
C            9.12079273049314        0.92425205869752        0.33522589337998
C            6.29560105681711       -1.37438414362759        0.26612154983365
O            6.97700057219361       -2.36108717515859        0.90824629512919
C            6.32917124063847       -3.59192756045818        1.12676031679730
C            4.99421897260282       -1.45629355949465       -0.18954667508890
C           -0.24177218923512       -1.39308718045067       -0.69064564400197
C           -3.84859186905538        3.09146712420829        0.58287427381181
C           -4.50402630365401        2.83251928780840        1.94112947369529
C           -3.36833959871460        4.53569327937126        0.50962667034513
H           -4.63014067212106        0.94720770715405       -1.28779650837872
H           -6.76825295010287        0.27212968945999       -1.93622971181221
H           -7.06443666235303       -1.22322499528854       -2.85721372477179
H           -5.51538543445448       -0.36070614383751       -3.03979118330820
H           -4.87151213019130       -3.78009408105374        2.44329202090533
H           -5.27080086652733       -4.98862486693572        1.19405349856040
H           -3.60255631701128       -4.37135532434367        1.32737483503022
H           -3.13462329453485       -2.19833384148098        2.18892534177672
H           -2.19863329389207        0.03731944659958        2.09825841857625
H           -2.97653724269789        2.43581866753745       -1.81672615466888
H           -1.55483396190642        3.18909834190679       -1.12718230603959
H           -1.85238930959404        0.19193554262882       -1.56776204451816
H           -1.09994447439440        1.31237025517888       -2.72974713621519
H           -0.71180378338535        1.53790396949490        0.88219868047505
H            0.66627639423720        1.90434061872530       -0.97850383414579
H            2.15303815051275       -0.78430348677434        0.66924244584692
H            2.20749737528527        0.89431111989631        0.14367478631520
H            2.80702444179974        0.19628869469320       -2.15980399954742
H            2.75624962050394       -1.50267949284932       -1.64142863454410
H            4.67635888394276        1.62037214269814       -1.54626852806333
H            6.96954882798524        1.78964683015437       -0.76199732245674
H            8.72918306502511        1.80804364069093        0.84846923218850
H            9.24821324439335        1.14726479707597       -0.72937766005450
H           10.09029925640120        0.66423431208595        0.76519260000651
H            7.06275665520857       -4.21631663212612        1.63114104414376
H            5.44672698769461       -3.48145269272065        1.76647951708353
H            6.03664349413304       -4.06993192804086        0.18597709747314
H            4.42580455995504       -2.36385411065975       -0.04709888856845
H           -0.37966000354364       -1.67876142376902       -1.65975117222078
H           -1.50274927995723       -1.38542364719141       -0.65269764258459
H            0.40181406368021       -2.14690906037710       -0.18816332881821
H           -4.61177053164583        2.94959564791206       -0.19261126524925
H           -3.77585598011069        2.98647519380698        2.73079184196399
H           -4.88777410724554        1.81876283011949        2.00376111817292
H           -5.33110166923116        3.52377094317275        2.08912171758032
H           -2.58135141275489        4.70513017574137        1.23715614886071
H           -2.99865499535879        4.78819710972433       -0.47847011931321
H           -4.19749461611475        5.20349166192637        0.73549954957641
H           -0.66234587288247        2.87967604065196        2.79108653416446
72
 energy: 0.000000000000 xtb: 6.6.1 (8d0f1dd)
N           -1.54341720320061        2.92155085253296        2.26997829254600
C           -1.56212706423545        2.15018792788054        1.24393082439945
C           -2.72790115117624        2.05408110074252        0.30412792885856
C           -3.32897082391520        0.65811115705254        0.39440867890489
C           -4.30580411709463        0.25749677136715       -0.51974104786788
C           -4.86739291775611       -1.00359343241329       -0.46657726154404
O           -5.83173371058984       -1.46490589483671       -1.28482880030963
C           -6.28826021773446       -0.64393338785357       -2.34441443994338
C           -4.44451274634785       -1.91849432466908        0.52308914936577
O           -5.05547597208555       -3.13867380008578        0.49418921810108
C           -4.66404795998034       -4.11289503465935        1.42075661000987
C           -3.48641761594710       -1.51937631779045        1.43569416359806
C           -2.93966667599363       -0.24271636488851        1.37067178671727
C           -2.14588463717959        2.27399284819130       -1.11089634844272
C           -1.29532215222437        1.11935498813006       -1.65565371192645
C            0.01027210960195        0.95646235469924       -1.04029977967182
N            0.55737859841444       -0.18352769429823       -0.57947996569977
C            1.95358316982894       -0.13797845278114       -0.18916888829143
C            2.97603099494699       -0.46881283766362       -1.32485265447674
C            4.39766268163403       -0.36508544086464       -0.85183202274815