25
 energy: -41.926522957752 gnorm: 0.005293131542 xtb: 6.6.1 (8d0f1dd)
C            3.23761474157471        1.03210427718549       -0.61070356836781
N            2.29403337972349        0.16832665681774        0.00893868992149
C            2.45974871261264       -0.93908489625012        0.90833534827551
N            1.54203257780345       -2.00941717031849        0.50662423136650
C            0.97391767121395       -0.89337501288279        1.18035356080849
C            0.94529460582250        0.21004268787220        0.16285296154058
C            0.04492678428649        1.12176991308327       -0.39828047216775
O            0.24674712460723        2.03501654598520       -1.16029251115332
N           -1.38697597568649        0.92236881469731        0.06593439401365
C           -1.98075335830534        2.03524002807859        0.78973954217969
C           -2.07988998444488       -0.06425309642470       -0.32798893179436
O           -3.29975713584169       -0.52040814827031       -0.25726494653005
N           -2.20022777309648       -1.14890407021540       -1.10332530730751
C           -1.77578180292616       -2.46892627182527       -0.75378676820768
H            3.84479042067051        1.54615672833033        0.14094839261501
H            3.90814332326937        0.44709519379993       -1.24526929272015
H            2.70549003186827        1.76942338776795       -1.21037896386683
H            3.34967611010123       -1.09840083254682        1.48577999740003
H           -1.73376351289937        2.95478218482272        0.25567872271554
H           -3.06233498199581        1.91484692779775        0.84662038957853
H           -1.55496610843338        2.07655743800670        1.79400018429921
H           -1.75426193798370       -2.65103139843782        0.32327925377272
H           -0.77148273025299       -2.57953023302783       -1.16512830629245
H           -2.44459385222549       -3.17520650696759       -1.24306670276008
H            1.65280518463487       -2.86695460547620        1.03757172058304
