72
 energy: 0.000000000000 xtb: 6.6.1 (8d0f1dd)
N           -1.47310921155849        2.74401293103706        2.22063921685122
C           -1.55658879776851        2.16490285539332        1.13274273951491
C           -2.74549199786261        2.05621232186130        0.23826248438941
C           -3.31377553111525        0.64333411542669        0.32332512650568
C           -4.30230156009016        0.24487110156316       -0.58026161703006
C           -4.85238763031941       -1.02286490450319       -0.53363588718165
O           -5.81419972815119       -1.48606034185536       -1.36157882725342
C           -6.39655633239252       -0.60827000183299       -2.29568474302620
C           -4.39972501531283       -1.94646102182611        0.44396929121966
O           -4.98748311285188       -3.16145997157803        0.41085992006324
C           -4.66362127904578       -4.10093827755394        1.40909127743729
C           -3.42072513477031       -1.54561384810496        1.33436546260297
C           -2.88302799614223       -0.26315800396994        1.27400150770375
C           -2.19303798107274        2.30467000305896       -1.18742977106749
C           -1.26651538239283        1.17243369445008       -1.65249429687285
C            0.01082524939134        1.09745454476277       -0.89354803499847
N            0.61779393476578       -0.02034948052406       -0.57705522512502
C            2.00145210352228       -0.02376006389122       -0.15611399603240
C            2.92554934655222       -0.53865282675074       -1.27700088804721
C            4.35756843073516       -0.43050757231754       -0.83075544324989
C            5.07346135469827        0.73206409086248       -1.03980965825901
C            6.38627986649936        0.84224441421807       -0.60344822702769
C            7.00047264773336       -0.20824756335880        0.05722314418200
O            8.26703657141718       -0.21011313101264        0.52410943644933
C            9.06912227848686        0.92943601033931        0.31863058007678
C            6.27039964270142       -1.40439753960823        0.28033466008274
O            6.94829939911432       -2.38012925705718        0.92751999079483
C            6.31537317745639       -3.61583200086742        1.15217711710877
C            4.96302794628964       -1.49347471867959       -0.16064430359178
C           -0.05511211367372       -1.29906247805359       -0.62085686319744
C           -3.86758037025447        3.07992600430699        0.58498060215443
C           -4.49286159663096        2.77383493050346        1.94313289484366
C           -3.39165179876499        4.52917666589254        0.54797523472093
H           -4.66030026466202        0.94509067363451       -1.31640568823548
H           -6.85037928558380        0.25803162192116       -1.80468845313260
H           -7.17287442604349       -1.18600110843259       -2.79318157561361
H           -5.66836817451085       -0.26952966318766       -3.04040255244073
H           -4.88416720672258       -3.71589460520039        2.40913542187496
H           -5.29223570620378       -4.96637458756866        1.20969236903657
H           -3.61139813139015       -4.39919835331056        1.35529357841967
H           -3.07077796610445       -2.21868765711333        2.10002662693138
H           -2.14562754426994        0.02067850696302        2.01001344383370
H           -3.02188875377605        2.38238012313952       -1.88813545054866
H           -1.65198530896729        3.25146700677685       -1.20556284570283
H           -1.81103374245520        0.23006524641044       -1.62116301628650
H           -0.99335688527853        1.37490212198123       -2.69443256973690
H           -0.67628064361333        1.65183887049447        0.61785727145403
H            0.63525841192517        1.98466369793744       -0.92314021190751
H            2.11132552493482       -0.65949692842762        0.72532613231274
H            2.30680473056284        0.98978251704176        0.11078972794250
H            2.76694198818247        0.06750735147374       -2.17075252200790
H            2.67954581369920       -1.57455627803457       -1.51167743520200
H            4.62169998552446        1.56295612048703       -1.56123579000624
H            6.92357674630170        1.75715815945204       -0.79119596719031
H            8.65159112996149        1.81001823324363        0.81701555159939
H            9.20136171144928        1.14042857828877       -0.74698991949293
H           10.03428838009630        0.69003240176163        0.76064937965836
H            7.05567174969094       -4.23621171795340        1.65347565939075
H            5.43848001056755       -3.50813558175093        1.79970565785717
H            6.02060041905269       -4.09420497120334        0.21253282636366
H            4.40102758497114       -2.40127266373392       -0.00490198249042
H           -0.22071299714579       -1.61775583601871       -1.65116008982042
H           -1.01972258008625       -1.24102717432227       -0.10935206830928
H            0.55899954147532       -2.04486085926761       -0.12333730421426
H           -4.63991875734388        2.95501092798550       -0.18098088071825
H           -3.76095216473977        2.90314704960906        2.73380821053058
H           -4.87457614030224        1.75695641518947        1.97884603101694
H           -5.31925552549014        3.45579210326349        2.12325564252114
H           -2.60025590131176        4.69225046143352        1.27368918226171
H           -3.03987406413880        4.81897652321898       -0.43870975059559
H           -4.22191740670577        5.18069648090034        0.80616693961239
H           -0.59832433787845        2.77744694953323        2.72958984441332
72
 energy: -5.966969546598 xtb: 6.6.1 (8d0f1dd)
N           -1.51722325153617        2.79649447419346        2.24954397668708
C           -1.56453176447392        2.16000326067507        1.16863817339821
C           -2.75170576479599        2.06450493070018        0.25463854219311
C           -3.31842816126745        0.65232748238382        0.33252171224035
C           -4.29972255832853        0.24732107845209       -0.57451132989761
C           -4.84346114040855       -1.02178164972312       -0.53049101454717
O           -5.80742666554738       -1.49203956976646       -1.37057296154871
C           -6.38180470586608       -0.61224550005608       -2.30257645448133
C           -4.39854832361556       -1.93963743268900        0.44725704043650
O           -4.98997276980691       -3.16654373051566        0.41244280526048
C           -4.66546659029531       -4.09733807484314        1.41212876437171
C           -3.42998150026210       -1.53722312305687        1.34603436356875
C           -2.89677211911834       -0.25403697524338        1.28829224792106
C           -2.18844302536536        2.30725825156804       -1.16879422898195
C           -1.25210940632740        1.18754570513387       -1.64993331309926
C            0.01337488941155        1.12779797621472       -0.86993420350508
N            0.64121300643074       -0.05468915088898       -0.54036205371431
C            2.02121872088619       -0.06670080381721       -0.16719929016552
C            2.95591733271350       -0.55856846342749       -1.31965117482702
C            4.37981280594939       -0.44956164443941       -0.88111818308309
C            5.09689191616011        0.71499271756000       -1.08461695397017
C            6.40122444159549        0.83276238887075       -0.62843426697906
C            7.00456005986935       -0.21298121952037        0.04654465876526
O            8.27454833674774       -0.20676865322669        0.54057978278780
C            9.06315219391470        0.93662721433168        0.33960321465788
C            6.28009865898233       -1.40705345132280        0.26212946492561
O            6.95747280562462       -2.38406958650805        0.92827768960958
C            6.32083168593415       -3.61637565551626        1.14475691431739
C            4.98213868348419       -1.50651592005689       -0.19809282376229
C           -0.05500122477499       -1.30591187821650       -0.60545853193332
C           -3.87987325112292        3.07974472173052        0.58066583675018
C           -4.51736091757853        2.78103285023998        1.93598410050501
C           -3.41003618603826        4.53284881054177        0.54349310612758
H           -4.64933012811758        0.94437728839764       -1.31829979508385
H           -6.83794139992644        0.25534815619590       -1.81372585604087
H           -7.15691245051013       -1.18924709377068       -2.80471382244554
H           -5.65138842322690       -0.27058368587257       -3.04411822300837
H           -4.89213837909917       -3.71236400764312        2.41198210512667
H           -5.28954834617761       -4.96675633474030        1.21153510478824
H           -3.61137589809904       -4.39227918107643        1.36634277785798
H           -3.08261784882289       -2.21085387663832        2.11358216935917
H           -2.16259843244005        0.03324113652023        2.02535894342141
H           -3.01409178382325        2.39672478362632       -1.87577632978944
H           -1.64132586521428        3.25127131223024       -1.17943411324982
H           -1.79332998350869        0.24137406849897       -1.61257205034944
H           -1.00602106678710        1.39738006050111       -2.69854030372080
H           -0.69597747067641        1.65218826455787        0.68168378622157
H            0.65753488919896        1.99145034829228       -0.90461487634406
H            2.13581638333540       -0.70778929558863        0.71749154601294
H            2.30880407586879        0.94731453358034        0.13461862171001
H            2.79387901701624        0.04699937480197       -2.21406547370051
H            2.70749507291964       -1.59215955111512       -1.56131819311683
H            4.64868590271729        1.54191742187260       -1.61518332727777
H            6.93857782227297        1.74962093400387       -0.81112633466169
H            8.63202220949919        1.81836570916077        0.82544915437435
H            9.21106471128770        1.14672840434215       -0.72471511955176
H           10.02342474947757        0.70730359205352        0.79779948733359
H            7.05242055349909       -4.23272944604477        1.66479806874517
H            5.42957046411939       -3.51032574121956        1.77293579915686
H            6.04419058922867       -4.10118286705783        0.20220748486223
H            4.41995078642318       -2.41519683387675       -0.04644422787944
H           -0.22591110985204       -1.61835486256635       -1.64059680237250
H           -1.02203482810779       -1.24027373024308       -0.09726212063504
H            0.54898658410008       -2.06172083944338       -0.10898067327517
H           -4.64901873572868        2.95493289156913       -0.19032015198494
H           -3.78758367079823        2.91522108205595        2.72675927605825
H           -4.89264992648268        1.76115358272921        1.97209323924760
H           -5.34874882936956        3.46067757183361        2.10792794609161
H           -2.62357438908494        4.69543129596641        1.27345424422254
H           -3.04819774925730        4.81644232836159       -0.44171563122812
H           -4.24429124566069        5.18516534294103        0.79169936116245
H           -0.62986310378815        2.79500965015842        2.74851700456367
72
 energy: -5.568616865510 xtb: 6.6.1 (8d0f1dd)
N           -1.54371927606532        2.82142185832789        2.26501379137710
C           -1.58019234368974        2.16831807266735        1.19364648092790
C           -2.75756857535358        2.06947381396642        0.26645926434073
C           -3.32282099387768        0.65715668054612        0.34090612991466
C           -4.29682769293805        0.24892490856095       -0.57201987438332
C           -4.83839334688959       -1.02128723887756       -0.53019318983399
O           -5.79551471322038       -1.49490207666565       -1.37688330585776
C           -6.36784728904248       -0.61525818994384       -2.31016574263842
C           -4.39915737487183       -1.93685957946799        0.45187757691647
O           -4.98804385876066       -3.16561439706617        0.41483611770507
C           -4.66715217712247       -4.09475261236774        1.41655573898619
C           -3.43803424839442       -1.53098679222522        1.35695859369697
C           -2.90729240874236       -0.24684911756245        1.30130124422233
C           -2.18152030485029        2.31202791766784       -1.15084309722620
C           -1.24202808445353        1.19437641505225       -1.63074821850772
C            0.02190011733008        1.12637613745345       -0.84421759612243
N            0.64855759315869       -0.06379418051090       -0.51792482870696
C            2.03999257097362       -0.10233486207378       -0.17672886568133
C            2.97809261924777       -0.57734042299769       -1.36257797198160
C            4.40133995985449       -0.46625381286121       -0.92578612073547
C            5.11899147606611        0.69868576614050       -1.12772672119774
C            6.41638987151028        0.82320150419869       -0.65371158743593
C            7.01248016110935       -0.21676830457433        0.03641916869693
O            8.27346509269584       -0.20179738606275        0.55434048261228
C            9.05766338859930        0.94506910399103        0.35989830899299
C            6.29064575934802       -1.41323437087331        0.24462494167977
O            6.96232908816872       -2.38453185492853        0.92614381430467
C            6.32584692436995       -3.61780099979292        1.13723665158877
C            4.99997223168238       -1.51959432779280       -0.23365482347042
C           -0.05901728854868       -1.30910971817312       -0.59080570878534
C           -3.89167347698484        3.08224768941362        0.57752616244643
C           -4.53972373797765        2.78725969137200        1.92837589024442
C           -3.42651811180450        4.53649236900396        0.53807165079897
H           -4.64024938145888        0.94377409065775       -1.32062670284079
H           -6.82633662058764        0.25201343279742       -1.82267514369276
H           -7.14060659933419       -1.19279807709987       -2.81535947788460
H           -5.63497839109950       -0.27236435120082       -3.04859872673347
H           -4.90108328937363       -3.70976943952962        2.41469419238724
H           -5.28722884528317       -4.96624455198465        1.21256527538441
H           -3.61192693941104       -4.38660028111521        1.37738339295019
H           -3.09506460414799       -2.20286189190575        2.12797506469341
H           -2.17938901590314        0.04373319104358        2.04315338097164
H           -3.00262146677016        2.40786804601042       -1.86305990610206
H           -1.63169731518828        3.25397561980895       -1.15530421952825
H           -1.78489886911648        0.24859337621895       -1.60189588400226
H           -0.99913666383674        1.41244418406498       -2.67773517367944
H           -0.70853220042245        1.65234520619135        0.72539760958092
H            0.66765360282895        1.99034617253372       -0.86864964812020
H            2.15348038621630       -0.75345843222794        0.70342937749686
H            2.31982381496127        0.90749676776689        0.15864815519916
H            2.82060995928548        0.02699883984197       -2.25981118487680
H            2.73402468011419       -1.60965648417730       -1.61064338950293
H            4.67698199450148        1.52212829033476       -1.66862358690281
H            6.95314617304658        1.74167148872125       -0.83140764581113
H            8.61343601737739        1.82663976483696        0.83364988011693
H            9.22155255296094        1.15188705219171       -0.70230613932288
H           10.01130571376095        0.72326332797142        0.83461744261694
H            7.04926326262532       -4.22817805263735        1.67535742411100
H            5.42162826364548       -3.51303384958245        1.74685164607789
H            6.06863058230633       -4.10819215327887        0.19208000699197
H            4.43962234670723       -2.43015176203943       -0.08716452487735
H           -0.23030557117276       -1.61358542771550       -1.62765207188706
H           -1.02712422755197       -1.23916493646203       -0.08477054320359
H            0.53892201613471       -2.07169880823724       -0.09714342933038
H           -4.65486177007076        2.95318516691803       -0.19867358769249
H           -3.81640691999718        2.92848462839242        2.72293628235035
H           -4.91074103960418        1.76584586476577        1.96579097031879
H           -5.37522313342754        3.46436836664068        2.09144413635871
H           -2.64720150830959        4.70289918874756        1.27388482555613
H           -3.05687614196048        4.81621840423038       -0.44530230660982
H           -4.26442085675544        5.18805217945430        0.77664859708081
H           -0.66393387822759        2.82200399497211        2.77576209694992
72
 energy: -4.292715848953 xtb: 6.6.1 (8d0f1dd)
N           -1.57115302571142        2.84646860650752        2.27897786414000
C           -1.59618132616980        2.17702171261429        1.21759369987989
C           -2.76386058944870        2.07451562377277        0.27789255939191
C           -3.32722552596251        0.66184297423714        0.34915348821677
C           -4.29386557745111        0.25027066124775       -0.56959658204188
C           -4.83328770304146       -1.02099045591387       -0.52974245195668
O           -5.78350520973499       -1.49787835199034       -1.38311889023319
C           -6.35364189834606       -0.61817576067386       -2.31759007906628
C           -4.39983451983395       -1.93409689899230        0.45682508461838
O           -4.98601362658325       -3.16453181649453        0.41776936773837
C           -4.66858217832764       -4.09236778884701        1.42127769346223
C           -3.44624548093882       -1.52482119271251        1.36815596343429
C           -2.91786596030505       -0.23981344977050        1.31420715553578
C           -2.17542925068796        2.31754290145268       -1.13323203723154
C           -1.23337968442953        1.20059619586858       -1.61028390517764
C            0.02916473252785        1.12472489184963       -0.81784743266250
N            0.65511035827907       -0.07270265820254       -0.49393280861104
C            2.05664506076462       -0.13936702761117       -0.18445999444223
C            3.00071922353182       -0.59708075876770       -1.40761173650862
C            4.42308582075920       -0.48324486995371       -0.97124858482544
C            5.14128181002873        0.68256939702558       -1.17018144334764
C            6.43144788235417        0.81405264765428       -0.67812088550100
C            7.02027535565351       -0.22014027144862        0.02674123547119
O            8.27181227617841       -0.19655344971417        0.56842261021119
C            9.05171107205803        0.95365277202582        0.38086537582768
C            6.30135043289636       -1.41906123783683        0.22727326256502
O            6.96739210722515       -2.38474154367697        0.92364264472519
C            6.33113598079677       -3.61893503616015        1.12973791476150
C            5.01837283109122       -1.53253332616822       -0.26930824673845
C           -0.06421749941264       -1.31157058545022       -0.57560840888837
C           -3.90324946518952        3.08514809375987        0.57449479579753
C           -4.56162004989896        2.79397807313038        1.92099691748730
C           -3.44215686392118        4.54044661192927        0.53201555321636
H           -4.63092983512502        0.94268997562072       -1.32327613836949
H           -6.81427490284597        0.24886481214617       -1.83142547659572
H           -7.12427953206889       -1.19596358281330       -2.82579114876997
H           -5.61840562382755       -0.27418848199056       -3.05306812407270
H           -4.90975860353909       -3.70773904605193        2.41779738035593
H           -5.28458397565442       -4.96596923387354        1.21383897530132
H           -3.61227795463243       -4.38123026376398        1.38860544494280
H           -3.10798702442717       -2.19479240100914        2.14288510008860
H           -2.19654560995415        0.05402827410647        2.06104002713554
H           -2.99214143964170        2.41960022468943       -1.85052307220932
H           -1.62301311712500        3.25763665415434       -1.13136858756003
H           -1.77823242763699        0.25534244600576       -1.59055745909514
H           -0.99117415122846        1.42658029075826       -2.65532844164282
H           -0.72152795011361        1.65297685089724        0.76842243337279
H            0.67531444087016        1.98961321310437       -0.83306081163951
H            2.17133976788935       -0.80146352179747        0.68894570820111
H            2.33183335614257        0.86502319714736        0.18342181953757
H            2.84586969742744        0.00694415659325       -2.30718333909851
H            2.76016090607892       -1.62783727191027       -1.66269434443644
H            4.70591925965486        1.50246150680279       -1.72160502016499
H            6.96782985713288        1.73396764317536       -0.85124596627735
H            8.59456157864657        1.83493759989822        0.84251858597772
H            9.23185188418125        1.15731086280668       -0.67900385543224
H            9.99837779811140        0.73878562484361        0.87195117904484
H            7.04632035006056       -4.22338062567167        1.68532104095852
H            5.41463988561382       -3.51574128130013        1.72114073389710
H            6.09273326466806       -4.11464169288995        0.18235294278171
H            4.46010541018590       -2.44495866921374       -0.12737340520083
H           -0.23491375949473       -1.60790274586984       -1.61425660237209
H           -1.03379863451500       -1.23903055110730       -0.07219501157986
H            0.52879130050435       -2.08026525540335       -0.08555061559437
H           -4.66055761586487        2.95176505397818       -0.20672204144063
H           -3.84464039604740        2.94205488493769        2.71926192358048
H           -4.92879418755946        1.77118041039202        1.95996086799223
H           -5.40081820761039        3.46882977519664        2.07539833816525
H           -2.66980140507794        4.71078641795381        1.27338737394666
H           -3.06482396564934        4.81602163599227       -0.44962430571541
H           -4.28320111121280        5.19161186491453        0.76112706455690
H           -0.69940528880361        2.84808442875332        2.80151683993256
72
 energy: -2.021108732218 xtb: 6.6.1 (8d0f1dd)
N           -1.59936508888232        2.87238379422078        2.29284718889280
C           -1.61261916124326        2.18614017240511        1.24226481685298
C           -2.76993124804642        2.07957851637501        0.28954159573885
C           -3.33150131991751        0.66653300043763        0.35778561898538
C           -4.29067676005367        0.25180182234006       -0.56697522310282
C           -4.82808600642666       -1.02046251501995       -0.52929629387951
O           -5.77125413480311       -1.50069731959120       -1.38934290152087
C           -6.33929763588574       -0.62152891009045       -2.32551691084894
C           -4.40039233733602       -1.93124924755900        0.46157446387708
O           -4.98390649410028       -3.16314298741968        0.42014863333340
C           -4.67049203602786       -4.08970663777757        1.42565996839603
C           -3.45446190465013       -1.51885714799160        1.37933263601210
C           -2.92858598906983       -0.23288419150204        1.32749918253675
C           -2.16851355406613        2.32297438813298       -1.11537903009349
C           -1.22446699823298        1.20638252350043       -1.58981447945772
C            0.03595707809769        1.12341161802041       -0.79118268168403
N            0.65935464179496       -0.08071101221776       -0.46750224528537
C            2.06366018222654       -0.17042944814293       -0.17990661957767
C            3.02384368035917       -0.61633615859103       -1.44962147539090
C            4.44458117595194       -0.49963335172812       -1.01556754664666
C            5.16416017165309        0.66657992148018       -1.21281003505005
C            6.44709462188961        0.80461523011539       -0.70351323065174
C            7.02845714858573       -0.22378857724210        0.01602497761894
O            8.27014235483085       -0.19151182203297        0.58142284388395
C            9.04597083829492        0.96196917443409        0.40099297201297
C            6.31221370780995       -1.42505361477250        0.20914658872707
O            6.97237390621323       -2.38547952296351        0.91966021303540
C            6.33636924968227       -3.62042686987756        1.12154980418469
C            5.03695053726913       -1.54523693385347       -0.30476658202679
C           -0.07027053578442       -1.31381814100537       -0.55955304836980
C           -3.91492206978937        3.08774931054219        0.57154005824974
C           -4.58436766483996        2.80108583959336        1.91351525009942
C           -3.45843157540671        4.54429127236074        0.52599509797885
H           -4.62172487831941        0.94206855388585       -1.32523027816947
H           -6.80266617045539        0.24523020526640       -1.84120498211719
H           -7.10738999344093       -1.20005647731573       -2.83681464888977
H           -5.60160246272148       -0.27649454157587       -3.05794616587417
H           -4.91920547762934       -3.70533349906834        2.42040023081847
H           -5.28240558127258       -4.96538362147670        1.21466850487661
H           -3.61314582273122       -4.37555654190507        1.39988628477973
H           -3.12085701815431       -2.18717848690851        2.15749701861725
H           -2.21416764198902        0.06411070805050        2.07959027869619
H           -2.98017971879239        2.43163364829063       -1.83820045590454
H           -1.61283393694282        3.26085096876769       -1.10688174049293
H           -1.77067399306926        0.26156448536896       -1.57770850652013
H           -0.98221183256865        1.43799737819099       -2.63313072976755
H           -0.73520336792137        1.65300397710081        0.81344371887638
H            0.68332329459210        1.98842154273163       -0.79737070426242
H            2.18578231827312       -0.84746395385972        0.67944023051761
H            2.34134806770710        0.82668417590341        0.21122360095436
H            2.87209070351903       -0.01345771032470       -2.35257301255715
H            2.78697547191372       -1.64574288260115       -1.71157133103282
H            4.73526553400922        1.48303571458538       -1.77436830704206
H            6.98306874247368        1.72595688101161       -0.87209658857115
H            8.57570967701165        1.84286099655183        0.85007668763365
H            9.24297621529397        1.16242152772858       -0.65628317141911
H            9.98533180713669        0.75454139413611        0.90880070552622
H            7.04294516522846       -4.21851083810116        1.69493132698384
H            5.40779146552625       -3.51860921431232        1.69433782089226
H            6.11721558966925       -4.12190033241410        0.17242956452754
H            4.48030576336456       -2.45931382137787       -0.16765045682187
H           -0.23810833787808       -1.60188603535576       -1.60032912197659
H           -1.04203737121293       -1.23826243492349       -0.06059027282670
H            0.51639319773261       -2.08908620431367       -0.07232911861846
H           -4.66579643675627        2.94940102955366       -0.21507530831323
H           -3.87451423426390        2.95656842045866        2.71610909733536
H           -4.94775524055763        1.77698141348665        1.95460121144550
H           -5.42747200849622        3.47358291993105        2.05799563150418
H           -2.69344915131177        4.71931338290334        1.27317705840431
H           -3.07319955430842        4.81573916935358       -0.45371275221097
H           -4.30309706892776        5.19449015888615        0.74501942948438
H           -0.73598945533341        2.87532200789645        2.82750005031411
72
 energy: 1.556020793111 xtb: 6.6.1 (8d0f1dd)
N           -1.62673366832844        2.89789945894787        2.30576490822625
C           -1.62880666679482        2.19606146420701        1.26583254550698
C           -2.77611420057562        2.08487697321529        0.30088824216828
C           -3.33566602730576        0.67133412642090        0.36621905870591
C           -4.28743698648733        0.25349398016975       -0.56449587783876
C           -4.82290573036620       -1.01972378453046       -0.52888513324289
O           -5.75915295009530       -1.50327734105771       -1.39524803397693
C           -6.32539845347868       -0.62484277240596       -2.33317089783585
C           -4.40081906758128       -1.92814619586665        0.46627582506338
O           -4.98167085823610       -3.16117156056456        0.42245484340907
C           -4.67232257626579       -4.08683853910101        1.42990776805947
C           -3.46239165487998       -1.51279005692992        1.39026385261756
C           -2.93896606561841       -0.22586880780697        1.34041310102686
C           -2.16240564371464        2.32863121371146       -1.09804703645752
C           -1.21688898525258        1.21196335327184       -1.56942742633392
C            0.04088909128370        1.12234028213287       -0.76505251990849
N            0.66035556667110       -0.08696986836961       -0.44016248844579
C            2.05930666215033       -0.18990750171344       -0.16513322476819
C            3.04949165143125       -0.63349845132074       -1.49373749108476
C            4.46597441162983       -0.51531890591460       -1.05985767093899