72
 energy: 21.627347190658 xtb: 6.6.1 (8d0f1dd)
N           -1.69799073980832        3.01321300769220        2.31164511578902
C           -1.66862460117828        2.26708535646646        1.30208424437262
C           -2.81137325237007        2.11865949054424        0.33389940450997
C           -3.33591590579387        0.69193239228866        0.39154612742769
C           -4.24277464408468        0.24472642574505       -0.57246995814574
C           -4.76238082323761       -1.03504994472295       -0.53575628238608
O           -5.65280146463287       -1.54708561905182       -1.43121352352364
C           -6.16401685511343       -0.70787838693065       -2.43477415609363
C           -4.37003481348126       -1.91966170185914        0.49456434841643
O           -4.93193167619677       -3.15943137676651        0.44697967120627
C           -4.63315018898013       -4.07333636506190        1.47097839714145
C           -3.47715504840809       -1.47407382369511        1.45065265012602
C           -2.96854660757066       -0.18099715060311        1.39881622950426
C           -2.22570312603029        2.41701707043102       -1.07262359639874
C           -1.34923154056419        1.29913823814415       -1.66738929191226
C           -0.02580832559309        1.19358666893021       -1.01288984300347
N            0.57034758242892        0.02105785613136       -0.63252111355349
C            1.97549703598054        0.00944539608976       -0.34167167830881
C            2.84531451400448       -0.29782234627521       -1.58013929205985
C            4.29682755481849       -0.32030108162965       -1.20502303541176
C            5.00669434138730        0.86344220127997       -1.06150039956758
C            6.34039294686091        0.86828845171735       -0.69098960148316
C            6.99277244089085       -0.33565386278703       -0.45302805586517
O            8.30088980045098       -0.47114785126108       -0.11218830763660
C            9.07139305341472        0.68544193713669        0.09380342977309
C            6.28171437679940       -1.52871929040260       -0.58149582543366
O            7.31798671613204       -3.20589711978498        2.91816477946604
C            6.95882118237637       -4.34715349729183        2.77075377356646
C            4.95481901446950       -1.52042579819222       -0.94844544152372
C           -0.11165550405624       -1.23813856426364       -0.74996979787206
C           -4.00179533618534        3.07812279758717        0.61985001191096
C           -4.66801092942281        2.76420653157802        1.95831526723522
C           -3.61063542835450        4.55400100321615        0.57817013541371
H           -4.54890257589975        0.91635653593090       -1.35780229520886
H           -6.68027525626275        0.16085247224876       -2.01247166384643
H           -6.87949602647885       -1.31707007419619       -2.98528651946810
H           -5.38004445307041       -0.36758122287756       -3.12034148468829
H           -4.93815053986043       -3.69602761644201        2.45283217082852
H           -5.20655786820101       -4.96894368556737        1.23649722809363
H           -3.56688425323969       -4.32352457809225        1.49382447409993
H           -3.17071377215745       -2.12104118719313        2.25742987807726
H           -2.29261193105600        0.13964781606790        2.17631952320623
H           -3.04986041841411        2.60798755450233       -1.76159155125512
H           -1.62878012925294        3.32889411643895       -1.01351420716389
H           -1.88851385343142        0.35407022927315       -1.62755983955372
H           -1.20173349490779        1.54968189942185       -2.72932993440625
H           -0.78784984698039        1.68541450456520        0.98577738642621
H            0.59555694821250        2.07056347090492       -0.97121732615377
H            2.16935020266718       -0.74187042241417        0.42955474573946
H            2.26337275908053        0.98562694803012        0.05751030698042
H            2.65748112317704        0.47174636121953       -2.33220019630846
H            2.54780019556137       -1.26328970873214       -1.99251502815008
H            4.51462700230546        1.80739681864415       -1.25207974126353
H            6.85720356901506        1.81042179672053       -0.59601582541682
H            8.68644074693944        1.28148715247176        0.92780753879748
H            9.11858022843318        1.30583440650379       -0.80801729575086
H           10.07092296850292        0.32937584621128        0.33809731623965
H            7.58641230401167       -5.11693924937545        2.29337480565643
H            5.97054687040420       -4.70698708400518        3.10189974490478
H            6.81866936894016       -2.43585793818795       -0.37011626440818
H            4.42203504283940       -2.45610840756789       -1.04852565242403
H           -0.28826058217277       -1.52414305844195       -1.79327138828920
H           -1.07474887713576       -1.19158983649371       -0.23516935693571
H            0.49481912861675       -2.00908400190911       -0.27912153084105
H           -4.74057453754257        2.90244438003811       -0.17181801844196
H           -3.96796697184013        2.94042090469186        2.76805761179663
H           -4.99957968923389        1.72928114298996        1.99627962335187
H           -5.53378354529140        3.40789282776683        2.09645364534513
H           -2.87013987184899        4.76424618937629        1.34298039167506
H           -3.21336635620193        4.83939061007048       -0.39240131029423
H           -4.49024524656954        5.16371611240762        0.77236692365599
H           -0.84681291776389        3.04000776754791        2.86965505784152
