      -----------------------------------------------------------      
     |                   =====================                   |     
     |                           x T B                           |     
     |                   =====================                   |     
     |                         S. Grimme                         |     
     |          Mulliken Center for Theoretical Chemistry        |     
     |                    University of Bonn                     |     
      -----------------------------------------------------------      

   * xtb version 6.6.1 (8d0f1dd) compiled by 'conda@1efc2f54142f' on 2023-08-01

   xtb is free software: you can redistribute it and/or modify it under
   the terms of the GNU Lesser General Public License as published by
   the Free Software Foundation, either version 3 of the License, or
   (at your option) any later version.
   
   xtb is distributed in the hope that it will be useful,
   but WITHOUT ANY WARRANTY; without even the implied warranty of
   MERCHANTABILITY or FITNESS FOR A PARTICULAR PURPOSE.  See the
   GNU Lesser General Public License for more details.
   
   Cite this work as:
   * C. Bannwarth, E. Caldeweyher, S. Ehlert, A. Hansen, P. Pracht,
     J. Seibert, S. Spicher, S. Grimme, WIREs Comput. Mol. Sci., 2020, 11,
     e01493. DOI: 10.1002/wcms.1493
   
   for GFN2-xTB:
   * C. Bannwarth, S. Ehlert and S. Grimme., J. Chem. Theory Comput., 2019,
     15, 1652-1671. DOI: 10.1021/acs.jctc.8b01176
   for GFN1-xTB:
   * S. Grimme, C. Bannwarth, P. Shushkov, J. Chem. Theory Comput., 2017,
     13, 1989-2009. DOI: 10.1021/acs.jctc.7b00118
   for GFN0-xTB:
   * P. Pracht, E. Caldeweyher, S. Ehlert, S. Grimme, ChemRxiv, 2019, preprint.
     DOI: 10.26434/chemrxiv.8326202.v1
   for GFN-FF:
   * S. Spicher and S. Grimme, Angew. Chem. Int. Ed., 2020, 59, 15665-15673.
     DOI: 10.1002/anie.202004239
   
   for ALPB and GBSA implicit solvation:
   * S. Ehlert, M. Stahn, S. Spicher, S. Grimme, J. Chem. Theory Comput.,
     2021, 17, 4250-4261. DOI: 10.1021/acs.jctc.1c00471
   
   for DFT-D4:
   * E. Caldeweyher, C. Bannwarth and S. Grimme, J. Chem. Phys., 2017,
     147, 034112. DOI: 10.1063/1.4993215
   * E. Caldeweyher, S. Ehlert, A. Hansen, H. Neugebauer, S. Spicher,
     C. Bannwarth and S. Grimme, J. Chem. Phys., 2019, 150, 154122.
     DOI: 10.1063/1.5090222
   * E. Caldeweyher, J.-M. Mewes, S. Ehlert and S. Grimme, Phys. Chem. Chem. Phys.
     2020, 22, 8499-8512. DOI: 10.1039/D0CP00502A
   
   for sTDA-xTB:
   * S. Grimme and C. Bannwarth, J. Chem. Phys., 2016, 145, 054103.
     DOI: 10.1063/1.4959605
   
   in the mass-spec context:
   * V. Asgeirsson, C. Bauer and S. Grimme, Chem. Sci., 2017, 8, 4879.
     DOI: 10.1039/c7sc00601b
   * J. Koopman and S. Grimme, ACS Omega 2019, 4, 12, 15120-15133.
     DOI: 10.1021/acsomega.9b02011
   
   for metadynamics refer to:
   * S. Grimme, J. Chem. Theory Comput., 2019, 155, 2847-2862
     DOI: 10.1021/acs.jctc.9b00143
   
   for SPH calculations refer to:
   * S. Spicher and S. Grimme, J. Chem. Theory Comput., 2021, 17, 1701-1714
     DOI: 10.1021/acs.jctc.0c01306
   
   with help from (in alphabetical order)
   P. Atkinson, C. Bannwarth, F. Bohle, G. Brandenburg, E. Caldeweyher
   M. Checinski, S. Dohm, S. Ehlert, S. Ehrlich, I. Gerasimov, C. Hölzer
   A. Katbashev, J. Koopman, C. Lavigne, S. Lehtola, F. März, M. Müller,
   F. Musil, H. Neugebauer, J. Pisarek, C. Plett, P. Pracht, F. Pultar,
   J. Seibert, P. Shushkov, S. Spicher, M. Stahn, M. Steiner, T. Strunk,
   J. Stückrath, T. Rose, and J. Unsleber
   
 * started run on 2024/06/05 at 19:58:59.324     

           -------------------------------------------------
          |                Calculation Setup                |
           -------------------------------------------------

          program call               : xtb struc.xyz --opt loose --input .xc1 --gfn2
          hostname                   : n-62-29-9
          coordinate file            : struc.xyz
          omp threads                :                     1

   ID    Z sym.   atoms
    1    6 C      1, 3, 5-7, 10, 11, 14
    2    7 N      2, 4, 9, 13
    3    8 O      8, 12
    4    1 H      15-25
constraining bond 8 15 to    5.6333300 Å, actual value:    3.6386098 Å

           -------------------------------------------------
          |                 G F N 2 - x T B                 |
           -------------------------------------------------

        Reference                      10.1021/acs.jctc.8b01176
      * Hamiltonian:
        H0-scaling (s, p, d)           1.850000    2.230000    2.230000
        zeta-weighting                 0.500000
      * Dispersion:
        s8                             2.700000
        a1                             0.520000
        a2                             5.000000
        s9                             5.000000
      * Repulsion:
        kExp                           1.500000    1.000000
        rExp                           1.000000
      * Coulomb:
        alpha                          2.000000
        third order                    shell-resolved
        anisotropic                    true
        a3                             3.000000
        a5                             4.000000
        cn-shift                       1.200000
        cn-exp                         4.000000
        max-rad                        5.000000


          ...................................................
          :                      SETUP                      :
          :.................................................:
          :  # basis functions                  67          :
          :  # atomic orbitals                  67          :
          :  # shells                           39          :
          :  # electrons                        74          :
          :  max. iterations                   250          :
          :  Hamiltonian                  GFN2-xTB          :
          :  restarted?                      false          :
          :  GBSA solvation                  false          :
          :  PC potential                    false          :
          :  electronic temp.         7500.0000000     K    :
          :  accuracy                    1.0000000          :
          :  -> integral cutoff          0.2500000E+02      :
          :  -> integral neglect         0.1000000E-07      :
          :  -> SCF convergence          0.1000000E-05 Eh   :
          :  -> wf. convergence          0.1000000E-03 e    :
          :  Broyden damping             0.4000000          :
          ...................................................

 iter      E             dE          RMSdq      gap      omega  full diag
   1    -42.5960780 -0.425961E+02  0.440E+00    3.52       0.0  T
   2    -42.7780033 -0.181925E+00  0.248E+00    3.37       1.0  T
   3    -42.7871777 -0.917437E-02  0.149E+00    3.50       1.0  T
   4    -42.7817164  0.546128E-02  0.642E-01    3.42       1.0  T
   5    -42.7911189 -0.940247E-02  0.115E-01    3.49       1.0  T
   6    -42.7912109 -0.920486E-04  0.685E-02    3.46       1.0  T
   7    -42.7912647 -0.537856E-04  0.265E-02    3.48       1.0  T
   8    -42.7912686 -0.385526E-05  0.113E-02    3.47       1.8  T
   9    -42.7912697 -0.111307E-05  0.441E-03    3.47       4.5  T
  10    -42.7912698 -0.733569E-07  0.139E-03    3.47      14.4  T
  11    -42.7912698 -0.243437E-08  0.602E-04    3.47      33.2  T
  12    -42.7912698 -0.222032E-08  0.181E-04    3.47     110.6  T

   *** convergence criteria satisfied after 12 iterations ***

         #    Occupation            Energy/Eh            Energy/eV
      -------------------------------------------------------------
         1        2.0000           -0.9116047             -24.8060
       ...           ...                  ...                  ...
        31        1.9942           -0.6212459             -16.9050
        32        1.9930           -0.6166804             -16.7807
        33        1.9876           -0.6031136             -16.4116
        34        1.9710           -0.5827317             -15.8569
        35        1.9403           -0.5651917             -15.3796
        36        1.9387           -0.5645672             -15.3627
        37        1.9155           -0.5566412             -15.1470 (HOMO)
        38        0.1907           -0.4290919             -11.6762 (LUMO)
        39        0.0640           -0.4015676             -10.9272
        40        0.0206           -0.3740689             -10.1789
        41        0.0006           -0.2879107              -7.8344
        42        0.0000           -0.2065811              -5.6214
       ...           ...                  ...                  ...
        67                          0.5613577              15.2753
      -------------------------------------------------------------
                  HL-Gap            0.1275493 Eh            3.4708 eV
             Fermi-level           -0.4825284 Eh          -13.1303 eV

 SCC (total)                   0 d,  0 h,  0 min,  0.039 sec
 SCC setup                      ...        0 min,  0.000 sec (  0.562%)
 Dispersion                     ...        0 min,  0.000 sec (  0.738%)
 classical contributions        ...        0 min,  0.000 sec (  0.187%)
 integral evaluation            ...        0 min,  0.005 sec ( 11.971%)
 iterations                     ...        0 min,  0.022 sec ( 56.894%)
 molecular gradient             ...        0 min,  0.012 sec ( 29.224%)
 printout                       ...        0 min,  0.000 sec (  0.393%)

         :::::::::::::::::::::::::::::::::::::::::::::::::::::
         ::                     SUMMARY                     ::
         :::::::::::::::::::::::::::::::::::::::::::::::::::::
         :: total energy             -49.364519724220 Eh    ::
         :: gradient norm              5.329192797944 Eh/a0 ::
         :: HOMO-LUMO gap              3.470793873671 eV    ::
         ::.................................................::
         :: SCC energy               -42.791269777655 Eh    ::
         :: -> isotropic ES            0.136760385929 Eh    ::
         :: -> anisotropic ES         -0.005341405309 Eh    ::
         :: -> anisotropic XC          0.011501049227 Eh    ::
         :: -> dispersion             -0.022650340738 Eh    ::
         :: repulsion energy           0.531105277918 Eh    ::
         :: add. restraining          -7.104469383491 Eh    ::
         :: total charge               1.000000000010 e     ::
         :::::::::::::::::::::::::::::::::::::::::::::::::::::

      ----------------------------------------------------------- 
     |                   =====================                   |
     |                        A N C O P T                        |
     |                   =====================                   |
     |               Approximate Normal Coordinate               |
     |                Rational Function Optimizer                |
      ----------------------------------------------------------- 

          ...................................................
          :                      SETUP                      :
          :.................................................:
          :   optimization level             loose          :
          :   max. optcycles                   200          :
          :   ANC micro-cycles                  20          :
          :   degrees of freedom                69          :
          :.................................................:
          :   RF solver                   davidson          :
          :   write xtbopt.log                true          :
          :   linear?                        false          :
          :   energy convergence         0.5000000E-04 Eh   :
          :   grad. convergence          0.4000000E-02 Eh/α :
          :   maxmium RF displ.          1.0000000          :
          :   Hlow (freq-cutoff)         0.1000000E-01      :
          :   Hmax (freq-cutoff)         5.0000000          :
          :   S6 in model hess.         20.0000000          :
          ...................................................

generating ANC from model Hessian ...
Using Lindh-Hessian (1995)
 Shifting diagonal of input Hessian by    1.8542859912780600     
 Lowest  eigenvalues of input Hessian
    0.010000    0.000000    0.000000    0.000000    0.000000    0.000000
    0.000000    1.857846    1.859723    1.863590    1.864937    1.865051
    1.866009    1.872821    1.873883    1.880570    1.893452    1.895610
 Highest eigenvalues
    3.987059    4.009085    4.084105    4.143972    4.352925    4.519412


........................................................................
.............................. CYCLE    1 ..............................
........................................................................

 iter      E             dE          RMSdq      gap      omega  full diag
   1    -42.7912698 -0.427913E+02  0.838E-05    3.47       0.0  T
   2    -42.7912698 -0.247127E-10  0.452E-05    3.47     442.9  T
   3    -42.7912698 -0.149214E-11  0.279E-05    3.47     715.8  T
     SCC iter.                  ...        0 min,  0.005 sec
     gradient                   ...        0 min,  0.012 sec
 * total energy  :   -49.3645197 Eh     change       -0.2401990E-09 Eh
   gradient norm :     5.3291926 Eh/α   predicted     0.0000000E+00 (-100.00%)
   displ. norm   :     0.9978330 α      lambda       -0.5311430E+01
   maximum displ.:     0.9954150 α      in ANC's #1, #59, #46, ...

........................................................................
.............................. CYCLE    2 ..............................
........................................................................

 iter      E             dE          RMSdq      gap      omega  full diag
   1    -42.7695219 -0.427695E+02  0.728E-01    3.37       0.0  T
   2    -42.7703719 -0.850005E-03  0.406E-01    3.31       1.0  T
   3    -42.7702453  0.126657E-03  0.165E-01    3.36       1.0  T
   4    -42.7705612 -0.315961E-03  0.365E-02    3.33       1.0  T
   5    -42.7705725 -0.112779E-04  0.205E-02    3.34       1.0  T
   6    -42.7705756 -0.311564E-05  0.903E-03    3.33       2.2  T
   7    -42.7705765 -0.924964E-06  0.222E-03    3.33       9.0  T
   8    -42.7705766 -0.306851E-07  0.115E-03    3.33      17.4  T
   9    -42.7705766 -0.377889E-08  0.334E-04    3.33      59.9  T
  10    -42.7705766 -0.196860E-08  0.139E-04    3.33     144.4  T
     SCC iter.                  ...        0 min,  0.014 sec
     gradient                   ...        0 min,  0.012 sec
 * total energy  :   -55.6189684 Eh     change       -0.6254449E+01 Eh
   gradient norm :     7.2163890 Eh/α   predicted    -0.5302726E+01 ( -15.22%)
   displ. norm   :     0.9986642 α      lambda       -0.7204934E+01
   maximum displ.:     0.9969611 α      in ANC's #1, #46, #43, ...

........................................................................
.............................. CYCLE    3 ..............................
........................................................................

 iter      E             dE          RMSdq      gap      omega  full diag
   1    -42.6465905 -0.426466E+02  0.822E-01    2.32       0.0  T
   2    -42.6508021 -0.421162E-02  0.535E-01    2.48       1.0  T
   3    -42.6546300 -0.382790E-02  0.273E-01    2.42       1.0  T
   4    -42.6548900 -0.260042E-03  0.125E-01    2.45       1.0  T
   5    -42.6551601 -0.270020E-03  0.411E-02    2.46       1.0  T
   6    -42.6551677 -0.764179E-05  0.195E-02    2.45       1.0  T
   7    -42.6551727 -0.502212E-05  0.499E-03    2.45       4.0  T
   8    -42.6551729 -0.212817E-06  0.244E-03    2.45       8.2  T
   9    -42.6551730 -0.696197E-07  0.126E-03    2.45      15.8  T
  10    -42.6551730 -0.233013E-07  0.413E-04    2.45      48.4  T
  11    -42.6551730 -0.129027E-08  0.158E-04    2.45     126.6  T
     SCC iter.                  ...        0 min,  0.016 sec
     gradient                   ...        0 min,  0.012 sec
 * total energy  :   -63.8012268 Eh     change       -0.8182258E+01 Eh
   gradient norm :     9.1867448 Eh/α   predicted    -0.7195319E+01 ( -12.06%)
   displ. norm   :     0.9988320 α      lambda       -0.9174232E+01
   maximum displ.:     0.9967570 α      in ANC's #1, #59, #46, ...

........................................................................
.............................. CYCLE    4 ..............................
........................................................................

 iter      E             dE          RMSdq      gap      omega  full diag
   1    -42.4154551 -0.424155E+02  0.155E+00    1.07       0.0  T
   2    -42.3638313  0.516238E-01  0.187E+00    2.46       1.0  T
   3    -42.4768721 -0.113041E+00  0.442E-01    1.61       1.0  T
   4    -42.4768192  0.529723E-04  0.218E-01    1.64       1.0  T
   5    -42.4772973 -0.478158E-03  0.807E-02    1.63       1.0  T
   6    -42.4773145 -0.172110E-04  0.423E-02    1.64       1.0  T
   7    -42.4773446 -0.301004E-04  0.149E-02    1.64       1.3  T
   8    -42.4773467 -0.202997E-05  0.678E-03    1.63       3.0  T
   9    -42.4773478 -0.114067E-05  0.328E-03    1.63       6.1  T
  10    -42.4773478 -0.311532E-07  0.182E-03    1.63      11.0  T
  11    -42.4773479 -0.569869E-07  0.526E-04    1.63      38.0  T
  12    -42.4773479 -0.408674E-08  0.250E-04    1.63      80.0  T
     SCC iter.                  ...        0 min,  0.017 sec
     gradient                   ...        0 min,  0.012 sec
 * total energy  :   -73.9529499 Eh     change       -0.1015172E+02 Eh
   gradient norm :    11.1453508 Eh/α   predicted    -0.9163524E+01 (  -9.73%)
   displ. norm   :     0.9987096 α      lambda       -0.1112852E+02
   maximum displ.:     0.9954183 α      in ANC's #1, #59, #46, ...

........................................................................
.............................. CYCLE    5 ..............................
........................................................................

 iter      E             dE          RMSdq      gap      omega  full diag
   1    -42.1033329 -0.421033E+02  0.282E+00    0.59       0.0  T
   2    -41.3800725  0.723260E+00  0.471E+00    2.16       1.0  T
   3    -42.3899246 -0.100985E+01  0.112E+00    1.27       1.0  T
   4    -42.3924259 -0.250126E-02  0.752E-01    1.22       1.0  T
   5    -42.3914048  0.102105E-02  0.448E-01    1.33       1.0  T
   6    -42.3960889 -0.468406E-02  0.109E-01    1.26       1.0  T
   7    -42.3963637 -0.274776E-03  0.386E-02    1.27       1.0  T
   8    -42.3963695 -0.582610E-05  0.200E-02    1.27       1.0  T
   9    -42.3963709 -0.137652E-05  0.532E-03    1.27       3.8  T
  10    -42.3963713 -0.410862E-06  0.270E-03    1.27       7.4  T
  11    -42.3963713 -0.344022E-07  0.142E-03    1.27      14.1  T
  12    -42.3963713 -0.414799E-07  0.318E-04    1.27      63.0  T
  13    -42.3963713 -0.133579E-08  0.157E-04    1.27     127.1  T
     SCC iter.                  ...        0 min,  0.018 sec
     gradient                   ...        0 min,  0.012 sec
 * total energy  :   -85.9141956 Eh     change       -0.1196125E+02 Eh
   gradient norm :    11.7156755 Eh/α   predicted    -0.1111417E+02 (  -7.08%)
   displ. norm   :     0.9985223 α      lambda       -0.1169526E+02
   maximum displ.:     0.9942707 α      in ANC's #1, #59, #50, ...

........................................................................
.............................. CYCLE    6 ..............................
........................................................................

 iter      E             dE          RMSdq      gap      omega  full diag
   1    -42.1829083 -0.421829E+02  0.272E+00    0.68       0.0  T
   2    -42.0166956  0.166213E+00  0.350E+00    0.51       1.0  T
   3    -42.4379167 -0.421221E+00  0.158E+00    2.10       1.0  T
   4    -42.4622635 -0.243469E-01  0.113E+00    1.89       1.0  T
   5    -42.4694319 -0.716840E-02  0.612E-01    1.91       1.0  T
   6    -42.4705316 -0.109970E-02  0.197E-01    1.85       1.0  T
   7    -42.4712400 -0.708392E-03  0.894E-02    1.88       1.0  T
   8    -42.4713092 -0.691728E-04  0.500E-02    1.88       1.0  T
   9    -42.4713399 -0.307498E-04  0.870E-03    1.89       2.3  T
  10    -42.4713418 -0.188317E-05  0.419E-03    1.89       4.8  T
  11    -42.4713420 -0.210077E-06  0.139E-03    1.89      14.4  T
  12    -42.4713420 -0.169726E-07  0.404E-04    1.89      49.5  T
  13    -42.4713420 -0.660592E-09  0.141E-04    1.89     141.8  T
     SCC iter.                  ...        0 min,  0.018 sec
     gradient                   ...        0 min,  0.012 sec
 * total energy  :   -66.5793053 Eh     change        0.1933489E+02 Eh
   gradient norm :   281.4238581 Eh/α   predicted    -0.1167799E+02 (-160.40%)
   displ. norm   :     0.9998806 α      lambda       -0.2813772E+03
   maximum displ.:     0.9893981 α      in ANC's #1, #48, #49, ...

........................................................................
.............................. CYCLE    7 ..............................
........................................................................

 iter      E             dE          RMSdq      gap      omega  full diag
   1    -42.1597648 -0.421598E+02  0.279E+00    0.62       0.0  T
   2    -42.1576197  0.214512E-02  0.280E+00    1.47       1.0  T
   3    -42.3812194 -0.223600E+00  0.100E+00    1.73       1.0  T
   4    -42.3900704 -0.885100E-02  0.640E-01    1.52       1.0  T
   5    -42.3962663 -0.619595E-02  0.255E-01    1.36       1.0  T
   6    -42.3969880 -0.721617E-03  0.734E-02    1.42       1.0  T
   7    -42.3970579 -0.699219E-04  0.305E-02    1.43       1.0  T
   8    -42.3970630 -0.513241E-05  0.152E-02    1.43       1.3  T
   9    -42.3970658 -0.274605E-05  0.791E-03    1.43       2.5  T
  10    -42.3970667 -0.910232E-06  0.241E-03    1.43       8.3  T
  11    -42.3970667 -0.264279E-07  0.123E-03    1.43      16.2  T
  12    -42.3970667 -0.242794E-07  0.531E-04    1.43      37.7  T
  13    -42.3970667 -0.510908E-08  0.120E-04    1.43     166.2  T
     SCC iter.                  ...        0 min,  0.018 sec
     gradient                   ...        0 min,  0.011 sec
 * total energy  :   -82.7170635 Eh     change       -0.1613776E+02 Eh
   gradient norm :    12.7313591 Eh/α   predicted    -0.2813564E+03 (1643.47%)
   displ. norm   :     0.3122368 α      lambda       -0.7887624E+00
   maximum displ.:     0.1286840 α      in ANC's #48, #23, #45, ...

........................................................................
.............................. CYCLE    8 ..............................
........................................................................

 iter      E             dE          RMSdq      gap      omega  full diag
   1    -42.4610029 -0.424610E+02  0.958E-01    2.13       0.0  T
   2    -42.4621928 -0.118989E-02  0.889E-01    1.46       1.0  T
   3    -42.4794372 -0.172444E-01  0.345E-01    1.87       1.0  T
   4    -42.4781940  0.124318E-02  0.280E-01    1.71       1.0  T
   5    -42.4802835 -0.208953E-02  0.107E-01    1.75       1.0  T
   6    -42.4804799 -0.196398E-03  0.223E-02    1.79       1.0  T
   7    -42.4804841 -0.413625E-05  0.110E-02    1.79       1.8  T
   8    -42.4804858 -0.176196E-05  0.485E-03    1.79       4.1  T
   9    -42.4804860 -0.154117E-06  0.206E-03    1.79       9.7  T
  10    -42.4804861 -0.827646E-07  0.835E-04    1.79      24.0  T
  11    -42.4804861 -0.333936E-08  0.325E-04    1.79      61.6  T
     SCC iter.                  ...        0 min,  0.016 sec
     gradient                   ...        0 min,  0.011 sec
 * total energy  :   -83.2832873 Eh     change       -0.5662238E+00 Eh
   gradient norm :    12.5370447 Eh/α   predicted    -0.4328299E+00 ( -23.56%)
   displ. norm   :     0.5971189 α      lambda       -0.3392046E+01
   maximum displ.:     0.2627051 α      in ANC's #1, #55, #56, ...

........................................................................
.............................. CYCLE    9 ..............................
........................................................................

 iter      E             dE          RMSdq      gap      omega  full diag
   1    -42.5279609 -0.425280E+02  0.100E+00    2.23       0.0  T
   2    -42.5254421  0.251881E-02  0.821E-01    1.92       1.0  T
   3    -42.5328490 -0.740697E-02  0.493E-01    2.16       1.0  T
   4    -42.5362975 -0.344844E-02  0.205E-01    2.15       1.0  T
   5    -42.5372372 -0.939705E-03  0.990E-02    2.14       1.0  T
   6    -42.5374411 -0.203964E-03  0.273E-02    2.15       1.0  T
   7    -42.5374467 -0.555001E-05  0.159E-02    2.15       1.3  T
   8    -42.5374483 -0.159713E-05  0.707E-03    2.15       2.8  T
   9    -42.5374492 -0.865623E-06  0.266E-03    2.15       7.5  T
  10    -42.5374492 -0.375691E-07  0.106E-03    2.15      19.0  T
  11    -42.5374492 -0.192971E-07  0.263E-04    2.15      76.1  T
  12    -42.5374492 -0.151748E-08  0.107E-04    2.15     187.7  T
     SCC iter.                  ...        0 min,  0.017 sec
     gradient                   ...        0 min,  0.011 sec
 * total energy  :   -86.1682868 Eh     change       -0.2885000E+01 Eh
   gradient norm :    11.5922127 Eh/α   predicted    -0.2300746E+01 ( -20.25%)
   displ. norm   :     0.7839413 α      lambda       -0.8748947E+01
   maximum displ.:     0.7042487 α      in ANC's #1, #50, #60, ...

........................................................................
.............................. CYCLE   10 ..............................
........................................................................

 iter      E             dE          RMSdq      gap      omega  full diag
   1    -42.3649338 -0.423649E+02  0.230E+00    0.66       0.0  T
   2    -41.6544846  0.710449E+00  0.453E+00    1.05       1.0  T
   3    -42.5299951 -0.875511E+00  0.637E-01    1.73       1.0  T
   4    -42.5340634 -0.406826E-02  0.363E-01    1.61       1.0  T
   5    -42.5340643 -0.876182E-06  0.209E-01    1.63       1.0  T
   6    -42.5352416 -0.117737E-02  0.610E-02    1.66       1.0  T
   7    -42.5353141 -0.724413E-04  0.322E-02    1.66       1.0  T
   8    -42.5353362 -0.221760E-04  0.109E-02    1.66       1.8  T
   9    -42.5353366 -0.394361E-06  0.284E-03    1.66       7.0  T
  10    -42.5353367 -0.906683E-07  0.114E-03    1.66      17.6  T
  11    -42.5353367 -0.731951E-08  0.505E-04    1.66      39.6  T
  12    -42.5353367 -0.493145E-08  0.148E-04    1.66     135.5  T
     SCC iter.                  ...        0 min,  0.017 sec
     gradient                   ...        0 min,  0.012 sec
 * total energy  :   -72.7324948 Eh     change        0.1343579E+02 Eh
   gradient norm :   188.0909903 Eh/α   predicted    -0.7062869E+01 (-152.57%)
   displ. norm   :     0.3957053 α      lambda       -0.7341340E+02
   maximum displ.:     0.2440991 α      in ANC's #1, #59, #48, ...

........................................................................
.............................. CYCLE   11 ..............................
........................................................................

 iter      E             dE          RMSdq      gap      omega  full diag
   1    -42.4851094 -0.424851E+02  0.104E+00    1.63       0.0  T
   2    -42.3868404  0.982690E-01  0.175E+00    1.30       1.0  T
   3    -42.5202493 -0.133409E+00  0.425E-01    2.01       1.0  T
   4    -42.5201784  0.708823E-04  0.278E-01    1.97       1.0  T
   5    -42.5211385 -0.960064E-03  0.125E-01    2.04       1.0  T
   6    -42.5215018 -0.363280E-03  0.226E-02    2.01       1.0  T
   7    -42.5215079 -0.613704E-05  0.113E-02    2.01       1.8  T
   8    -42.5215084 -0.551694E-06  0.419E-03    2.01       4.8  T
   9    -42.5215086 -0.137896E-06  0.145E-03    2.01      13.8  T
  10    -42.5215086 -0.133052E-07  0.600E-04    2.01      33.3  T
  11    -42.5215086 -0.274049E-08  0.223E-04    2.01      89.5  T
     SCC iter.                  ...        0 min,  0.015 sec
     gradient                   ...        0 min,  0.012 sec
 * total energy  :   -88.8629156 Eh     change       -0.1613042E+02 Eh
   gradient norm :     2.6115128 Eh/α   predicted    -0.4245434E+02 ( 163.19%)
   displ. norm   :     0.1712789 α      lambda       -0.8349284E-01
   maximum displ.:     0.0616723 α      in ANC's #57, #1, #55, ...

........................................................................
.............................. CYCLE   12 ..............................
........................................................................

 iter      E             dE          RMSdq      gap      omega  full diag
   1    -42.5214268 -0.425214E+02  0.400E-01    2.00       0.0  T
   2    -42.5157585  0.566826E-02  0.498E-01    2.06       1.0  T
   3    -42.5249092 -0.915065E-02  0.167E-01    2.08       1.0  T
   4    -42.5248785  0.306633E-04  0.111E-01    2.08       1.0  T
   5    -42.5251536 -0.275078E-03  0.272E-02    2.10       1.0  T
   6    -42.5251665 -0.128783E-04  0.125E-02    2.09       1.6  T
   7    -42.5251699 -0.344714E-05  0.494E-03    2.09       4.1  T
   8    -42.5251701 -0.135924E-06  0.193E-03    2.09      10.4  T
   9    -42.5251701 -0.392555E-07  0.677E-04    2.09      29.6  T
  10    -42.5251701 -0.956109E-08  0.277E-04    2.09      72.2  T
     SCC iter.                  ...        0 min,  0.014 sec
     gradient                   ...        0 min,  0.012 sec
 * total energy  :   -88.9036952 Eh     change       -0.4077958E-01 Eh
   gradient norm :     2.2976808 Eh/α   predicted    -0.4297235E-01 (   5.38%)
   displ. norm   :     0.1200834 α      lambda       -0.3879305E-01
   maximum displ.:     0.0374268 α      in ANC's #50, #48, #30, ...

........................................................................
.............................. CYCLE   13 ..............................
........................................................................

 iter      E             dE          RMSdq      gap      omega  full diag
   1    -42.5275110 -0.425275E+02  0.155E-01    2.10       0.0  T
   2    -42.5275277 -0.166404E-04  0.973E-02    2.10       1.0  T
   3    -42.5273675  0.160131E-03  0.845E-02    2.10       1.0  T
   4    -42.5275427 -0.175114E-03  0.437E-02    2.10       1.0  T
   5    -42.5276002 -0.575435E-04  0.108E-02    2.10       1.9  T
   6    -42.5276033 -0.312331E-05  0.439E-03    2.10       4.6  T
   7    -42.5276037 -0.344194E-06  0.204E-03    2.10       9.8  T
   8    -42.5276037 -0.481226E-07  0.793E-04    2.10      25.2  T
   9    -42.5276037 -0.614664E-08  0.310E-04    2.10      64.5  T
     SCC iter.                  ...        0 min,  0.013 sec
     gradient                   ...        0 min,  0.012 sec
 * total energy  :   -88.9350230 Eh     change       -0.3132776E-01 Eh
   gradient norm :     1.6653436 Eh/α   predicted    -0.1967631E-01 ( -37.19%)
   displ. norm   :     0.2358222 α      lambda       -0.5141985E-01
   maximum displ.:     0.0758061 α      in ANC's #34, #30, #48, ...

........................................................................
.............................. CYCLE   14 ..............................
........................................................................

 iter      E             dE          RMSdq      gap      omega  full diag
   1    -42.5321564 -0.425322E+02  0.282E-01    2.12       0.0  T
   2    -42.5320088  0.147569E-03  0.219E-01    2.10       1.0  T
   3    -42.5316001  0.408781E-03  0.161E-01    2.11       1.0  T
   4    -42.5324548 -0.854700E-03  0.831E-02    2.11       1.0  T
   5    -42.5326399 -0.185115E-03  0.167E-02    2.11       1.2  T
   6    -42.5326437 -0.380127E-05  0.689E-03    2.11       2.9  T
   7    -42.5326438 -0.125480E-06  0.393E-03    2.11       5.1  T
   8    -42.5326440 -0.175614E-06  0.171E-03    2.11      11.7  T
   9    -42.5326440 -0.398492E-07  0.874E-04    2.11      22.9  T
  10    -42.5326440 -0.197743E-07  0.240E-04    2.11      83.2  T
     SCC iter.                  ...        0 min,  0.014 sec
     gradient                   ...        0 min,  0.011 sec
 * total energy  :   -88.9688701 Eh     change       -0.3384713E-01 Eh
   gradient norm :     0.4882558 Eh/α   predicted    -0.2714015E-01 ( -19.82%)
   displ. norm   :     0.1467437 α      lambda       -0.1348435E-01
   maximum displ.:     0.0553291 α      in ANC's #34, #33, #69, ...

........................................................................
.............................. CYCLE   15 ..............................
........................................................................

 iter      E             dE          RMSdq      gap      omega  full diag
   1    -42.5351034 -0.425351E+02  0.173E-01    2.12       0.0  T
   2    -42.5345960  0.507430E-03  0.190E-01    2.09       1.0  T
   3    -42.5354451 -0.849155E-03  0.807E-02    2.11       1.0  T
   4    -42.5354378  0.734732E-05  0.499E-02    2.11       1.0  T
   5    -42.5354921 -0.543406E-04  0.206E-02    2.11       1.0  T
   6    -42.5355021 -0.994546E-05  0.652E-03    2.11       3.1  T
   7    -42.5355027 -0.610958E-06  0.341E-03    2.11       5.9  T
   8    -42.5355028 -0.115245E-06  0.106E-03    2.11      18.9  T
   9    -42.5355028 -0.719589E-08  0.471E-04    2.11      42.4  T
  10    -42.5355028 -0.377343E-08  0.166E-04    2.11     120.1  T
     SCC iter.                  ...        0 min,  0.014 sec
     gradient                   ...        0 min,  0.011 sec
 * total energy  :   -88.9782148 Eh     change       -0.9344679E-02 Eh
   gradient norm :     0.1990852 Eh/α   predicted    -0.6887617E-02 ( -26.29%)
   displ. norm   :     0.1367116 α      lambda       -0.8530125E-02
   maximum displ.:     0.0547630 α      in ANC's #34, #69, #33, ...

........................................................................
.............................. CYCLE   16 ..............................
........................................................................

 iter      E             dE          RMSdq      gap      omega  full diag
   1    -42.5384626 -0.425385E+02  0.164E-01    2.11       0.0  T
   2    -42.5377725  0.690121E-03  0.195E-01    2.08       1.0  T
   3    -42.5388693 -0.109685E-02  0.738E-02    2.10       1.0  T
   4    -42.5388325  0.367880E-04  0.514E-02    2.10       1.0  T
   5    -42.5388904 -0.578125E-04  0.221E-02    2.10       1.0  T
   6    -42.5389025 -0.121440E-04  0.609E-03    2.10       3.3  T
   7    -42.5389028 -0.332884E-06  0.342E-03    2.10       5.9  T
   8    -42.5389030 -0.137949E-06  0.108E-03    2.10      18.5  T
   9    -42.5389030 -0.127002E-07  0.387E-04    2.10      51.7  T
  10    -42.5389030 -0.228128E-08  0.157E-04    2.10     127.7  T
     SCC iter.                  ...        0 min,  0.014 sec
     gradient                   ...        0 min,  0.011 sec
 * total energy  :   -88.9851392 Eh     change       -0.6924400E-02 Eh
   gradient norm :     0.4990673 Eh/α   predicted    -0.4345044E-02 ( -37.25%)
   displ. norm   :     0.2993538 α      lambda       -0.1831671E-01
   maximum displ.:     0.1181060 α      in ANC's #34, #69, #33, ...

........................................................................
.............................. CYCLE   17 ..............................
........................................................................

 iter      E             dE          RMSdq      gap      omega  full diag
   1    -42.5428526 -0.425429E+02  0.344E-01    2.06       0.0  T
   2    -42.5388883  0.396432E-02  0.429E-01    2.00       1.0  T
   3    -42.5447674 -0.587906E-02  0.155E-01    2.06       1.0  T
   4    -42.5446154  0.151957E-03  0.110E-01    2.08       1.0  T
   5    -42.5448449 -0.229455E-03  0.510E-02    2.05       1.0  T
   6    -42.5449136 -0.687238E-04  0.143E-02    2.07       1.4  T
   7    -42.5449149 -0.129448E-05  0.879E-03    2.07       2.3  T
   8    -42.5449157 -0.808178E-06  0.345E-03    2.07       5.8  T
   9    -42.5449159 -0.227851E-06  0.927E-04    2.07      21.6  T
  10    -42.5449159 -0.101176E-07  0.431E-04    2.07      46.4  T
     SCC iter.                  ...        0 min,  0.014 sec
     gradient                   ...        0 min,  0.011 sec
 * total energy  :   -89.0002155 Eh     change       -0.1507629E-01 Eh
   gradient norm :     0.4560063 Eh/α   predicted    -0.9979172E-02 ( -33.81%)
   displ. norm   :     0.4566842 α      lambda       -0.2414445E-01
   maximum displ.:     0.1744616 α      in ANC's #34, #69, #33, ...

........................................................................
.............................. CYCLE   18 ..............................
........................................................................

 iter      E             dE          RMSdq      gap      omega  full diag
   1    -42.5412972 -0.425413E+02  0.480E-01    1.93       0.0  T
   2    -42.5309622  0.103350E-01  0.635E-01    1.93       1.0  T
   3    -42.5452129 -0.142507E-01  0.224E-01    1.97       1.0  T
   4    -42.5449935  0.219342E-03  0.151E-01    2.02       1.0  T
   5    -42.5452798 -0.286271E-03  0.807E-02    1.97       1.0  T
   6    -42.5454625 -0.182751E-03  0.249E-02    1.99       1.0  T
   7    -42.5454656 -0.303334E-05  0.172E-02    1.99       1.2  T
   8    -42.5454681 -0.252965E-05  0.827E-03    1.99       2.4  T
   9    -42.5454698 -0.173572E-05  0.184E-03    1.99      10.9  T
  10    -42.5454699 -0.359954E-07  0.881E-04    1.99      22.7  T
  11    -42.5454699 -0.841892E-08  0.268E-04    1.99      74.7  T
     SCC iter.                  ...        0 min,  0.015 sec
     gradient                   ...        0 min,  0.011 sec
 * total energy  :   -89.0052835 Eh     change       -0.5068045E-02 Eh
   gradient norm :     1.0213428 Eh/α   predicted    -0.1459016E-01 ( 187.89%)
   displ. norm   :     0.1366570 α      lambda       -0.1841046E-01
   maximum displ.:     0.0493327 α      in ANC's #69, #48, #34, ...

........................................................................
.............................. CYCLE   19 ..............................
........................................................................

 iter      E             dE          RMSdq      gap      omega  full diag
   1    -42.5499424 -0.425499E+02  0.186E-01    2.00       0.0  T
   2    -42.5489013  0.104109E-02  0.226E-01    1.95       1.0  T
   3    -42.5504000 -0.149870E-02  0.908E-02    1.99       1.0  T
   4    -42.5503642  0.357331E-04  0.718E-02    1.98       1.0  T
   5    -42.5504682 -0.103964E-03  0.266E-02    1.99       1.0  T
   6    -42.5504827 -0.145045E-04  0.112E-02    1.99       1.8  T
   7    -42.5504843 -0.162572E-05  0.756E-03    1.99       2.6  T
   8    -42.5504851 -0.744592E-06  0.226E-03    1.99       8.8  T
   9    -42.5504851 -0.614609E-07  0.983E-04    1.99      20.3  T
  10    -42.5504852 -0.159481E-07  0.318E-04    1.99      62.9  T
     SCC iter.                  ...        0 min,  0.014 sec
     gradient                   ...        0 min,  0.011 sec
 * total energy  :   -89.0139893 Eh     change       -0.8705795E-02 Eh
   gradient norm :     0.0776346 Eh/α   predicted    -0.9377011E-02 (   7.71%)
   displ. norm   :     0.1116126 α      lambda       -0.5075712E-02
   maximum displ.:     0.0363437 α      in ANC's #23, #34, #20, ...

........................................................................
.............................. CYCLE   20 ..............................
........................................................................

 iter      E             dE          RMSdq      gap      omega  full diag
   1    -42.5548088 -0.425548E+02  0.873E-02    1.95       0.0  T
   2    -42.5547549  0.538245E-04  0.668E-02    1.96       1.0  T
   3    -42.5546646  0.903116E-04  0.708E-02    1.94       1.0  T
   4    -42.5548461 -0.181462E-03  0.229E-02    1.96       1.0  T
   5    -42.5548555 -0.942660E-05  0.113E-02    1.95       1.8  T
   6    -42.5548600 -0.444178E-05  0.379E-03    1.95       5.3  T
   7    -42.5548603 -0.295520E-06  0.153E-03    1.95      13.1  T
   8    -42.5548603 -0.387801E-08  0.695E-04    1.95      28.8  T
   9    -42.5548603 -0.914182E-08  0.199E-04    1.95     100.4  T
     SCC iter.                  ...        0 min,  0.013 sec
     gradient                   ...        0 min,  0.011 sec
 * total energy  :   -89.0184941 Eh     change       -0.4504828E-02 Eh
   gradient norm :     0.0784074 Eh/α   predicted    -0.2569730E-02 ( -42.96%)
   displ. norm   :     0.3610744 α      lambda       -0.1401560E-01
   maximum displ.:     0.1280105 α      in ANC's #23, #34, #69, ...
 * RMSD in coord.:     1.1172580 α      energy gain  -0.3965397E+02 Eh

generating ANC from model Hessian ...
Using Lindh-Hessian (1995)
 Shifting diagonal of input Hessian by    8.1972374507686633E-003
 Lowest  eigenvalues of input Hessian
    0.000000    0.000000    0.000000    0.000000    0.000000    0.000000
    0.010000    0.012508    0.012998    0.014685    0.017093    0.018665
    0.019988    0.021114    0.024399    0.025821    0.026999    0.035037
 Highest eigenvalues
    2.124182    2.170915    2.219745    2.489006   28.484713   32.956000


........................................................................
.............................. CYCLE   21 ..............................
........................................................................

 iter      E             dE          RMSdq      gap      omega  full diag
   1    -42.5682923 -0.425683E+02  0.276E-01    1.83       0.0  T
   2    -42.5679951  0.297178E-03  0.192E-01    1.85       1.0  T
   3    -42.5659032  0.209189E-02  0.255E-01    1.76       1.0  T
   4    -42.5685156 -0.261242E-02  0.669E-02    1.85       1.0  T
   5    -42.5686065 -0.908940E-04  0.339E-02    1.82       1.0  T
   6    -42.5686466 -0.400698E-04  0.116E-02    1.83       1.7  T
   7    -42.5686495 -0.291430E-05  0.424E-03    1.83       4.7  T
   8    -42.5686495 -0.949084E-08  0.182E-03    1.83      11.0  T
   9    -42.5686496 -0.587716E-07  0.400E-04    1.83      50.0  T
  10    -42.5686496 -0.704432E-10  0.251E-04    1.83      79.8  T
     SCC iter.                  ...        0 min,  0.014 sec
     gradient                   ...        0 min,  0.011 sec
 * total energy  :   -89.0269315 Eh     change       -0.8437349E-02 Eh
   gradient norm :     0.0974873 Eh/α   predicted     0.0000000E+00 (-100.00%)
   displ. norm   :     0.4360902 α      lambda       -0.1395671E-01
   maximum displ.:     0.2725153 α      in ANC's #7, #12, #2, ...

........................................................................
.............................. CYCLE   22 ..............................
........................................................................

 iter      E             dE          RMSdq      gap      omega  full diag
   1    -42.5874364 -0.425874E+02  0.243E-01    1.92       0.0  T
   2    -42.5849237  0.251268E-02  0.280E-01    1.81       1.0  T
   3    -42.5877704 -0.284670E-02  0.146E-01    1.92       1.0  T
   4    -42.5883441 -0.573635E-03  0.540E-02    1.88       1.0  T
   5    -42.5883533 -0.919510E-05  0.333E-02    1.90       1.0  T
   6    -42.5883920 -0.387060E-04  0.768E-03    1.89       2.6  T
   7    -42.5883929 -0.960023E-06  0.323E-03    1.89       6.2  T
   8    -42.5883930 -0.112357E-06  0.141E-03    1.89      14.2  T
   9    -42.5883930 -0.177733E-07  0.603E-04    1.89      33.2  T
  10    -42.5883931 -0.624784E-08  0.196E-04    1.89     101.8  T
     SCC iter.                  ...        0 min,  0.014 sec
     gradient                   ...        0 min,  0.011 sec
 * total energy  :   -89.0026910 Eh     change        0.2424046E-01 Eh
   gradient norm :     2.2052000 Eh/α   predicted    -0.8337491E-02 (-134.39%)
   displ. norm   :     0.2855058 α      lambda       -0.7913101E-01
   maximum displ.:     0.1324908 α      in ANC's #7, #12, #40, ...

........................................................................
.............................. CYCLE   23 ..............................
........................................................................

 iter      E             dE          RMSdq      gap      omega  full diag
   1    -42.6048657 -0.426049E+02  0.238E-01    1.98       0.0  T
   2    -42.6032585  0.160722E-02  0.250E-01    1.88       1.0  T
   3    -42.6051290 -0.187049E-02  0.142E-01    1.98       1.0  T
   4    -42.6056730 -0.543959E-03  0.516E-02    1.94       1.0  T
   5    -42.6056632  0.974641E-05  0.313E-02    1.96       1.0  T
   6    -42.6057003 -0.370881E-04  0.642E-03    1.95       3.1  T
   7    -42.6057008 -0.495376E-06  0.333E-03    1.95       6.0  T
   8    -42.6057009 -0.124780E-06  0.141E-03    1.95      14.2  T
   9    -42.6057010 -0.273096E-07  0.498E-04    1.95      40.2  T
  10    -42.6057010 -0.269101E-08  0.223E-04    1.95      89.8  T
     SCC iter.                  ...        0 min,  0.014 sec
     gradient                   ...        0 min,  0.011 sec
 * total energy  :   -89.0411503 Eh     change       -0.3845927E-01 Eh
   gradient norm :     0.1937981 Eh/α   predicted    -0.4279110E-01 (  11.26%)
   displ. norm   :     0.5531519 α      lambda       -0.8474313E-02
   maximum displ.:     0.3133286 α      in ANC's #7, #12, #2, ...

........................................................................
.............................. CYCLE   24 ..............................
........................................................................

 iter      E             dE          RMSdq      gap      omega  full diag
   1    -42.6034757 -0.426035E+02  0.306E-01    2.03       0.0  T
   2    -42.6007001  0.277560E-02  0.365E-01    1.96       1.0  T
   3    -42.6053249 -0.462477E-02  0.132E-01    2.04       1.0  T
   4    -42.6052945  0.303713E-04  0.941E-02    1.99       1.0  T
   5    -42.6055184 -0.223893E-03  0.424E-02    2.03       1.0  T
   6    -42.6055537 -0.352391E-04  0.861E-03    2.02       2.3  T
   7    -42.6055550 -0.135055E-05  0.470E-03    2.02       4.3  T
   8    -42.6055552 -0.179833E-06  0.226E-03    2.02       8.8  T
   9    -42.6055553 -0.648341E-07  0.679E-04    2.02      29.5  T
  10    -42.6055553 -0.618471E-08  0.276E-04    2.02      72.4  T
     SCC iter.                  ...        0 min,  0.014 sec
     gradient                   ...        0 min,  0.011 sec
 * total energy  :   -89.0463551 Eh     change       -0.5204847E-02 Eh
   gradient norm :     0.0835032 Eh/α   predicted    -0.5533659E-02 (   6.32%)
   displ. norm   :     0.3559126 α      lambda       -0.7716916E-02
   maximum displ.:     0.1363329 α      in ANC's #7, #1, #5, ...

........................................................................
.............................. CYCLE   25 ..............................
........................................................................

 iter      E             dE          RMSdq      gap      omega  full diag
   1    -42.5962096 -0.425962E+02  0.370E-01    2.04       0.0  T
   2    -42.5963146 -0.104991E-03  0.348E-01    2.02       1.0  T
   3    -42.5983765 -0.206190E-02  0.161E-01    2.07       1.0  T
   4    -42.5982263  0.150239E-03  0.131E-01    2.02       1.0  T
   5    -42.5984648 -0.238492E-03  0.885E-02    2.08       1.0  T
   6    -42.5986464 -0.181664E-03  0.898E-03    2.06       2.2  T
   7    -42.5986467 -0.238817E-06  0.575E-03    2.06       3.5  T
   8    -42.5986469 -0.215699E-06  0.187E-03    2.06      10.7  T
   9    -42.5986469 -0.280870E-07  0.722E-04    2.06      27.7  T
  10    -42.5986469 -0.438499E-08  0.219E-04    2.06      91.4  T
     SCC iter.                  ...        0 min,  0.014 sec
     gradient                   ...        0 min,  0.011 sec
 * total energy  :   -89.0518119 Eh     change       -0.5456759E-02 Eh
   gradient norm :     0.1570558 Eh/α   predicted    -0.4347300E-02 ( -20.33%)
   displ. norm   :     0.5322744 α      lambda       -0.1071955E-01
   maximum displ.:     0.2005131 α      in ANC's #14, #33, #40, ...

........................................................................
.............................. CYCLE   26 ..............................
........................................................................

 iter      E             dE          RMSdq      gap      omega  full diag
   1    -42.5911800 -0.425912E+02  0.629E-01    2.02       0.0  T
   2    -42.5939161 -0.273603E-02  0.430E-01    2.09       1.0  T
   3    -42.5948266 -0.910589E-03  0.218E-01    2.08       1.0  T
   4    -42.5954354 -0.608708E-03  0.168E-01    2.09       1.0  T
   5    -42.5955836 -0.148228E-03  0.735E-02    2.12       1.0  T
   6    -42.5957604 -0.176831E-03  0.169E-02    2.10       1.2  T
   7    -42.5957657 -0.531364E-05  0.659E-03    2.10       3.0  T
   8    -42.5957659 -0.191194E-06  0.199E-03    2.10      10.0  T
   9    -42.5957660 -0.384022E-07  0.104E-03    2.10      19.2  T
  10    -42.5957660 -0.124914E-07  0.409E-04    2.10      48.8  T
  11    -42.5957660 -0.237009E-08  0.888E-05    2.10     225.3  T
     SCC iter.                  ...        0 min,  0.015 sec
     gradient                   ...        0 min,  0.011 sec
 * total energy  :   -89.0576864 Eh     change       -0.5874459E-02 Eh
   gradient norm :     0.1733272 Eh/α   predicted    -0.6878489E-02 (  17.09%)
   displ. norm   :     0.2732868 α      lambda       -0.5304811E-02
   maximum displ.:     0.1329070 α      in ANC's #7, #12, #5, ...

........................................................................
.............................. CYCLE   27 ..............................
........................................................................

 iter      E             dE          RMSdq      gap      omega  full diag
   1    -42.6079771 -0.426080E+02  0.196E-01    2.13       0.0  T
   2    -42.6079893 -0.121789E-04  0.133E-01    2.09       1.0  T
   3    -42.6077790  0.210255E-03  0.101E-01    2.14       1.0  T
   4    -42.6080685 -0.289460E-03  0.284E-02    2.10       1.0  T
   5    -42.6080873 -0.188659E-04  0.147E-02    2.11       1.4  T
   6    -42.6080924 -0.503136E-05  0.348E-03    2.11       5.7  T
   7    -42.6080925 -0.123554E-06  0.180E-03    2.11      11.1  T
   8    -42.6080925 -0.294272E-07  0.721E-04    2.11      27.7  T
   9    -42.6080925 -0.320167E-08  0.176E-04    2.11     113.6  T
     SCC iter.                  ...        0 min,  0.013 sec
     gradient                   ...        0 min,  0.011 sec
 * total energy  :   -89.0604803 Eh     change       -0.2793993E-02 Eh
   gradient norm :     0.0257681 Eh/α   predicted    -0.2850514E-02 (   2.02%)
   displ. norm   :     0.2345610 α      lambda       -0.2603165E-02
   maximum displ.:     0.1050984 α      in ANC's #13, #7, #14, ...

........................................................................
.............................. CYCLE   28 ..............................
........................................................................

 iter      E             dE          RMSdq      gap      omega  full diag
   1    -42.6154305 -0.426154E+02  0.132E-01    2.12       0.0  T
   2    -42.6154418 -0.113116E-04  0.850E-02    2.11       1.0  T
   3    -42.6153058  0.135993E-03  0.669E-02    2.14       1.0  T
   4    -42.6154656 -0.159802E-03  0.203E-02    2.11       1.0  T
   5    -42.6154760 -0.104347E-04  0.514E-03    2.12       3.9  T
   6    -42.6154762 -0.207816E-06  0.287E-03    2.12       7.0  T
   7    -42.6154763 -0.705305E-07  0.117E-03    2.12      17.1  T
   8    -42.6154763 -0.151543E-07  0.606E-04    2.12      33.0  T
   9    -42.6154763 -0.485241E-08  0.211E-04    2.12      94.9  T
     SCC iter.                  ...        0 min,  0.013 sec
     gradient                   ...        0 min,  0.011 sec
 * total energy  :   -89.0618615 Eh     change       -0.1381119E-02 Eh
   gradient norm :     0.0571474 Eh/α   predicted    -0.1373238E-02 (  -0.57%)
   displ. norm   :     0.2692351 α      lambda       -0.1382923E-02
   maximum displ.:     0.1794911 α      in ANC's #5, #1, #11, ...

........................................................................
.............................. CYCLE   29 ..............................
........................................................................

 iter      E             dE          RMSdq      gap      omega  full diag
   1    -42.6224334 -0.426224E+02  0.123E-01    2.14       0.0  T
   2    -42.6224499 -0.165045E-04  0.738E-02    2.14       1.0  T
   3    -42.6224258  0.241087E-04  0.324E-02    2.13       1.0  T
   4    -42.6224445 -0.186628E-04  0.168E-02    2.14       1.2  T
   5    -42.6224541 -0.959052E-05  0.489E-03    2.14       4.1  T
   6    -42.6224545 -0.413542E-06  0.231E-03    2.14       8.6  T
   7    -42.6224546 -0.807242E-07  0.952E-04    2.14      21.0  T
   8    -42.6224546 -0.900887E-08  0.402E-04    2.14      49.7  T
     SCC iter.                  ...        0 min,  0.011 sec
     gradient                   ...        0 min,  0.011 sec
 * total energy  :   -89.0619830 Eh     change       -0.1215831E-03 Eh
   gradient norm :     0.0683504 Eh/α   predicted    -0.7415821E-03 ( 509.94%)
   displ. norm   :     0.1616456 α      lambda       -0.1370222E-02
   maximum displ.:     0.0798208 α      in ANC's #5, #9, #11, ...

........................................................................
.............................. CYCLE   30 ..............................
........................................................................

 iter      E             dE          RMSdq      gap      omega  full diag
   1    -42.6153449 -0.426153E+02  0.150E-01    2.13       0.0  T
   2    -42.6153806 -0.357483E-04  0.928E-02    2.14       1.0  T
   3    -42.6153494  0.312001E-04  0.653E-02    2.14       1.0  T
   4    -42.6154274 -0.779887E-04  0.150E-02    2.14       1.3  T
   5    -42.6154289 -0.154097E-05  0.487E-03    2.14       4.1  T
   6    -42.6154293 -0.331066E-06  0.270E-03    2.14       7.4  T
   7    -42.6154295 -0.211078E-06  0.108E-03    2.14      18.6  T
   8    -42.6154295 -0.160826E-07  0.503E-04    2.14      39.8  T
   9    -42.6154295 -0.335231E-08  0.142E-04    2.14     140.9  T
     SCC iter.                  ...        0 min,  0.013 sec
     gradient                   ...        0 min,  0.011 sec
 * total energy  :   -89.0625565 Eh     change       -0.5734412E-03 Eh
   gradient norm :     0.0643808 Eh/α   predicted    -0.7030148E-03 (  22.60%)
   displ. norm   :     0.1389035 α      lambda       -0.1487862E-02
   maximum displ.:     0.0797160 α      in ANC's #2, #12, #47, ...

........................................................................
.............................. CYCLE   31 ..............................
........................................................................

 iter      E             dE          RMSdq      gap      omega  full diag
   1    -42.6119779 -0.426120E+02  0.112E-01    2.13       0.0  T
   2    -42.6120122 -0.342583E-04  0.626E-02    2.13       1.0  T
   3    -42.6119893  0.228438E-04  0.345E-02    2.12       1.0  T
   4    -42.6120079 -0.185739E-04  0.209E-02    2.13       1.0  T
   5    -42.6120186 -0.107316E-04  0.686E-03    2.13       2.9  T
   6    -42.6120199 -0.126713E-05  0.272E-03    2.13       7.4  T
   7    -42.6120201 -0.166594E-06  0.111E-03    2.13      18.1  T
   8    -42.6120201 -0.658545E-08  0.603E-04    2.13      33.2  T
   9    -42.6120201 -0.473102E-08  0.135E-04    2.13     147.9  T
     SCC iter.                  ...        0 min,  0.013 sec
     gradient                   ...        0 min,  0.011 sec
 * total energy  :   -89.0628212 Eh     change       -0.2646821E-03 Eh
   gradient norm :     0.0236339 Eh/α   predicted    -0.7582898E-03 ( 186.49%)
   displ. norm   :     0.1390412 α      lambda       -0.8527996E-03
   maximum displ.:     0.0934651 α      in ANC's #5, #10, #11, ...

........................................................................
.............................. CYCLE   32 ..............................
........................................................................

 iter      E             dE          RMSdq      gap      omega  full diag
   1    -42.6147583 -0.426148E+02  0.851E-02    2.14       0.0  T
   2    -42.6147625 -0.416126E-05  0.479E-02    2.14       1.0  T
   3    -42.6147427  0.197916E-04  0.346E-02    2.14       1.0  T
   4    -42.6147674 -0.246596E-04  0.469E-03    2.14       4.3  T
   5    -42.6147676 -0.231601E-06  0.181E-03    2.14      11.0  T
   6    -42.6147676  0.273509E-07  0.142E-03    2.14      14.1  T
   7    -42.6147676 -0.638534E-07  0.583E-04    2.14      34.3  T
   8    -42.6147677 -0.386141E-08  0.174E-04    2.14     114.9  T
     SCC iter.                  ...        0 min,  0.011 sec
     gradient                   ...        0 min,  0.011 sec
 * total energy  :   -89.0634331 Eh     change       -0.6119155E-03 Eh
   gradient norm :     0.0089253 Eh/α   predicted    -0.4346478E-03 ( -28.97%)
   displ. norm   :     0.2429484 α      lambda       -0.7893087E-03
   maximum displ.:     0.1542535 α      in ANC's #5, #11, #2, ...

........................................................................
.............................. CYCLE   33 ..............................
........................................................................

 iter      E             dE          RMSdq      gap      omega  full diag
   1    -42.6169805 -0.426170E+02  0.137E-01    2.15       0.0  T
   2    -42.6169944 -0.139949E-04  0.790E-02    2.15       1.0  T
   3    -42.6169408  0.536820E-04  0.599E-02    2.14       1.0  T
   4    -42.6170108 -0.700075E-04  0.110E-02    2.15       1.8  T
   5    -42.6170107  0.119797E-06  0.850E-03    2.15       2.4  T
   6    -42.6170132 -0.256180E-05  0.209E-03    2.15       9.6  T
   7    -42.6170133 -0.845082E-07  0.111E-03    2.15      18.0  T
   8    -42.6170133 -0.757277E-08  0.420E-04    2.15      47.7  T
   9    -42.6170133 -0.336167E-08  0.117E-04    2.15     170.5  T
     SCC iter.                  ...        0 min,  0.013 sec
     gradient                   ...        0 min,  0.011 sec
 * total energy  :   -89.0639969 Eh     change       -0.5638576E-03 Eh
   gradient norm :     0.0257817 Eh/α   predicted    -0.4179521E-03 ( -25.88%)
   displ. norm   :     0.3294867 α      lambda       -0.8616855E-03
   maximum displ.:     0.2043218 α      in ANC's #5, #2, #11, ...

........................................................................
.............................. CYCLE   34 ..............................
........................................................................

 iter      E             dE          RMSdq      gap      omega  full diag
   1    -42.6168017 -0.426168E+02  0.177E-01    2.16       0.0  T
   2    -42.6168052 -0.348617E-05  0.102E-01    2.16       1.0  T
   3    -42.6167070  0.982284E-04  0.748E-02    2.15       1.0  T
   4    -42.6168232 -0.116270E-03  0.632E-03    2.16       3.2  T
   5    -42.6168234 -0.136119E-06  0.410E-03    2.16       4.9  T
   6    -42.6168236 -0.184126E-06  0.208E-03    2.16       9.6  T
   7    -42.6168237 -0.128095E-06  0.742E-04    2.16      27.0  T
   8    -42.6168237 -0.127972E-07  0.275E-04    2.16      72.7  T
     SCC iter.                  ...        0 min,  0.011 sec
     gradient                   ...        0 min,  0.011 sec
 * total energy  :   -89.0645283 Eh     change       -0.5313315E-03 Eh
   gradient norm :     0.0252051 Eh/α   predicted    -0.4776163E-03 ( -10.11%)
   displ. norm   :     0.2552813 α      lambda       -0.8688475E-03
   maximum displ.:     0.1337540 α      in ANC's #2, #11, #5, ...

........................................................................
.............................. CYCLE   35 ..............................
........................................................................

 iter      E             dE          RMSdq      gap      omega  full diag
   1    -42.6184485 -0.426184E+02  0.113E-01    2.16       0.0  T
   2    -42.6184703 -0.217389E-04  0.656E-02    2.16       1.0  T
   3    -42.6184463  0.239456E-04  0.406E-02    2.17       1.0  T
   4    -42.6184777 -0.314340E-04  0.134E-02    2.16       1.5  T
   5    -42.6184796 -0.182990E-05  0.644E-03    2.17       3.1  T
   6    -42.6184806 -0.100500E-05  0.284E-03    2.16       7.0  T
   7    -42.6184808 -0.212399E-06  0.126E-03    2.16      15.8  T
   8    -42.6184808 -0.128375E-07  0.595E-04    2.16      33.6  T
   9    -42.6184808 -0.684513E-08  0.131E-04    2.16     153.1  T
     SCC iter.                  ...        0 min,  0.013 sec
     gradient                   ...        0 min,  0.011 sec
 * total energy  :   -89.0648776 Eh     change       -0.3493564E-03 Eh
   gradient norm :     0.0276637 Eh/α   predicted    -0.4627446E-03 (  32.46%)
   displ. norm   :     0.1040798 α      lambda       -0.4438559E-03
   maximum displ.:     0.0684496 α      in ANC's #2, #1, #5, ...

........................................................................
.............................. CYCLE   36 ..............................
........................................................................

 iter      E             dE          RMSdq      gap      omega  full diag
   1    -42.6181531 -0.426182E+02  0.707E-02    2.17       0.0  T
   2    -42.6181528  0.291199E-06  0.448E-02    2.15       1.0  T
   3    -42.6181297  0.230828E-04  0.407E-02    2.18       1.0  T
   4    -42.6181758 -0.460216E-04  0.848E-03    2.16       2.4  T
   5    -42.6181759 -0.169869E-06  0.514E-03    2.16       3.9  T
   6    -42.6181764 -0.517634E-06  0.117E-03    2.16      17.1  T
   7    -42.6181765 -0.212041E-07  0.738E-04    2.16      27.1  T
   8    -42.6181765 -0.454142E-08  0.188E-04    2.16     106.6  T
     SCC iter.                  ...        0 min,  0.011 sec
     gradient                   ...        0 min,  0.011 sec
 * total energy  :   -89.0651397 Eh     change       -0.2621133E-03 Eh
   gradient norm :     0.0253076 Eh/α   predicted    -0.2243319E-03 ( -14.41%)
   displ. norm   :     0.0766258 α      lambda       -0.2069912E-03
   maximum displ.:     0.0351226 α      in ANC's #2, #1, #4, ...

........................................................................
.............................. CYCLE   37 ..............................
........................................................................

 iter      E             dE          RMSdq      gap      omega  full diag
   1    -42.6186827 -0.426187E+02  0.330E-02    2.18       0.0  T
   2    -42.6186739  0.875889E-05  0.280E-02    2.16       1.0  T
   3    -42.6186905 -0.165744E-04  0.157E-02    2.17       1.3  T
   4    -42.6186940 -0.353518E-05  0.298E-03    2.17       6.7  T
   5    -42.6186942 -0.160304E-06  0.132E-03    2.17      15.1  T
   6    -42.6186942 -0.422233E-07  0.560E-04    2.17      35.7  T
   7    -42.6186942  0.368566E-09  0.302E-04    2.17      66.1  T
     SCC iter.                  ...        0 min,  0.010 sec
     gradient                   ...        0 min,  0.011 sec
 * total energy  :   -89.0653064 Eh     change       -0.1666151E-03 Eh
   gradient norm :     0.0355192 Eh/α   predicted    -0.1041088E-03 ( -37.52%)
   displ. norm   :     0.2266003 α      lambda       -0.4275126E-03
   maximum displ.:     0.1166069 α      in ANC's #2, #1, #11, ...

........................................................................
.............................. CYCLE   38 ..............................
........................................................................

 iter      E             dE          RMSdq      gap      omega  full diag
   1    -42.6176894 -0.426177E+02  0.102E-01    2.19       0.0  T
   2    -42.6176516  0.378754E-04  0.688E-02    2.17       1.0  T
   3    -42.6176621 -0.105085E-04  0.590E-02    2.20       1.0  T
   4    -42.6177413 -0.792600E-04  0.106E-02    2.18       1.9  T
   5    -42.6177441 -0.278772E-05  0.351E-03    2.18       5.7  T
   6    -42.6177443 -0.180762E-06  0.135E-03    2.18      14.8  T
   7    -42.6177443 -0.942892E-08  0.665E-04    2.18      30.1  T
   8    -42.6177443 -0.357279E-08  0.267E-04    2.18      74.9  T
     SCC iter.                  ...        0 min,  0.011 sec
     gradient                   ...        0 min,  0.011 sec
 * total energy  :   -89.0655677 Eh     change       -0.2613348E-03 Eh
   gradient norm :     0.0144311 Eh/α   predicted    -0.2247336E-03 ( -14.01%)
   displ. norm   :     0.1476314 α      lambda       -0.3371549E-03
   maximum displ.:     0.0743091 α      in ANC's #4, #10, #6, ...

........................................................................
.............................. CYCLE   39 ..............................
........................................................................

 iter      E             dE          RMSdq      gap      omega  full diag
   1    -42.6197760 -0.426198E+02  0.749E-02    2.20       0.0  T
   2    -42.6197728  0.325761E-05  0.528E-02    2.18       1.0  T
   3    -42.6197629  0.986948E-05  0.384E-02    2.20       1.0  T
   4    -42.6197990 -0.361221E-04  0.109E-02    2.19       1.8  T
   5    -42.6198013 -0.223911E-05  0.670E-03    2.19       3.0  T
   6    -42.6198022 -0.920783E-06  0.141E-03    2.19      14.2  T
   7    -42.6198022 -0.993195E-08  0.860E-04    2.19      23.3  T
   8    -42.6198022 -0.718673E-08  0.362E-04    2.19      55.2  T
     SCC iter.                  ...        0 min,  0.011 sec
     gradient                   ...        0 min,  0.011 sec
 * total energy  :   -89.0656641 Eh     change       -0.9636956E-04 Eh
   gradient norm :     0.0454318 Eh/α   predicted    -0.1722550E-03 (  78.74%)
   displ. norm   :     0.1176604 α      lambda       -0.2637072E-03
   maximum displ.:     0.0737234 α      in ANC's #5, #1, #11, ...

........................................................................
.............................. CYCLE   40 ..............................
........................................................................

 iter      E             dE          RMSdq      gap      omega  full diag
   1    -42.6189171 -0.426189E+02  0.651E-02    2.19       0.0  T
   2    -42.6189183 -0.118668E-05  0.367E-02    2.19       1.0  T
   3    -42.6189035  0.148075E-04  0.311E-02    2.20       1.0  T
   4    -42.6189224 -0.189101E-04  0.418E-03    2.19       4.8  T
   5    -42.6189228 -0.367772E-06  0.257E-03    2.19       7.8  T
   6    -42.6189230 -0.168308E-06  0.965E-04    2.19      20.7  T
   7    -42.6189230 -0.633880E-08  0.485E-04    2.19      41.2  T
     SCC iter.                  ...        0 min,  0.010 sec
     gradient                   ...        0 min,  0.011 sec
 * total energy  :   -89.0658358 Eh     change       -0.1716993E-03 Eh
   gradient norm :     0.0116859 Eh/α   predicted    -0.1336857E-03 ( -22.14%)
   displ. norm   :     0.0755041 α      lambda       -0.1546753E-03
   maximum displ.:     0.0405949 α      in ANC's #1, #5, #2, ...

........................................................................
.............................. CYCLE   41 ..............................
........................................................................

 iter      E             dE          RMSdq      gap      omega  full diag
   1    -42.6193134 -0.426193E+02  0.415E-02    2.19       0.0  T
   2    -42.6193136 -0.146751E-06  0.254E-02    2.19       1.0  T
   3    -42.6193020  0.115479E-04  0.223E-02    2.18       1.0  T
   4    -42.6193160 -0.139867E-04  0.417E-03    2.19       4.8  T
   5    -42.6193165 -0.453803E-06  0.154E-03    2.19      13.0  T
   6    -42.6193165 -0.586219E-07  0.705E-04    2.19      28.4  T
   7    -42.6193165 -0.386756E-08  0.315E-04    2.19      63.6  T
     SCC iter.                  ...        0 min,  0.010 sec
     gradient                   ...        0 min,  0.011 sec
 * total energy  :   -89.0659488 Eh     change       -0.1129991E-03 Eh
   gradient norm :     0.0118573 Eh/α   predicted    -0.7778124E-04 ( -31.17%)
   displ. norm   :     0.1018818 α      lambda       -0.1559561E-03
   maximum displ.:     0.0687941 α      in ANC's #1, #5, #2, ...

........................................................................
.............................. CYCLE   42 ..............................
........................................................................

 iter      E             dE          RMSdq      gap      omega  full diag
   1    -42.6195330 -0.426195E+02  0.470E-02    2.18       0.0  T
   2    -42.6195326  0.396975E-06  0.285E-02    2.19       1.0  T
   3    -42.6195204  0.121569E-04  0.246E-02    2.18       1.0  T
   4    -42.6195352 -0.147162E-04  0.390E-03    2.19       5.1  T
   5    -42.6195357 -0.516801E-06  0.130E-03    2.19      15.4  T
   6    -42.6195357 -0.338751E-07  0.577E-04    2.19      34.7  T
   7    -42.6195357 -0.324434E-09  0.302E-04    2.19      66.3  T
     SCC iter.                  ...        0 min,  0.010 sec
     gradient                   ...        0 min,  0.011 sec
 * total energy  :   -89.0660504 Eh     change       -0.1016593E-03 Eh
   gradient norm :     0.0375138 Eh/α   predicted    -0.7878842E-04 ( -22.50%)
   displ. norm   :     0.0883041 α      lambda       -0.1259797E-03
   maximum displ.:     0.0632691 α      in ANC's #2, #1, #3, ...
 * RMSD in coord.:     0.5083272 α      energy gain  -0.4755630E-01 Eh

generating ANC from model Hessian ...
Using Lindh-Hessian (1995)
 Shifting diagonal of input Hessian by    7.4913873711337474E-003
 Lowest  eigenvalues of input Hessian
    0.000000    0.000000    0.000000    0.000000    0.000000    0.000000
    0.010000    0.012468    0.014103    0.014761    0.017851    0.019508
    0.021327    0.024965    0.026713    0.035414    0.041039    0.044112
 Highest eigenvalues
    2.168926    2.197997    2.259474    2.495921   29.041803   34.696723


........................................................................
.............................. CYCLE   43 ..............................
........................................................................

 iter      E             dE          RMSdq      gap      omega  full diag
   1    -42.6199105 -0.426199E+02  0.402E-02    2.18       0.0  T
   2    -42.6199033  0.718787E-05  0.286E-02    2.19       1.0  T
   3    -42.6199078 -0.452957E-05  0.230E-02    2.18       1.0  T
   4    -42.6199193 -0.115071E-04  0.272E-03    2.18       7.4  T
   5    -42.6199195 -0.160108E-06  0.124E-03    2.18      16.2  T
   6    -42.6199195 -0.181488E-07  0.694E-04    2.18      28.8  T
   7    -42.6199195 -0.244941E-08  0.323E-04    2.18      61.9  T
     SCC iter.                  ...        0 min,  0.010 sec
     gradient                   ...        0 min,  0.011 sec
 * total energy  :   -89.0661283 Eh     change       -0.7790949E-04 Eh
   gradient norm :     0.0275641 Eh/α   predicted     0.0000000E+00 (-100.00%)
   displ. norm   :     0.0277940 α      lambda       -0.3903613E-03
   maximum displ.:     0.0122109 α      in ANC's #3, #64, #1, ...

........................................................................
.............................. CYCLE   44 ..............................
........................................................................

 iter      E             dE          RMSdq      gap      omega  full diag
   1    -42.6192733 -0.426193E+02  0.236E-02    2.18       0.0  T
   2    -42.6192738 -0.469737E-06  0.143E-02    2.18       1.4  T
   3    -42.6192734  0.397323E-06  0.110E-02    2.18       1.8  T
   4    -42.6192753 -0.193512E-05  0.178E-03    2.18      11.3  T
   5    -42.6192753 -0.579968E-08  0.859E-04    2.18      23.3  T
   6    -42.6192753 -0.674763E-08  0.605E-04    2.18      33.1  T
     SCC iter.                  ...        0 min,  0.009 sec
     gradient                   ...        0 min,  0.011 sec
 * total energy  :   -89.0591941 Eh     change        0.6934210E-02 Eh
   gradient norm :     1.0932316 Eh/α   predicted    -0.1953316E-03 (-102.82%)
   displ. norm   :     0.0163314 α      lambda       -0.1417251E-01
   maximum displ.:     0.0094126 α      in ANC's #64, #40, #47, ...

........................................................................
.............................. CYCLE   45 ..............................
........................................................................

 iter      E             dE          RMSdq      gap      omega  full diag
   1    -42.6197313 -0.426197E+02  0.165E-02    2.19       0.0  T
   2    -42.6197314 -0.378837E-07  0.999E-03    2.18       2.0  T
   3    -42.6197295  0.185559E-05  0.945E-03    2.19       2.1  T
   4    -42.6197323 -0.275686E-05  0.190E-03    2.18      10.5  T
   5    -42.6197323 -0.745370E-08  0.128E-03    2.19      15.6  T
   6    -42.6197323 -0.402257E-07  0.323E-04    2.19      61.9  T
   7    -42.6197323  0.806466E-10  0.174E-04    2.19     114.7  T
     SCC iter.                  ...        0 min,  0.010 sec
     gradient                   ...        0 min,  0.011 sec
 * total energy  :   -89.0662061 Eh     change       -0.7011965E-02 Eh
   gradient norm :     0.0102948 Eh/α   predicted    -0.7088175E-02 (   1.09%)
   displ. norm   :     0.0169842 α      lambda       -0.4084783E-04
   maximum displ.:     0.0094270 α      in ANC's #3, #1, #4, ...

........................................................................
.............................. CYCLE   46 ..............................
........................................................................

 iter      E             dE          RMSdq      gap      omega  full diag
   1    -42.6197160 -0.426197E+02  0.106E-02    2.19       0.0  T
   2    -42.6197159  0.632101E-08  0.659E-03    2.19       3.0  T
   3    -42.6197156  0.358972E-06  0.552E-03    2.19       3.6  T
   4    -42.6197162 -0.587809E-06  0.120E-03    2.19      16.7  T
   5    -42.6197162 -0.426138E-07  0.498E-04    2.19      40.2  T
   6    -42.6197162 -0.703391E-08  0.185E-04    2.19     108.3  T
     SCC iter.                  ...        0 min,  0.009 sec
     gradient                   ...        0 min,  0.011 sec
 * total energy  :   -89.0662428 Eh     change       -0.3673689E-04 Eh
   gradient norm :     0.0096621 Eh/α   predicted    -0.2055663E-04 ( -44.04%)
   displ. norm   :     0.0651185 α      lambda       -0.1605995E-03
   maximum displ.:     0.0311883 α      in ANC's #3, #1, #9, ...

........................................................................
.............................. CYCLE   47 ..............................
........................................................................

 iter      E             dE          RMSdq      gap      omega  full diag
   1    -42.6196986 -0.426197E+02  0.423E-02    2.19       0.0  T
   2    -42.6196994 -0.801568E-06  0.255E-02    2.19       1.0  T
   3    -42.6196947  0.468493E-05  0.200E-02    2.19       1.0  T
   4    -42.6197017 -0.701853E-05  0.343E-03    2.19       5.8  T
   5    -42.6197019 -0.232761E-06  0.182E-03    2.19      11.0  T
   6    -42.6197020 -0.103300E-06  0.810E-04    2.19      24.7  T
   7    -42.6197021 -0.672198E-08  0.368E-04    2.19      54.4  T
     SCC iter.                  ...        0 min,  0.010 sec
     gradient                   ...        0 min,  0.011 sec
 * total energy  :   -89.0663386 Eh     change       -0.9577755E-04 Eh
   gradient norm :     0.0195689 Eh/α   predicted    -0.8064729E-04 ( -15.80%)
   displ. norm   :     0.0192333 α      lambda       -0.4350167E-04
   maximum displ.:     0.0108384 α      in ANC's #1, #69, #19, ...

........................................................................
.............................. CYCLE   48 ..............................
........................................................................

 iter      E             dE          RMSdq      gap      omega  full diag
   1    -42.6198314 -0.426198E+02  0.131E-02    2.19       0.0  T
   2    -42.6198314  0.423129E-08  0.834E-03    2.19       2.4  T
   3    -42.6198306  0.784703E-06  0.688E-03    2.19       2.9  T
   4    -42.6198317 -0.114575E-05  0.176E-03    2.19      11.3  T
   5    -42.6198318 -0.875097E-07  0.613E-04    2.19      32.6  T
   6    -42.6198318 -0.632893E-08  0.260E-04    2.19      76.9  T
     SCC iter.                  ...        0 min,  0.009 sec
     gradient                   ...        0 min,  0.011 sec
 * total energy  :   -89.0663766 Eh     change       -0.3803847E-04 Eh
   gradient norm :     0.0193651 Eh/α   predicted    -0.2178173E-04 ( -42.74%)
   displ. norm   :     0.0717368 α      lambda       -0.1834101E-03
   maximum displ.:     0.0361758 α      in ANC's #1, #4, #69, ...

........................................................................
.............................. CYCLE   49 ..............................
........................................................................

 iter      E             dE          RMSdq      gap      omega  full diag
   1    -42.6203980 -0.426204E+02  0.449E-02    2.18       0.0  T
   2    -42.6203950  0.300456E-05  0.306E-02    2.19       1.0  T
   3    -42.6203867  0.831029E-05  0.261E-02    2.17       1.0  T
   4    -42.6204045 -0.177904E-04  0.549E-03    2.18       3.6  T
   5    -42.6204052 -0.699735E-06  0.189E-03    2.18      10.6  T
   6    -42.6204052 -0.317280E-07  0.932E-04    2.18      21.5  T
   7    -42.6204052 -0.858726E-08  0.400E-04    2.18      50.1  T
     SCC iter.                  ...        0 min,  0.010 sec
     gradient                   ...        0 min,  0.011 sec
 * total energy  :   -89.0664932 Eh     change       -0.1165462E-03 Eh
   gradient norm :     0.0574336 Eh/α   predicted    -0.9220354E-04 ( -20.89%)
   displ. norm   :     0.0493016 α      lambda       -0.1160597E-03
   maximum displ.:     0.0286308 α      in ANC's #3, #4, #1, ...

........................................................................
.............................. CYCLE   50 ..............................
........................................................................

 iter      E             dE          RMSdq      gap      omega  full diag
   1    -42.6206823 -0.426207E+02  0.268E-02    2.17       0.0  T
   2    -42.6206802  0.201328E-05  0.187E-02    2.18       1.1  T
   3    -42.6206784  0.185989E-05  0.160E-02    2.17       1.2  T
   4    -42.6206850 -0.666128E-05  0.143E-03    2.18      14.0  T
   5    -42.6206851 -0.148857E-07  0.810E-04    2.18      24.7  T
   6    -42.6206851 -0.451731E-08  0.491E-04    2.18      40.7  T
     SCC iter.                  ...        0 min,  0.009 sec
     gradient                   ...        0 min,  0.011 sec
 * total energy  :   -89.0665839 Eh     change       -0.9075737E-04 Eh
   gradient norm :     0.0382129 Eh/α   predicted    -0.5820858E-04 ( -35.86%)
   displ. norm   :     0.0724142 α      lambda       -0.1441122E-03
   maximum displ.:     0.0373680 α      in ANC's #3, #4, #7, ...

........................................................................
.............................. CYCLE   51 ..............................
........................................................................

 iter      E             dE          RMSdq      gap      omega  full diag
   1    -42.6206783 -0.426207E+02  0.410E-02    2.17       0.0  T
   2    -42.6206752  0.314634E-05  0.269E-02    2.18       1.0  T
   3    -42.6206639  0.112936E-04  0.256E-02    2.16       1.0  T
   4    -42.6206828 -0.189283E-04  0.177E-03    2.17      11.3  T
   5    -42.6206828 -0.227267E-07  0.951E-04    2.17      21.0  T
   6    -42.6206829 -0.340460E-08  0.551E-04    2.17      36.3  T
     SCC iter.                  ...        0 min,  0.009 sec
     gradient                   ...        0 min,  0.011 sec
 * total energy  :   -89.0666893 Eh     change       -0.1053868E-03 Eh
   gradient norm :     0.0269076 Eh/α   predicted    -0.7243990E-04 ( -31.26%)
   displ. norm   :     0.0726926 α      lambda       -0.1150938E-03
   maximum displ.:     0.0305846 α      in ANC's #7, #10, #4, ...

........................................................................
[...]
H           -1.89712026138629        2.86624565773632       -0.77216828994670
H           -3.17791894509730        1.82069213509100       -0.11570337104198
H           -2.08797541042489        2.68511268836123        0.98746656815400
H           -1.26315406524804       -3.24360345966165        0.72136551926164
H           -1.20358494413567       -3.17186456486050       -1.06301662784028
H           -2.62748749037152       -2.56566177706838       -0.19105473618235
H            1.28893085124189       -3.03308317369764       -0.09087960292665

 Bond Distances (Angstroems)
 ---------------------------
C1-N2=1.3448         C1-O8=1.3506         C1-H16=1.0791        N2-C1=1.3448         N2-C3=1.3665         N2-C6=1.3970         
C3-N2=1.3665         C3-N4=1.3696         C3-H18=1.0666        N4-C3=1.3696         N4-C5=1.3516         N4-H25=1.0074        
C5-N4=1.3516         C5-C6=1.4082         C5-N13=1.3565        C6-N2=1.3970         C6-C5=1.4082         C6-C7=1.3824         
C7-C6=1.3824         C7-N9=1.3711         C7-H17=1.0733        O8-C1=1.3506         O8-H15=0.3787        N9-C7=1.3711         
N9-C10=1.4496        N9-C11=1.3884        C10-N9=1.4496        C10-H19=1.0897       C10-H20=1.0888       C10-H21=1.0911       
C11-N9=1.3884        C11-O12=1.2053       C11-N13=1.4066       O12-C11=1.2053       N13-C5=1.3565        N13-C11=1.4066       
N13-C14=1.4468       C14-N13=1.4468       C14-H22=1.0910       C14-H23=1.0909       C14-H24=1.0892       H15-O8=0.3787        
H16-C1=1.0791        H17-C7=1.0733        H18-C3=1.0666        H19-C10=1.0897       H20-C10=1.0888       H21-C10=1.0911       
H22-C14=1.0910       H23-C14=1.0909       H24-C14=1.0892       H25-N4=1.0074        
 C  H  Rav=1.0844 sigma=0.0086  Rmin=1.0666  Rmax=1.0911     9
 C  C  Rav=1.3953 sigma=0.0129  Rmin=1.3824  Rmax=1.4082     2
 N  H  Rav=1.0074 sigma=0.0000  Rmin=1.0074  Rmax=1.0074     1
 N  C  Rav=1.3862 sigma=0.0343  Rmin=1.3448  Rmax=1.4496    11
 O  H  Rav=0.3787 sigma=0.0000  Rmin=0.3787  Rmax=0.3787     1
 O  C  Rav=1.2779 sigma=0.0726  Rmin=1.2053  Rmax=1.3506     2

 selected bond angles (degree)
 --------------------
O8-C1-N2=120.84                H16-C1-N2=118.07               H16-C1-O8=121.08               C3-N2-C1=125.87                
C6-N2-C1=127.08                C6-N2-C3=107.05                N4-C3-N2=109.57                H18-C3-N2=125.30               
H18-C3-N4=125.13               C5-N4-C3=108.36                H25-N4-C3=124.33               H25-N4-C5=127.31               
C6-C5-N4=108.16                N13-C5-N4=129.73               N13-C5-C6=122.11               C5-C6-N2=106.86                
C7-C6-N2=133.84                C7-C6-C5=119.30                N9-C7-C6=117.37                H17-C7-C6=124.94               
H17-C7-N9=117.69               H15-O8-C1=129.11               C10-N9-C7=118.07               C11-N9-C7=124.89               
C11-N9-C10=117.04              H19-C10-N9=110.06              H20-C10-N9=108.56              H20-C10-H19=109.49             
H21-C10-N9=110.31              H21-C10-H19=109.34             H21-C10-H20=109.06             

 selected dihedral angles (degree)
 ---------------------------------
C3-N2-C1-O8=181.15            C3-N2-C1-H16=359.93           C6-N2-C1-O8=  1.46            C6-N2-C1-H16=180.24           
N4-C3-N2-C1=180.40            N4-C3-N2-C6=  0.14            H18-C3-N2-C1=359.70           H18-C3-N2-C6=179.43           
C5-N4-C3-N2=359.83            C5-N4-C3-H18=180.53           H25-N4-C3-N2=180.27           H25-N4-C3-H18=  0.97          
C6-C5-N4-C3=  0.14            C6-C5-N4-H25=179.68           N13-C5-N4-C3=180.14           N13-C5-N4-H25=359.68          
C5-C6-N2-C1=179.68            C5-C6-N2-C3=359.95            C7-C6-N2-C1=359.70            C7-C6-N2-C3=179.97            
N2-C6-C5-N4=359.95            N2-C6-C5-N13=179.95           C7-C6-C5-N4=179.93            C7-C6-C5-N13=359.93           
N9-C7-C6-N2=179.88            N9-C7-C6-C5=359.91            H17-C7-C6-N2=  0.00           H17-C7-C6-C5=180.04           
H15-O8-C1-N2=176.67           H15-O8-C1-H16=357.93          C10-N9-C7-C6=179.85           C10-N9-C7-H17=359.73          
C11-N9-C7-C6=  0.65           C11-N9-C7-H17=180.52          H19-C10-N9-C7= 54.97          H19-C10-N9-C11=234.23         
H20-C10-N9-C7=174.78          H20-C10-N9-C11=354.05         H21-C10-N9-C7=294.23          H21-C10-N9-C11=113.50         
           -------------------------------------------------
          |                Final Singlepoint                |
           -------------------------------------------------

          ...................................................
          :                      SETUP                      :
          :.................................................:
          :  # basis functions                  67          :
          :  # atomic orbitals                  67          :
          :  # shells                           39          :
          :  # electrons                        74          :
          :  max. iterations                   250          :
          :  Hamiltonian                  GFN2-xTB          :
          :  restarted?                      false          :
          :  GBSA solvation                  false          :
          :  PC potential                    false          :
          :  electronic temp.         7500.0000000     K    :
          :  accuracy                    1.0000000          :
          :  -> integral cutoff          0.2500000E+02      :
          :  -> integral neglect         0.1000000E-07      :
          :  -> SCF convergence          0.1000000E-05 Eh   :
          :  -> wf. convergence          0.1000000E-03 e    :
          :  Broyden damping             0.4000000          :
          ...................................................

 iter      E             dE          RMSdq      gap      omega  full diag
   1    -42.7676156 -0.427676E+02  0.101E-04    1.19       0.0  T
   2    -42.7676156 -0.498233E-10  0.695E-05    1.19     287.6  T
   3    -42.7676156 -0.655405E-10  0.407E-05    1.19     491.1  T

   *** convergence criteria satisfied after 3 iterations ***

         #    Occupation            Energy/Eh            Energy/eV
      -------------------------------------------------------------
         1        2.0000           -0.9039805             -24.5986
       ...           ...                  ...                  ...
        31        1.9975           -0.6122634             -16.6605
        32        1.9973           -0.6109599             -16.6251
        33        1.9961           -0.6021325             -16.3849
        34        1.9916           -0.5835465             -15.8791
        35        1.9788           -0.5615252             -15.2799
        36        1.9586           -0.5454036             -14.8412
        37        1.4169           -0.4748689             -12.9218 (HOMO)
        38        0.5581           -0.4312359             -11.7345 (LUMO)
        39        0.0827           -0.3791195             -10.3164
        40        0.0270           -0.3518306              -9.5738
        41        0.0015           -0.2825065              -7.6874
        42        0.0000           -0.1932270              -5.2580
       ...           ...                  ...                  ...
        67                          6.1042021             166.1038
      -------------------------------------------------------------
                  HL-Gap            0.0436330 Eh            1.1873 eV
             Fermi-level           -0.4537813 Eh          -12.3480 eV

 SCC (total)                   0 d,  0 h,  0 min,  0.021 sec
 SCC setup                      ...        0 min,  0.000 sec (  0.849%)
 Dispersion                     ...        0 min,  0.000 sec (  0.830%)
 classical contributions        ...        0 min,  0.000 sec (  0.324%)
 integral evaluation            ...        0 min,  0.004 sec ( 21.038%)
 iterations                     ...        0 min,  0.004 sec ( 21.721%)
 molecular gradient             ...        0 min,  0.011 sec ( 54.683%)
 printout                       ...        0 min,  0.000 sec (  0.498%)

         :::::::::::::::::::::::::::::::::::::::::::::::::::::
         ::                     SUMMARY                     ::
         :::::::::::::::::::::::::::::::::::::::::::::::::::::
         :: total energy             -89.195624738732 Eh    ::
         :: gradient norm              0.001681073422 Eh/a0 ::
         :: HOMO-LUMO gap              1.187314378142 eV    ::
         ::.................................................::
         :: SCC energy               -42.767615575491 Eh    ::
         :: -> isotropic ES            0.114442068552 Eh    ::
         :: -> anisotropic ES         -0.004673300045 Eh    ::
         :: -> anisotropic XC          0.010396673955 Eh    ::
         :: -> dispersion             -0.022565539833 Eh    ::
         :: repulsion energy           2.873284577554 Eh    ::
         :: add. restraining         -49.301394058428 Eh    ::
         :: total charge               0.999999999999 e     ::
         :::::::::::::::::::::::::::::::::::::::::::::::::::::

           -------------------------------------------------
          |                Property Printout                |
           -------------------------------------------------

    * Orbital Energies and Occupations

         #    Occupation            Energy/Eh            Energy/eV
      -------------------------------------------------------------
         1        2.0000           -0.9039805             -24.5986
       ...           ...                  ...                  ...
        25        1.9997           -0.6644575             -18.0808
        26        1.9996           -0.6564563             -17.8631
        27        1.9992           -0.6407258             -17.4350
        28        1.9992           -0.6383777             -17.3711
        29        1.9990           -0.6348209             -17.2744
        30        1.9980           -0.6178744             -16.8132
        31        1.9975           -0.6122634             -16.6605
        32        1.9973           -0.6109599             -16.6251
        33        1.9961           -0.6021325             -16.3849
        34        1.9916           -0.5835465             -15.8791
        35        1.9788           -0.5615252             -15.2799
        36        1.9586           -0.5454036             -14.8412
        37        1.4169           -0.4748689             -12.9218 (HOMO)
        38        0.5581           -0.4312359             -11.7345 (LUMO)
        39        0.0827           -0.3791195             -10.3164
        40        0.0270           -0.3518306              -9.5738
        41        0.0015           -0.2825065              -7.6874
        42        0.0000           -0.1932270              -5.2580
        43        0.0000           -0.1718948              -4.6775
        44        0.0000           -0.1251008              -3.4042
        45        0.0000           -0.1128552              -3.0709
        46        0.0000           -0.0771729              -2.1000
        47                         -0.0544260              -1.4810
        48                         -0.0249590              -0.6792
       ...                                ...                  ...
        67                          6.1042021             166.1038
      -------------------------------------------------------------
                  HL-Gap            0.0436330 Eh            1.1873 eV
             Fermi-level           -0.4537813 Eh          -12.3480 eV

     #   Z          covCN         q      C6AA      α(0)
     1   6 C        2.785     0.091    25.967     8.347
     2   7 N        2.800     0.064    20.132     6.664
     3   6 C        3.011    -0.003    28.091     8.694
     4   7 N        2.761    -0.063    22.450     7.037
     5   6 C        3.020     0.097    25.825     8.336
     6   6 C        3.064     0.016    27.602     8.615
     7   6 C        2.853    -0.014    28.357     8.728
     8   8 O        1.664    -0.361    20.114     6.054
     9   7 N        2.744    -0.022    21.683     6.916
    10   6 C        3.707    -0.075    22.077     6.716
    11   6 C        2.722     0.308    21.775     7.639
    12   8 O        0.859    -0.377    21.229     6.177
    13   7 N        2.737    -0.053    22.262     7.008
    14   6 C        3.697    -0.070    22.018     6.712
    15   1 H        0.883     0.368     0.540     1.150
    16   1 H        0.926     0.083     1.944     2.181
    17   1 H        0.926     0.105     1.741     2.064
    18   1 H        0.927     0.102     1.763     2.076
    19   1 H        0.925     0.090     1.875     2.141
    20   1 H        0.925     0.119     1.621     1.991
    21   1 H        0.924     0.091     1.866     2.136
    22   1 H        0.924     0.081     1.969     2.194
    23   1 H        0.924     0.081     1.969     2.194
    24   1 H        0.925     0.124     1.580     1.966
    25   1 H        0.860     0.218     1.017     1.580

 Mol. C6AA /au·bohr⁶  :       6639.925609
 Mol. C8AA /au·bohr⁸  :     153119.787880
 Mol. α(0) /au        :        125.316946


Wiberg/Mayer (AO) data.
largest (>0.10) Wiberg bond orders for each atom

 ---------------------------------------------------------------------------
     #   Z sym  total        # sym  WBO       # sym  WBO       # sym  WBO
 ---------------------------------------------------------------------------
     1   6 C    3.466 --     2 N    1.241     8 O    1.127    16 H    0.949
     2   7 N    3.665 --     1 C    1.241     3 C    1.192     6 C    1.068
     3   6 C    3.564 --     4 N    1.195     2 N    1.192    18 H    0.961
     4   7 N    3.503 --     5 C    1.217     3 C    1.195    25 H    0.924
     5   6 C    3.789 --     6 C    1.232     4 N    1.217    13 N    1.175
     6   6 C    3.878 --     7 C    1.363     5 C    1.232     2 N    1.068
     7   6 C    3.619 --     6 C    1.363     9 N    1.189    17 H    0.954
     8   8 O    2.096 --     1 C    1.127    15 H    0.858
     9   7 N    3.488 --     7 C    1.189    11 C    1.107    10 C    0.983
                            12 O    0.122
    10   6 C    3.919 --     9 N    0.983    19 H    0.966    20 H    0.964
                            21 H    0.963
    11   6 C    3.914 --    12 O    1.666     9 N    1.107    13 N    1.052
    12   8 O    1.996 --    11 C    1.666     9 N    0.122    13 N    0.119
    13   7 N    3.455 --     5 C    1.175    11 C    1.052    14 C    0.982
                            12 O    0.119
    14   6 C    3.925 --    13 N    0.982    23 H    0.968    22 H    0.968
                            24 H    0.963
    15   1 H    0.864 --     8 O    0.858
    16   1 H    0.991 --     1 C    0.949
    17   1 H    0.987 --     7 C    0.954
    18   1 H    0.988 --     3 C    0.961
    19   1 H    0.982 --    10 C    0.966
    20   1 H    0.983 --    10 C    0.964
    21   1 H    0.979 --    10 C    0.963
    22   1 H    0.985 --    14 C    0.968
    23   1 H    0.985 --    14 C    0.968
    24   1 H    0.983 --    14 C    0.963
    25   1 H    0.951 --     4 N    0.924
 ---------------------------------------------------------------------------

Topologies differ in total number of bonds
Writing topology from bond orders to xtbtopo.mol

molecular dipole:
                 x           y           z       tot (Debye)
 q only:        2.264      -0.564       0.040
   full:        2.804      -0.571       0.069       7.275
molecular quadrupole (traceless):
                xx          xy          yy          xz          yz          zz
 q only:        4.876      -3.555      14.725       0.766       1.455     -19.601
  q+dip:        3.487      -2.418      16.526       0.847       1.663     -20.014
   full:        2.457      -2.313      16.370       0.802       1.617     -18.827

           -------------------------------------------------
          |                Geometry Summary                 |
           -------------------------------------------------

      molecular mass/u    :      195.1988581
   center of mass at/Å    :        0.1868335      -0.0682395       0.0041345
  moments of inertia/u·Å² :        0.4498120E+03   0.8436764E+03   0.1287061E+04
rotational constants/cm⁻¹ :        0.3747706E-01   0.1998116E-01   0.1309777E-01

 * 26 selected distances

     #   Z          #   Z                                           value/Å
     1   6 C        2   7 N                                       1.3447715
     2   7 N        3   6 C                                       1.3665388
     3   6 C        4   7 N                                       1.3695613
     4   7 N        5   6 C                                       1.3516015
     2   7 N        6   6 C                                       1.3970106
     5   6 C        6   6 C                                       1.4082302
     6   6 C        7   6 C                                       1.3823539
     1   6 C        8   8 O                                       1.3505593
     7   6 C        9   7 N                                       1.3710953
     9   7 N       10   6 C                                       1.4495747 (max)
     9   7 N       11   6 C                                       1.3884061
    11   6 C       12   8 O                                       1.2052845
     5   6 C       13   7 N                                       1.3564769
    11   6 C       13   7 N                                       1.4065899
    13   7 N       14   6 C                                       1.4468054
     8   8 O       15   1 H                                       0.3786561 (min)
     1   6 C       16   1 H                                       1.0790778
     7   6 C       17   1 H                                       1.0732831
     3   6 C       18   1 H                                       1.0665732
    10   6 C       19   1 H                                       1.0897225
    10   6 C       20   1 H                                       1.0887928
    10   6 C       21   1 H                                       1.0911454
    14   6 C       22   1 H                                       1.0909891
    14   6 C       23   1 H                                       1.0908598
    14   6 C       24   1 H                                       1.0892353
     4   7 N       25   1 H                                       1.0074374

 * 6 distinct bonds (by element types)

   Z      Z             #   av. dist./Å        max./Å        min./Å
   1 H    6 C           9     1.0844088     1.0911454     1.0665732
   6 C    6 C           2     1.3952920     1.4082302     1.3823539
   1 H    7 N           1     1.0074374     1.0074374     1.0074374
   6 C    7 N          11     1.3862211     1.4495747     1.3447715
   1 H    8 O           1     0.3786561     0.3786561     0.3786561
   6 C    8 O           2     1.2779219     1.3505593     1.2052845


optimized geometry written to: xtbopt.xyz


           -------------------------------------------------
          | TOTAL ENERGY              -89.195624738732 Eh   |
          | GRADIENT NORM               0.001681073422 Eh/α |
          | HOMO-LUMO GAP               1.187314378142 eV   |
           -------------------------------------------------

------------------------------------------------------------------------
 * finished run on 2024/06/05 at 19:59:03.573     
------------------------------------------------------------------------
 total:
 * wall-time:     0 d,  0 h,  0 min,  4.250 sec
 *  cpu-time:     0 d,  0 h,  0 min,  4.229 sec
 * ratio c/w:     0.995 speedup
 SCF:
 * wall-time:     0 d,  0 h,  0 min,  0.040 sec
 *  cpu-time:     0 d,  0 h,  0 min,  0.035 sec
 * ratio c/w:     0.879 speedup
 ANC optimizer:
 * wall-time:     0 d,  0 h,  0 min,  4.187 sec
 *  cpu-time:     0 d,  0 h,  0 min,  4.184 sec
 * ratio c/w:     0.999 speedup

