72
 energy: -103.308323596320 gnorm: 0.100636414984 xtb: 6.6.1 (8d0f1dd)
N           -1.48108544408636        2.75967956438514        2.23052231586254
C           -1.56088728931879        2.15364918327599        1.15624936749637
C           -2.74468158300117        2.05622308755100        0.24983292113550
C           -3.31876554612384        0.64660929906731        0.32967886197042
C           -4.30100046719440        0.24925757010299       -0.58019394933767
C           -4.85231148129701       -1.01760989812936       -0.53861780716568
O           -5.81141545339182       -1.48121439474513       -1.37591815120599
C           -6.38077636573153       -0.60178047679964       -2.31403232473549
C           -4.40987249558419       -1.94142503967692        0.44051665847595
O           -4.99966400470241       -3.15983577550115        0.40152387917119
C           -4.67844399642094       -4.09985837850383        1.39817157721140
C           -3.43926988395608       -1.54233990385159        1.33987790690515
C           -2.89914664555976       -0.26092023981216        1.28400313485278
C           -2.18351211657483        2.30168211974622       -1.17114298051885
C           -1.28442354550983        1.16137771013859       -1.67061025040405
C           -0.03474845788206        1.05068601821981       -0.87916045584506
N            0.59212792470830       -0.12452272776108       -0.54465225417248
C            2.01254286073232       -0.03555026342582       -0.22075179860936
C            2.93624600324469       -0.52986848678523       -1.29639774210682
C            4.36015240823214       -0.40779741678886       -0.83858622199327
C            5.07814099297586        0.74647455814555       -1.04466238432586
C            6.39195283513141        0.85201248041788       -0.61194158467545
C            7.00357470297043       -0.20028829994284        0.04750523735513
O            8.27719805080572       -0.20807361553266        0.50968124672163
C            9.07855285440156        0.92834306281223        0.30023459688323
C            6.27039675610893       -1.39202959994081        0.27760412043159
O            6.95072486826814       -2.36872293161319        0.92410454366564
C            6.31172654351268       -3.60141282319119        1.15597144141611
C            4.96228283282751       -1.47633537429944       -0.15900713944539
C           -0.05253617476719       -1.34432785410157       -0.58455322875993
C           -3.86483130799740        3.08186726357528        0.58864672915597
C           -4.49643230887841        2.78012645453898        1.94408626577680
C           -3.38542745346626        4.52950809670527        0.55013293658063
H           -4.65069945047587        0.94878990119396       -1.32040752900106
H           -6.83612425227076        0.26675825448792       -1.82788657946347
H           -7.15389405408556       -1.17769381968859       -2.81886644202471
H           -5.64481755726529       -0.26497459952274       -3.05133582452338
H           -4.90637224374082       -3.71878774880288        2.39792058931854
H           -5.30386325932918       -4.96637359868655        1.19276052191417
H           -3.62559937563894       -4.39529676389157        1.34962897773433
H           -3.09778832285291       -2.21724351780420        2.10777543468031
H           -2.16757958232818        0.02148461887982        2.02477955881226
H           -3.00916890494691        2.41146612232008       -1.87365173658231
H           -1.62162805601709        3.23654210353260       -1.17758975453719
H           -1.83944178092051        0.23309062859297       -1.65246892939467
H           -1.00570133351797        1.38925283093735       -2.71191917135752
H           -0.68729504745110        1.62907538821771        0.65981120761387
H            0.60543916939398        1.86873786320120       -0.89726283247712
H            2.14523459070354       -0.64658762244066        0.71413936550325
H            2.30057734944584        1.00045015211731        0.05509337096362
H            2.77648285153423        0.07564450984352       -2.18953920173718
H            2.69317821224990       -1.56553418680453       -1.53238535990009
H            4.62690476787409        1.57876825113749       -1.56402985185387
H            6.93285433457349        1.76364070716000       -0.80399547130011
H            8.66556404123051        1.81120950562606        0.79884173311367
H            9.20720456702000        1.13839927696917       -0.76646419059164
H           10.04455102680530        0.68639450857159        0.73926384630066
H            7.05141008061063       -4.22333724916976        1.65586370407407
H            5.43829819946016       -3.48806490318999        1.80686826356190
H            6.00927356746796       -4.08206279465262        0.21951578540952
H            4.39646887303195       -2.38244253253379        0.00336053751591
H           -0.18918714619720       -1.72260140216501       -1.58881295770908
H           -1.01614401234764       -1.30971511055450       -0.07072986155385
H            0.59048884788736       -2.05724632656407       -0.02995131215831
H           -4.63613662027263        2.95995784218226       -0.18188396522296
H           -3.76552451849773        2.91247633915565        2.73477180791494
H           -4.87894743024070        1.76413966339208        1.98115993357900
H           -5.32333552263578        3.46473977398474        2.12071284766249
H           -2.59717448101944        4.68945017941754        1.27698855820519
H           -3.02794370719058        4.81444897839491       -0.43604584733608
H           -4.21490623020869        5.18584335483460        0.80205848777786
H           -0.60873436192604        2.77988136907182        2.74575753810431
72
 energy: -103.313313975725 gnorm: 0.038267166377 xtb: 6.6.1 (8d0f1dd)
N           -1.49710026168041        2.78774294635151        2.24668715092789
C           -1.56629405842994        2.14955443598671        1.17310264525428
C           -2.74688241674429        2.05864667206730        0.25517925485234
C           -3.32343933899802        0.65105418745388        0.33415540760660
C           -4.30367888382361        0.25058787754490       -0.57628598182022
C           -4.85203837456438       -1.01733500454293       -0.53696800667574
O           -5.81424681897148       -1.48319839011292       -1.37703843708572
C           -6.38015524209565       -0.60194457789612       -2.31437947448976
C           -4.41029380214944       -1.93979638740581        0.44047191630482
O           -5.00254532728476       -3.16260407819551        0.40073035917656
C           -4.67831169497071       -4.09967734470027        1.39756931652814
C           -3.44277264581718       -1.53937605036006        1.34184579368733
C           -2.90599543267447       -0.25682008712282        1.28856218103699
C           -2.18709297144886        2.29627397205040       -1.17125346004855
C           -1.27678216254546        1.16420064840381       -1.67875022864858
C           -0.01665485947231        1.07470053327949       -0.88969506532310
N            0.61290000205754       -0.10620253367865       -0.54025956436176
C            2.01381066359596       -0.04630869953820       -0.19525749782165
C            2.93843907909940       -0.53567136529768       -1.30071007835356
C            4.36400264245209       -0.41809111212438       -0.84984243653468
C            5.08107819929641        0.74262936030656       -1.05039510528748
C            6.39330605996511        0.85158892037827       -0.61029258511712
C            7.00375247068268       -0.20021816607800        0.04877304467707
O            8.28202964478003       -0.20899851813461        0.51218098694701
C            9.07968796802730        0.92843501018352        0.30063639270193
C            6.27105853945855       -1.39045392347553        0.27686089708022
O            6.95235902426777       -2.37037944027886        0.92715426316387
C            6.31144906323774       -3.60068784471040        1.15640673831472
C            4.96610888920759       -1.47860126914429       -0.16661994706571
C           -0.04107945309052       -1.35581383365781       -0.57742060580154
C           -3.87120182451519        3.08048610488774        0.58477364806258
C           -4.50026433788452        2.78278504456210        1.94343654074948
C           -3.38905481662988        4.52848170464067        0.55013020933248
H           -4.64839984864906        0.94872605255342       -1.32092989913791
H           -6.83446645932441        0.26742007071810       -1.82781995662578
H           -7.15426229515813       -1.17584649782941       -2.82110592145577
H           -5.64273957971056       -0.26386509903673       -3.05029196165766
H           -4.90463329106257       -3.71771854120206        2.39819039071127
H           -5.30252322030054       -4.96811160214444        1.19392208831157
H           -3.62431350049111       -4.39310516978952        1.34970365166075
H           -3.09608402628573       -2.21680419089482        2.10617111425723
H           -2.16658560820822        0.02391967639530        2.02214819992281
H           -3.01638038999954        2.41341316464519       -1.87064801280402
H           -1.62040927154195        3.22898373918797       -1.17556074504617
H           -1.82923397732022        0.22819350863189       -1.65463993919145
H           -1.02999560968790        1.38883223226141       -2.72917559452934
H           -0.69906367605919        1.61646786322565        0.68943962587612
H            0.63975410236312        1.91387640189243       -0.93641024631416
H            2.16398278897480       -0.65328623100912        0.71884427442145
H            2.27874867184726        0.98801454372865        0.05928687347171
H            2.77602699098472        0.07253786755618       -2.19325308932821
H            2.69931919615234       -1.57229758044158       -1.54148846619748
H            4.62776244539564        1.57644781812350       -1.56608139519926
H            6.93376136582365        1.76494945668654       -0.79976379841492
H            8.66474640065434        1.81141681557793        0.79819738536499
H            9.20681334055396        1.13916558212184       -0.76647950620130
H           10.04716627810574        0.68956328139498        0.73884529055241
H            7.05007538273550       -4.22462442572156        1.65667699696168
H            5.43670893798683       -3.48631699132029        1.80551555403526
H            6.00875026927759       -4.07976149057610        0.21916555019664
H            4.39756671290678       -2.38093646813778       -0.00075025573189
H           -0.19010163194039       -1.73582368581513       -1.59271592072412
H           -1.01549693216887       -1.30760932734854       -0.07937885465077
H            0.57470692264451       -2.08273705241301       -0.03039197737597
H           -4.64429957048387        2.96214905613110       -0.18421122844944
H           -3.76208886951876        2.91146311022104        2.72867552490407
H           -4.87980424231383        1.76488327781970        1.98067115091274
H           -5.32744973664098        3.46654588918159        2.12380893060470
H           -2.59703439962036        4.68137529706099        1.27652072938084
H           -3.02799772190104        4.81041292521279       -0.43579550250279
H           -4.21663426231053        5.18832724133202        0.80280994154868
H           -0.61767836765919        2.78303360540868        2.75477144527634
72
 energy: -103.314131127703 gnorm: 0.020027317932 xtb: 6.6.1 (8d0f1dd)
N           -1.48315788805577        2.78132275494017        2.23791631792993
C           -1.55070466522445        2.14230712998088        1.15778786107409
C           -2.74272655073508        2.05796255886885        0.25135141006183
C           -3.31524357525001        0.64821110036982        0.32728949582486
C           -4.29945034091877        0.24848765348669       -0.57924778942692
C           -4.84808887170268       -1.01863815816025       -0.53823364347690
O           -5.81520251996712       -1.48460904069284       -1.37745308200354
C           -6.38108439918832       -0.60320050116546       -2.31350973398262
C           -4.40682654428628       -1.94028802707226        0.43790850893986
O           -5.00376789253573       -3.16442654731387        0.40001076329981
C           -4.67988856450854       -4.09991839070410        1.39691472727162
C           -3.43858795433951       -1.54178435416343        1.33843961348931
C           -2.89901885791521       -0.26105544450976        1.28212967500345
C           -2.18873179368961        2.30203198340699       -1.17636401082697
C           -1.28518370707959        1.16097112024460       -1.67588140049248
C           -0.03706871716677        1.06839367155509       -0.87468615972945
N            0.60974149748911       -0.10270867539706       -0.53444571817004
C            2.00000682771136       -0.03894670689704       -0.18787083196170
C            2.93557609283500       -0.53072214131744       -1.29905478547721
C            4.35756663201494       -0.41449811851785       -0.83975670504896
C            5.07675098637190        0.74746325749741       -1.04339190315124
C            6.39112105777526        0.85311218676067       -0.60970588171071
C            7.00014790141017       -0.19962102743386        0.04774505067636
O            8.28175879586927       -0.21042734236358        0.51044349427492
C            9.07832897999952        0.92674787595612        0.30001732071921
C            6.26695065313530       -1.38693868121574        0.27898099333916
O            6.95169429835148       -2.37113571675837        0.92598134018996
C            6.31216830711108       -3.60070156773867        1.15570841178230
C            4.96010265893944       -1.47306702513985       -0.15812738839594
C           -0.04167550404581       -1.36898123692159       -0.57001060212818
C           -3.86288989104820        3.07934396654349        0.58754602464780
C           -4.49624467702508        2.78130117694646        1.94534697597115
C           -3.38597497234710        4.53070383590166        0.55099218013164
H           -4.64811167484952        0.94841954809316       -1.32093567232486
H           -6.83579687936104        0.26651137611548       -1.82724158691985
H           -7.15569778972609       -1.17790883168238       -2.81884983468520
H           -5.64534112125321       -0.26501523002601       -3.05138431536921
H           -4.90617203529213       -3.71825884887129        2.39816492497822
H           -5.30533337966298       -4.96754234024586        1.19311697298650
H           -3.62614479952716       -4.39578544037612        1.34996409603218
H           -3.09643511530470       -2.21773446101544        2.10672619947496
H           -2.16533628275719        0.02164171482156        2.02078158475585
H           -3.01598619324949        2.42045585322889       -1.87728209565629
H           -1.61799224681555        3.23362575505165       -1.17809054562708
H           -1.84498525269204        0.22613097151791       -1.66019405683994
H           -1.01773879673914        1.38750413791218       -2.71857432936007
H           -0.68703718661274        1.63140128790775        0.66541552854802
H            0.61879593846498        1.91723627523533       -0.90145312193604
H            2.15318125542059       -0.64340691398416        0.71198362229718
H            2.27545472960319        0.99196211575068        0.05066877871957
H            2.77490834803393        0.07780119474228       -2.19144102429917
H            2.69263601759050       -1.56733809119393       -1.53454048651565
H            4.62461302682635        1.58032305333280       -1.56165575811042
H            6.93356701210485        1.76444580869769       -0.80467583961659
H            8.66474766760061        1.81014751123332        0.79862702052298
H            9.20679064181747        1.13880820490493       -0.76690846777746
H           10.04524368256098        0.68618683089595        0.73865102342829
H            7.05279573919537       -4.22377052398770        1.65465331647817
H            5.43882642199836       -3.48839919918583        1.80720812564505
H            6.00823518878375       -4.08143459142682        0.21953898601767
H            4.39222744467798       -2.37601599598073        0.00605586204296
H           -0.19760631928168       -1.73455381612858       -1.59526101686510
H           -1.01576791490663       -1.31948622965238       -0.06894357090593
H            0.58718451752205       -2.07851180589396       -0.03471857345252
H           -4.63527280029245        2.96059218582085       -0.18101468392401
H           -3.76282886118101        2.91092699201741        2.73475833623416
H           -4.87592994692918        1.76279227537081        1.98152554835459
H           -5.32446403738270        3.46430857319482        2.12023604957474
H           -2.59455577788597        4.68934034777564        1.27744693797058
H           -3.02623766388832        4.81395973200437       -0.43529425081701
H           -4.21665129910750        5.18671065040510        0.80264175471941
H           -0.58987021909991        2.76350126967510        2.72548475237881
72
 energy: -103.314690157871 gnorm: 0.012213344723 xtb: 6.6.1 (8d0f1dd)
N           -1.50730326151387        2.78248985622831        2.24551079454935
C           -1.55920912774690        2.14516763327850        1.16394653730143
C           -2.74713633115891        2.05808604145947        0.25310933133621
C           -3.32034794043782        0.64920855509185        0.33102352949059
C           -4.30305239909550        0.24962931551237       -0.57699414548202
C           -4.85092756914971       -1.01728506385594       -0.53547629203223
O           -5.81587358760976       -1.48341538191296       -1.37724142636662
C           -6.37963762499299       -0.60188266737210       -2.31399839639044
C           -4.40967544366274       -1.93835618709873        0.44093740396718
O           -5.00370468042865       -3.16392511940112        0.40157002695978
C           -4.67786359475523       -4.09912332144922        1.39747406669381
C           -3.44184388118546       -1.54061760496137        1.34214551014793
C           -2.90391789786320       -0.25952033031451        1.28675462226726
C           -2.18523796000899        2.30087034738988       -1.17147906940680
C           -1.28115873949821        1.16170737089480       -1.67268295550463
C           -0.03490047557615        1.06091736223981       -0.87648640892065
N            0.61424886100993       -0.10482084367548       -0.54271439999658
C            2.00423856183855       -0.04031607712856       -0.19632091386408
C            2.94320439316733       -0.53542219472981       -1.30484640765736
C            4.36319272882351       -0.41819773055438       -0.84384917495220
C            5.08145005019523        0.74439385418516       -1.04779959159091
C            6.39426124879081        0.85124627082409       -0.61205515484452
C            7.00289562032919       -0.20104229746667        0.04669966651292
O            8.28363736147334       -0.20904501137423        0.51220653471821
C            9.07887344675782        0.92852966495383        0.30105501908622
C            6.27182728449380       -1.38947389030437        0.27561435727382
O            6.95454858516331       -2.37293203463414        0.92616475810994
C            6.31225666118587       -3.60065868928535        1.15610940997165
C            4.96592356826415       -1.47766994224375       -0.16356969227126
C           -0.04536242598816       -1.36426214485804       -0.57357109960059
C           -3.86710361057061        3.07969385153151        0.58650708026387
C           -4.50000516567873        2.78217711027080        1.94453412829804
C           -3.38773064166660        4.53003548950311        0.54919830462648
H           -4.65135817659496        0.94930629357762       -1.31920900914921
H           -6.83576364706592        0.26766881536728       -1.82872352652077
H           -7.15307689122989       -1.17664460176596       -2.82089101195730
H           -5.64278838914792       -0.26373420919515       -3.05075597835207
H           -4.90521730410744       -3.71899015222396        2.39902311462799
H           -5.30181789185105       -4.96757393875393        1.19317243113076
H           -3.62372450039392       -4.39357296306154        1.35015735597934
H           -3.09879172668356       -2.21698477672318        2.10948494601424
H           -2.17081399603654        0.02367106399261        2.02612179638889
H           -3.01113689255822        2.41188063486959       -1.87355055695618
H           -1.61995177176296        3.23548069645865       -1.17522426360421
H           -1.83960843041087        0.22779267290157       -1.65338423650932
H           -1.01012249404030        1.38732943494543       -2.71441746359545
H           -0.69467500637358        1.63022131920125        0.67783882685985
H            0.62651553262639        1.89793642174754       -0.91140832135013
H            2.15294530164428       -0.64860070364870        0.70244016655701
H            2.29731306528884        0.98725788147836        0.04795303151691
H            2.77984659999609        0.07432881174546       -2.19444998341246
H            2.69590878294014       -1.57091118194581       -1.53759236338720
H            4.62915833488212        1.57627855691027       -1.56716041093084
H            6.93452689223105        1.76441419557211       -0.80316902290341
H            8.66500881460924        1.81247481136319        0.79852048640899
H            9.20806764849251        1.13922400328478       -0.76607981626451
H           10.04576943307543        0.68904643584317        0.74027320599120
H            7.05034352258157       -4.22434858697961        1.65784467248296
H            5.43740697248536       -3.48674810185450        1.80553896967044
H            6.00995013327780       -4.08255735422646        0.21989279422951
H            4.40024390115802       -2.38318826795204       -0.00220244309456
H           -0.19348199906949       -1.72602529850741       -1.59811820681179
H           -1.01931012191983       -1.30294403960054       -0.07547592036373
H            0.58521263990193       -2.06352570361502       -0.03095821263664
H           -4.63894773610288        2.96045964177984       -0.18264367918858
H           -3.76571366881097        2.91187085947641        2.73288798660580
H           -4.88182004935748        1.76454049726656        1.98138769571221
H           -5.32623965316450        3.46667312856470        2.12060849208755
H           -2.59699135827155        4.68697975436206        1.27628324337070
H           -3.02812894953367        4.81320706031642       -0.43709860221571
H           -4.21689316859320        5.18693877357000        0.80142970890480
H           -0.61809892462777        2.77144483974717        2.74013887077314
72
 energy: -103.314786463191 gnorm: 0.009422736231 xtb: 6.6.1 (8d0f1dd)
N           -1.49380404449487        2.78585558830591        2.24238631393244
C           -1.55283731759872        2.14663922217031        1.16433157708863
C           -2.74373554916217        2.05840895841699        0.25517573302138
C           -3.31984009875657        0.65030400151200        0.33201086649513
C           -4.30125629776043        0.25044423113428       -0.57777962398906
C           -4.84913649153787       -1.01689756877135       -0.53690382120392
O           -5.81397828435057       -1.48302148046083       -1.37800309693506
C           -6.38023704770745       -0.60203330095569       -2.31354093739198
C           -4.40784743001837       -1.93837459531885        0.43926129457421
O           -5.00224159328749       -3.16325543973359        0.40020317414866
C           -4.67896133710118       -4.09870988914034        1.39669239769891
C           -3.43900190731049       -1.54104194412782        1.33986993566215
C           -2.90155087558220       -0.25953688530756        1.28555320661222
C           -2.18624690461281        2.29803108815228       -1.17206803273932
C           -1.28113679277663        1.16247472337664       -1.67983033858141
C           -0.03133248526236        1.06006902381550       -0.88791168327390
N            0.61340511973486       -0.10671715185664       -0.54606167837464
C            2.00195031474445       -0.04021813531254       -0.19072423166533
C            2.94052346431460       -0.53300374047414       -1.29944628626306
C            4.36046615613560       -0.41496602907917       -0.84201390557352
C            5.07869840717461        0.74696915166543       -1.04597857742203
C            6.39114466998220        0.85342745525831       -0.60957644784699
C            6.99993886639961       -0.19957910905567        0.04867262716205
O            8.28108381573262       -0.20880589423084        0.51184941450165
C            9.07796927708561        0.92736213926456        0.29967962080359
C            6.26854735815711       -1.38767516101796        0.27777622905322
O            6.95130042369541       -2.37089886754210        0.92742842954790
C            6.31061137653908       -3.59964190836046        1.15573095684672
C            4.96230732754929       -1.47533028807643       -0.16129749426303
C           -0.04598347705993       -1.36446035658743       -0.57424918898196
C           -3.86572458270526        3.07942642097675        0.58678752988621
C           -4.49711703676033        2.78114616042353        1.94481236663394
C           -3.38642551847410        4.52914127622596        0.55098861118518
H           -4.64735612737612        0.94922895331382       -1.32165525027226
H           -6.83515422288595        0.26731991482916       -1.82703717330352
H           -7.15486701689874       -1.17659257292838       -2.81897884014018
H           -5.64473617681834       -0.26393964175037       -3.05149706734837
H           -4.90567481824063       -3.71728128832575        2.39775126983095
H           -5.30443258231278       -4.96642049010187        1.19337085571064
H           -3.62547250187218       -4.39500698157398        1.34974959829900
H           -3.09362393428490       -2.21843060052855        2.10482761434769
H           -2.16331142008747        0.02162026446026        2.02066525150108
H           -3.01536931767795        2.41156000881232       -1.87036945389966
H           -1.62096861872684        3.23176973594921       -1.17802860301282
H           -1.83653237192394        0.22839554462871       -1.65653700573572
H           -1.02356136147143        1.38880679476380       -2.72572857073038
H           -0.69413301463859        1.61830810606973        0.67963616844799
H            0.62975714340200        1.89439983332578       -0.92714139713735
H            2.15304875416621       -0.64733648991860        0.71446340298245
H            2.28426828319500        0.99113829915810        0.05905568459301
H            2.77302608646081        0.07672189897394       -2.18774369253526
H            2.69513093896518       -1.56825890761249       -1.53436908127521
H            4.62526946325126        1.57963825307084       -1.56288167597756
H            6.93176987633250        1.76625118992011       -0.80019212445876
H            8.66563861302235        1.81125461648522        0.79822612495365
H            9.20543634606102        1.13851382537825       -0.76752958825420
H           10.04559449684308        0.68697097804965        0.73705402547757
H            7.05014437315824       -4.22393337363063        1.65463981754285
H            5.43667688572080       -3.48785540567384        1.80675966678427
H            6.00724009019872       -4.07938804684524        0.21873940809495
H            4.39435866598960       -2.37888371177656        0.00433873766877
H           -0.18921039624254       -1.73050808445386       -1.59437602552921
H           -1.01847613149726       -1.30599020082754       -0.07706890639337
H            0.58030100440025       -2.06967399006455       -0.02954902832493
H           -4.63870114315256        2.96070982233580       -0.18199416387306
H           -3.76121143720673        2.91128167720557        2.73136199598900
H           -4.87692978730344        1.76305607772073        1.98118985824607
H           -5.32411336923506        3.46439848671787        2.12321371547731
H           -2.59560826582216        4.68383148395731        1.27804955146157
H           -3.02678702770992        4.81211283152577       -0.43512224284248
H           -4.21492311546534        5.18662466024576        0.80401035001594
H           -0.60374752685451        2.77631774885588        2.73683257207240
72
 energy: -103.314935108379 gnorm: 0.005758119910 xtb: 6.6.1 (8d0f1dd)
N           -1.49609743074582        2.78281542783191        2.24424431586958
C           -1.55504854592515        2.14577695338607        1.16494589064993
C           -2.74560641733538        2.05885752966365        0.25428517925639
C           -3.32036504458579        0.64981699730652        0.33026788162539
C           -4.30218860043496        0.24926593828886       -0.57867999192538
C           -4.85025489538017       -1.01814372258310       -0.53707831576487
O           -5.81531540876426       -1.48431592888324       -1.37799755756371
C           -6.38047703030456       -0.60318194885537       -2.31401499819629
C           -4.40930953762983       -1.93914009603099        0.43956930909427
O           -5.00330013389553       -3.16440570696987        0.40095802957299
C           -4.67893232583450       -4.09972380747016        1.39719568471478
C           -3.44157390179287       -1.54052591302307        1.34087766726594
C           -2.90354841137881       -0.25916804022801        1.28529554338047
C           -2.18716506817832        2.30057698049829       -1.17245370167011
C           -1.28032205662564        1.16401631528833       -1.67509171870060
C           -0.03139681046215        1.06507572773384       -0.87980319300893
N            0.61478469971190       -0.10431084471477       -0.54238626251200
C            2.00369613429486       -0.04072203635588       -0.19235014903714
C            2.94145640125186       -0.53409817926236       -1.30305726480696