25
 energy: -40.417021872666 gnorm: 8.791152145382 xtb: 6.6.1 (8d0f1dd)
C            3.47950492287329        1.05898005848608        0.01139502033729
N            2.43317543857649        0.07317782432882       -0.01105613526374
C            2.58455585745249       -1.24875935364176       -0.02485684319490
N            1.37785443283710       -1.83013183979742       -0.02402589251224
C            0.40223664476843       -0.85457576694731       -0.01175360752270
C            1.07932085198265        0.37804338420512        0.00642375060830
C           -0.55986381017217        2.20701865907858        0.06161580498450
O            0.73920905760322        1.64483598446256        0.03536216555950
N           -1.58091971506977        1.26342407748352        0.04228058375138
C           -3.03306842414188        1.40524477787831        0.00581825427786
C           -1.77851364394634       -0.05234881784590        0.07292137070765
O           -3.15854079978491       -0.01837564907793        0.00858990680615
N           -0.93718442542862       -1.10694637939352       -0.00223258662447
C           -1.47464765743449       -2.45236942730511       -0.03479478868858
H            3.76534409743524        1.28812388397234        1.04040424652899
H            4.34882533778382        0.68849730765582       -0.52886852828841
H            3.11391075388467        1.97232558656043       -0.45736582938788
H            3.52163952369815       -1.76566035609940       -0.04277285775699
H           -0.60403574442472        2.62866119680798        0.06669730950896
H           -3.41899442935049        1.85512260684093       -0.91048672987852
H           -3.46663171412001        1.86629760387717        0.89518171497813
H           -1.21620490297371       -2.99649977877816        0.87470945577985
H           -1.10312401362147       -2.98749773168436       -0.90896547743990
H           -2.55680587043480       -2.37623590819978       -0.10342584381642
H            1.20338974610688       -2.82211340126718       -0.02962284555159
25
 energy: -42.112000623624 gnorm: 0.158874409759 xtb: 6.6.1 (8d0f1dd)
C            3.47954953086426        1.05904790987268        0.01139748417738
N            2.43330256887454        0.07311912186348       -0.01105415198230
C            2.58456381850768       -1.24879103340341       -0.02487275963306
N            1.37785267436710       -1.83012337080973       -0.02402179773718
C            0.40226032803843       -0.85458112889735       -0.01171769688866
C            1.08106267499103        0.37732130801801        0.00637237472179
C           -0.52976794545377        1.92089689303720        0.05800778040864
O            0.74283053196409        1.63521370217634        0.03515364001577
N           -1.58241058780349        1.24962364882902        0.04199572110401
C           -3.03296079705617        1.40583889927543        0.00582524702325
C           -1.77997264368860       -0.05341248770975        0.07299489483236
O           -3.15885146613482       -0.01833460591445        0.00859911274042
N           -0.93723195679025       -1.10701913981951       -0.00228796238030
C           -1.47463421650786       -2.45236728267168       -0.03479337287493
H            3.76533017209639        1.28812240914182        1.04036730311140
H            4.34879628980803        0.68850870898251       -0.52883754452705
H            3.11393190008832        1.97227461395941       -0.45735478271464
H            3.52163880252781       -1.76566002921703       -0.04277464216588
H           -0.63652438167878        2.93949246215103        0.07078905637258
H           -3.41896329072426        1.85513980962845       -0.91049666381801
H           -3.46661083885533        1.86631799462457        0.89518690419809
H           -1.21618972887455       -2.99651105016447        0.87473234112238
H           -1.10312306827546       -2.98750514120679       -0.90898939001228
H           -2.55683983680478       -2.37623671629386       -0.10341609526350
H            1.20339298061949       -2.82213695385208       -0.02963338192808
25
 energy: -42.131263517547 gnorm: 0.052981875703 xtb: 6.6.1 (8d0f1dd)
C            3.48715639691455        1.05424839626352        0.01164417010508
N            2.44862767834117        0.05997706401222       -0.01181176768973
C            2.59366499619837       -1.26148450978268       -0.02565239175714
N            1.38145903094247       -1.83854708599338       -0.02434445554419
C            0.40227293467965       -0.86092305998531       -0.01142569000981
C            1.09935608747209        0.36704605036741        0.00523402219931
C           -0.51496783730122        2.00688720416528        0.06108166456272
O            0.76392919770967        1.64349861782671        0.03274695830996
N           -1.61368968010555        1.24717415045632        0.04604606794619
C           -3.05934534208352        1.39232074413981        0.00506920061016
C           -1.80583360127237       -0.07163359107027        0.07935395246766
O           -3.19596937656564       -0.03144132713688        0.00520888234055
N           -0.93843092710804       -1.11644563542187       -0.00273387160363
C           -1.47029956052172       -2.46208040540887       -0.03542346631725
H            3.76877427905653        1.28789541812289        1.04016895779708
H            4.35784929286839        0.68966805324374       -0.52736978823914
H            3.11713274546388        1.96481866820093       -0.45859591965562
H            3.52877732145194       -1.77896094788603       -0.04351851044441
H           -0.62065146692358        3.02706758262465        0.07234087830251
H           -3.42950807739592        1.85032176314606       -0.91301167537867
H           -3.48194113628576        1.86070064482332        0.89504680748807
H           -1.21024326408662       -3.00422268747834        0.87489711886447
H           -1.09960655121823       -2.99469561002089       -0.91138203633919
H           -2.55301644611068       -2.38361931714238       -0.10181381115499
H            1.20493481997918       -2.82933163846614       -0.03058367895775
25
 energy: -42.135127567542 gnorm: 0.041650800007 xtb: 6.6.1 (8d0f1dd)
C            3.49131820586761        1.04742201374318        0.01159519397612
N            2.45121470846685        0.05458561811385       -0.01258439629339
C            2.59444530956692       -1.26818037542344       -0.02683760045183
N            1.38143630166677       -1.84291962501614       -0.02501695039612
C            0.40331719853227       -0.86310959671679       -0.01195421023817
C            1.10072838596942        0.36427005881665        0.00442556733374
C           -0.53463808192793        2.06021309047988        0.06465921665320
O            0.75229927201604        1.64463812580325        0.03155624373228
N           -1.60981593015702        1.24911256976361        0.05038227938676
C           -3.05656974336505        1.38956673028702        0.00391129851913
C           -1.79929121314672       -0.07694012243087        0.08620539844933
O           -3.19054159707610       -0.03198976464986        0.00329833237611
N           -0.93298676609367       -1.11921416503283       -0.00347663022266
C           -1.46582510282030       -2.46635024326200       -0.03526303305239
H            3.76986741030988        1.28334270991203        1.04016500485243
H            4.36466814781113        0.68134343287234       -0.52243975397152
H            3.12350245405939        1.95552730438250       -0.46331198964239
H            3.52864423669898       -1.78856355345137       -0.04518484445342
H           -0.64254841687388        3.08305875195357        0.07433877170765
H           -3.42998886778593        1.84450520419776       -0.91498937784271
H           -3.49005808787941        1.85381190320649        0.89155967075965
H           -1.20365603958158       -3.01164933346737        0.87302072193683
H           -1.09960685602122       -3.00016554321931       -0.91272997985652
H           -2.54934273839784       -2.39004970732216       -0.09775045584341
H            1.20385932426044       -2.83402694194017       -0.03240685951649
25
 energy: -42.136095574925 gnorm: 0.039552131555 xtb: 6.6.1 (8d0f1dd)
C            3.49005409827515        1.04399987972095        0.01170248981821
N            2.44635009496564        0.05455280471024       -0.01341538921527
C            2.59095155101802       -1.26866362931768       -0.02857990952692
N            1.37950400552226       -1.84498262818893       -0.02650442343109
C            0.40212680106276       -0.86527574579880       -0.01308261869546
C            1.09475361617269        0.36328728024801        0.00373229798770
C           -0.54438537899342        2.08731258901917        0.06871114352913
O            0.74042430392348        1.64107908469459        0.03132235276424
N           -1.59961718953074        1.24796632906081        0.05501458770312
C           -3.04814005812309        1.38969546316912        0.00184042927310
C           -1.79111060320927       -0.07817029153111        0.09520177613294
O           -3.18073564141437       -0.03042822113416        0.00228280828110
N           -0.93105570423998       -1.12189637065731       -0.00397123032461
C           -1.46338875184736       -2.47018627996095       -0.03458909465500
H            3.76506991479477        1.28257388635756        1.04063664725165
H            4.36606161021385        0.67296447553655       -0.51565481040274
H            3.12710821177123        1.95045645296779       -0.46921736483938
H            3.52551348777295       -1.78948959102466       -0.04786850344294
H           -0.65396621269364        3.11425380426143        0.07690559673529
H           -3.42308547889794        1.84110979112752       -0.91874037322373
H           -3.49288717300535        1.85157455146123        0.88596767008963
H           -1.19453773290071       -3.01730407518343        0.87102194413532
H           -1.10047230665423       -3.00252273113277       -0.91469844440067
H           -2.54743471135202       -2.39695750788448       -0.09122894591327
H            1.20333076146839       -2.83671077892086       -0.03561701772810
25
 energy: -42.136422654081 gnorm: 0.034902844182 xtb: 6.6.1 (8d0f1dd)
C            3.48791254092104        1.04310786845074        0.01200126162274
N            2.44146859289204        0.05658180677007       -0.01425606299943
C            2.58819096515271       -1.26655553055034       -0.03059540864147
N            1.37843656955675       -1.84534501970165       -0.02850988647167
C            0.40080797108280       -0.86687427852580       -0.01458750603847
C            1.08902971314558        0.36390773125047        0.00314396754713
C           -0.54774206294528        2.09378087017130        0.07278247967156
O            0.73447694137273        1.63836887077442        0.03187267591361
N           -1.59276703460511        1.24620552524785        0.05928769792194
C           -3.04194568117996        1.39028489057245       -0.00071792810635
C           -1.78742979624521       -0.07789473444092        0.10494586212709
O           -3.17505780709815       -0.02977430614947        0.00211059083273
N           -0.93211624230963       -1.12396016580011       -0.00409559374160
C           -1.46305416868426       -2.47277092885618       -0.03361860264408
H            3.75846450425090        1.28491685412444        1.04144972057647
H            4.36563963761867        0.66618020838855       -0.50873824390449
H            3.13053591057988        1.94844497401950       -0.47510397261278
H            3.52340429281768       -1.78646749947303       -0.05098966676414
H           -0.65855298624397        3.12500452264106        0.07981334004629
H           -3.41315162780614        1.83984492459752       -0.92386980872702
H           -3.49245198669801        1.85382499408666        0.87981162498202
H           -1.18685773194338       -3.02106382054628        0.86922058160468
H           -1.10359957242316       -3.00234613044087       -0.91696108489742
H           -2.54738665818656       -2.40169051164359       -0.08377296699277
H            1.20417723107708       -2.83747257336697       -0.03945145240236
25
 energy: -42.136797326860 gnorm: 0.026408509399 xtb: 6.6.1 (8d0f1dd)
C            3.48469318756699        1.04275128872669        0.01260575348449
N            2.43490906384560        0.05995219991438       -0.01601809894499
C            2.58496653353903       -1.26279475917788       -0.03483297293095
N            1.37747863637032       -1.84518548904991       -0.03269081025856
C            0.39889443265100       -0.86908910055167       -0.01772253734704
C            1.08134978190063        0.36533023005736        0.00206631104454
C           -0.54960957107358        2.09507070123599        0.08094857934548
O            0.72955367277787        1.63572259884242        0.03343665367609
N           -1.58502252226260        1.24342940175541        0.06750441957619
C           -3.03445568454791        1.39104751965702       -0.00613241317469
C           -1.78481433001806       -0.07739037623596        0.12548249322591
O           -3.16948378824159       -0.02941216157835        0.00214906558714
N           -0.93498959634641       -1.12678183082046       -0.00382817318938
C           -1.46343731824452       -2.47607086429378       -0.03162041257349
H            3.74553159657242        1.29203007657845        1.04296118824797
H            4.36577299795905        0.65603200817356       -0.49549546709138
H            3.13723810434029        1.94577509294065       -0.48627318698294
H            3.52124876196629       -1.78074751875494       -0.05747577428910
H           -0.66246565212068        3.13441248851863        0.08586017087318
H           -3.39536786380423        1.83706726675423       -0.93509705227236
H           -3.49295186474006        1.86002497061804        0.86739527964011
H           -1.17459223119154       -3.02707354635846        0.86578426369743
H           -1.11178152134084       -3.00043822757139       -0.92134794064334
H           -2.54825344629816       -2.40767124692542       -0.06936943999954
H            1.20602013483974       -2.83775218085475       -0.04711828079857
25
 energy: -42.137169698574 gnorm: 0.019091810771 xtb: 6.6.1 (8d0f1dd)
C            3.48188726466506        1.04285305067902        0.01325906269347
N            2.43005498656269        0.06248893420301       -0.01873118047631
C            2.58280031666087       -1.25969583618703       -0.04117405178635
N            1.37680734906470       -1.84457632255684       -0.03868350875778
C            0.39711749053421       -0.87073011470476       -0.02208940052200
C            1.07571044219600        0.36650753325737        0.00064671695962
C           -0.54902556992200        2.09169988797999        0.09290938127792
O            0.72848966317260        1.63509993593285        0.03608662540419
N           -1.58022241428493        1.24093556303121        0.07897889547268
C           -3.02904208224529        1.39108937520264       -0.01426510242023
C           -1.78460355634181       -0.07760569309601        0.15633410794136
O           -3.16653083823208       -0.02968986589768        0.00232284592840
N           -0.93800210577802       -1.12879527644629       -0.00262424510805
C           -1.46402763624841       -2.47834928602928       -0.02876393718099
H            3.72843899302889        1.30354856840346        1.04460571138504
H            4.36828824782950        0.64595798835662       -0.47764463893321
H            3.14581575660112        1.94189188019903       -0.50124006956015
H            3.51998790322472       -1.77571681647621       -0.06709688120760
H           -0.66437598198300        3.14150042122028        0.09490991541765
H           -3.37462429091614        1.83110450436528       -0.95192003491436
H           -3.49772880150932        1.86842225060889        0.84932145861749
H           -1.16064737987086       -3.03395291570653        0.86119588127621
H           -1.12404339251452       -2.99641843634721       -0.92686471135110
H           -2.54942129076543       -2.41195527408522       -0.05054159061662
H            1.20732844117048       -2.83737551430677       -0.05775963163707
25
 energy: -42.137664768388 gnorm: 0.017709849049 xtb: 6.6.1 (8d0f1dd)
C            3.47911229312476        1.04318347192627        0.01386042441088
N            2.42685677251141        0.06365875242411       -0.02362433974524
C            2.58116434945854       -1.25770142997242       -0.05241501918364
N            1.37563741581881       -1.84338795813869       -0.04876608198480
C            0.39492649550613       -0.87135260851388       -0.02923271450353
C            1.07222976457687        0.36702364602007       -0.00152377096881
C           -0.54619365833216        2.08405847009856        0.11401817385078
O            0.73104322040899        1.63679767883492        0.04125745516537
N           -1.57786020708263        1.23865923585912        0.09825834698159
C           -3.02451374401094        1.38941200094565       -0.02887447036185
C           -1.78652370904486       -0.07930934244000        0.21194967835592
O           -3.16500969471874       -0.03092893351879        0.00272539098448
N           -0.94084258011763       -1.12933685478939        0.00052618497258
C           -1.46435077840297       -2.47908502488075       -0.02396252362538
H            3.70153075600937        1.32352119740279        1.04620653475794
H            4.37530806839241        0.63413445903678       -0.44890619947383
H            3.15842816422672        1.93425810620801       -0.52522989038895
H            3.51893090273499       -1.77214557626550       -0.08422316967635
H           -0.66531940682026        3.14991993866091        0.11108400726343
H           -3.34475739662144        1.81747682397013       -0.98132791000628
H           -3.51107202045282        1.88078634464205        0.81732004837856
H           -1.14122714748770       -3.04309914391137        0.85403347798791
H           -1.14354393451854       -2.98802103336223       -0.93459170818178
H           -2.55033310887007       -2.41413765689358       -0.02204155348559
H            1.20681069781080       -2.83614602174293       -0.07534875362121
25
 energy: -42.138032549750 gnorm: 0.021313920700 xtb: 6.6.1 (8d0f1dd)
C            3.47787895329976        1.04357091904642        0.01392912995408
N            2.42797155159350        0.06188826888914       -0.02837709084895
C            2.58054604585932       -1.25882099053088       -0.06389832300421
N            1.37356752135501       -1.84205392992736       -0.05861125403666
C            0.39298845717236       -0.86944599774943       -0.03550312859980
C            1.07425987644404        0.36607137887559       -0.00289852761878
C           -0.54296844213589        2.07614421866519        0.13508698832789
O            0.73550814820674        1.64010893896379        0.04768262935990
N           -1.57959869845351        1.23834289960745        0.11598426584124
C           -3.02264095263090        1.38514478521140       -0.04404964012333
C           -1.78935788761697       -0.08218614708245        0.26876115350639
O           -3.16469688684437       -0.03311582182192        0.00464938954118
N           -0.94114473131950       -1.12645734944137        0.00456257805009
C           -1.46375759625834       -2.47632159224842       -0.01931448714123
H            3.67793822297569        1.34216217991325        1.04595277067830
H            4.38379372065828        0.62823059822192       -0.42303874038059
H            3.16810023597753        1.92568135469804       -0.54611132214618
H            3.51779117760751       -1.77379090911056       -0.10225155860161
H           -0.66522535234118        3.15514458022873        0.12760853023403
H           -3.31984047862435        1.79940046850738       -1.01022489412404
H           -3.52708771590698        1.89033747271218        0.78402117202751
H           -1.12756346969058       -3.04823122420890        0.84843626663602
H           -1.15916067555898       -2.97826996230080       -0.93916853747858
H           -2.54953407640393       -2.41094159756082        0.00037093628737
H            1.20266456673475       -2.83435399995770       -0.09242668843782
25
 energy: -42.138248022898 gnorm: 0.019967095133 xtb: 6.6.1 (8d0f1dd)
C            3.47844393010902        1.04387388076580        0.01352662624994
N            2.43182123295604        0.05880221089459       -0.03001307296582
C            2.58055771683835       -1.26175072440464       -0.06932384261328
N            1.37136107940888       -1.84116012947533       -0.06327544442169
C            0.39191684760305       -0.86607175283183       -0.03734110623313
C            1.07972652253036        0.36460961023075       -0.00220013302721
C           -0.54164644996340        2.07238347211520        0.14438607244086
O            0.73809871346362        1.64260401114737        0.05267526787649
N           -1.58299477397315        1.23972924927615        0.12215676960958
C           -3.02284734495996        1.38002552717237       -0.05128218356449
C           -1.79095129661294       -0.08439969036880        0.29503316417685
O           -3.16445282711173       -0.03532188984483        0.00907175397136
N           -0.93917994293309       -1.12170143316552        0.00659286744390
C           -1.46281802583165       -2.47161493677038       -0.01754671109856
H            3.66932847324877        1.34984466238052        1.04414571582595
H            4.38888746747152        0.63015397323138       -0.41306001385905
H            3.17004006788788        1.92074061987764       -0.55378743297625
H            3.51648394389057       -1.77900583073208       -0.11175917728213
H           -0.66469993998668        3.15404277909166        0.13558285186225
H           -3.31187633308139        1.78550480095514       -1.02280647159635
H           -3.53517907576941        1.89238801229124        0.76706419320772
H           -1.12705074112742       -3.04582471139091        0.84796743878360
H           -1.16178185782384       -2.97256679997257       -0.93811981380821
H           -2.54789474593455       -2.40418373757407        0.00410897395792
H            1.19713887380014       -2.83286263129896       -0.10062467405809
25
 energy: -42.138412354562 gnorm: 0.017251897322 xtb: 6.6.1 (8d0f1dd)
C            3.47951742204414        1.04411852884000        0.01223459262702
N            2.43573962621454        0.05597664613512       -0.03054759008015
C            2.58035213058212       -1.26466683481521       -0.07274336132365
N            1.36922335119015       -1.84063014524806       -0.06645998560933
C            0.39115157228601       -0.86258168559781       -0.03701712878438
C            1.08541757487487        0.36343654021613       -0.00014385552393
C           -0.54192547412611        2.07183748642474        0.15139309051207
O            0.73823434259633        1.64375524196974        0.05830063799691
N           -1.58506856895505        1.24107448321667        0.12612234711454
C           -3.02257561288998        1.37478637303089       -0.05572593326455
C           -1.79122113451555       -0.08611642656354        0.31181889399004
O           -3.16320021363517       -0.03727446637880        0.01487368893444
N           -0.93674069533036       -1.11679235166272        0.00815815709086
C           -1.46209813296650       -2.46684038425289       -0.01718446318359
H            3.66394351676498        1.35576494309601        1.04183788621129
H            4.39384404327729        0.63201705230460       -0.40732757659324
H            3.16997138719674        1.91639128193609       -0.56120067787980
H            3.51469238991318       -1.78477512182310       -0.11894398701350
H           -0.66481906423380        3.15106316055387        0.14267162191488
H           -3.30728347049836        1.77233611378863       -1.03155459672195
H           -3.54190773083813        1.89334156315347        0.75441866892815
H           -1.13088655739458       -3.04118705687034        0.84984347892862
H           -1.15876050403963       -2.96835443224064       -0.93615258498007
H           -2.54700000006333       -2.39669496082436        0.00067289870002
H            1.19183131664521       -2.83174700678862       -0.10617260408850
25
 energy: -42.138555443890 gnorm: 0.014789770186 xtb: 6.6.1 (8d0f1dd)
C            3.47995522274899        1.04441889067050        0.01004121586322
N            2.43777633989519        0.05447671861685       -0.03110453209646
C            2.57938562717050       -1.26619143867882       -0.07736168444117
N            1.36724714437761       -1.84014377441599       -0.07010290045865
C            0.39020957689348       -0.85992824208044       -0.03598731289764
C            1.08891026679707        0.36310172358089        0.00300436301381
C           -0.54293878858966        2.07243427768616        0.16169979743473
O            0.73661980205277        1.64375900818748        0.06573493148920
N           -1.58458450474113        1.24136488778884        0.13347664675360
C           -3.02041346846057        1.37008591285994       -0.06116015879139
C           -1.79078190284345       -0.08745131799181        0.33342521448682
O           -3.16080744510591       -0.03891770250454        0.02082090746841
N           -0.93541431893733       -1.11296730484960        0.01035483830849
C           -1.46198143580503       -2.46326501314810       -0.01695725718287
H            3.65639882264709        1.36475014787608        1.03852640775545
H            4.39849470907260        0.63082348701776       -0.39997440009880
H            3.17163612665850        1.91121637500930       -0.57313934298328
H            3.51234210698078       -1.78864747842624       -0.12854470282752
H           -0.66561883087794        3.14786544143480        0.15315984784003
H           -3.29702982175256        1.75837874088930       -1.04392314043483
H           -3.54978322426816        1.89728314834411        0.73792231566915
H           -1.13560989041837       -3.03769318833414        0.85228021603563
H           -1.15435798901176       -2.96478213747505       -0.93445817037885
H           -2.54702358146765       -2.39092410236094       -0.00418408181164
H            1.18780097108394       -2.83080851809645       -0.11237739981324
25
 energy: -42.138708497846 gnorm: 0.010305954725 xtb: 6.6.1 (8d0f1dd)
C            3.47949002868436        1.04491803828198        0.00693234835090
N            2.43748355718781        0.05462931566542       -0.03102640826228
C            2.57743083483957       -1.26583665251633       -0.08273081455040
N            1.36522040341704       -1.83922811079342       -0.07357348876616
C            0.38882558211317       -0.85800392538552       -0.03379347771139
C            1.08966856230189        0.36389935691251        0.00775608663271
C           -0.54434266137731        2.07360771240142        0.17314643073689
O            0.73386820280690        1.64312527173141        0.07498268713034
N           -1.58182872259526        1.24065345625848        0.14243817355547
C           -3.01608865105973        1.36558754931018       -0.06640903021265
C           -1.78997706476081       -0.08826083184336        0.35670830716417
O           -3.15738981608918       -0.04057570915380        0.02834057877211
N           -0.93571613924561       -1.11009958636062        0.01227801683465
C           -1.46266567086806       -2.46067454818603       -0.01736447049503
H            3.64833540002471        1.37606347050822        1.03319245626424
H            4.40111897775614        0.62741940008297       -0.39240429555262
H            3.17502094964534        1.90561744039120       -0.58767425967677
H            3.50927636755828       -1.78988582798318       -0.13981013933653
H           -0.66638360334779        3.14174771277274        0.16564821038744
H           -3.28200300162554        1.74379743515842       -1.05677628361158
H           -3.55513738174187        1.90326836796853        0.71937450298453
H           -1.14525105328652       -3.03388105550260        0.85640489740467
H           -1.14567207472988       -2.96318123147554       -0.93112245170775
H           -2.54780941547813       -2.38685420342173       -0.01536757511448
H            1.18495790396949       -2.82961430322144       -0.11797838331829
25
 energy: -42.138798031442 gnorm: 0.005828938378 xtb: 6.6.1 (8d0f1dd)
C            3.47784085085253        1.04532675009202        0.00469799846269
N            2.43436491942141        0.05653095242801       -0.03132612856661
C            2.57546089792877       -1.26346612514573       -0.08722791177543
N            1.36415090818360       -1.83815053962556       -0.07639947117828
C            0.38745256848172       -0.85818807148988       -0.03258828368809
C            1.08636941151504        0.36528984320483        0.01073846065186
C           -0.54470892598900        2.07412040535606        0.18157412457641
O            0.73260518803538        1.64287548516482        0.08120777807880
N           -1.57824288838780        1.23910249928926        0.14998822897517
C           -3.01152612355605        1.36390237915873       -0.07006521344641
C           -1.78949887977352       -0.08829195889836        0.37484032152454
O           -3.15470592721724       -0.04134733478837        0.03314007574553
N           -0.93786737918938       -1.11008404287765        0.01322492212728
C           -1.46367247644528       -2.46071805630819       -0.01746002866106
H            3.63974042158853        1.38621587729908        1.02927361714333
H            4.40138566143820        0.62137647219324       -0.38411843088268
H            3.18015801792984        1.90149756330737       -0.60051462912756
H            3.50738058829732       -1.78688337776718       -0.14812212586432
H           -0.66652476277892        3.13761294366749        0.17507929931212
H           -3.26740577394008        1.73535756991254       -1.06584241361732