72
 energy: -99.254333925198 gnorm: 0.002580211424 xtb: 6.6.1 (8d0f1dd)
N           -1.87870460219809        2.87477529912888        2.28301355929347
C           -1.80620801780677        2.15966604162585        1.26332418353674
C           -2.92259866538914        1.96300173553663        0.27455269492519
C           -3.40393322398190        0.52159747148401        0.33453662133684
C           -4.27734640588293        0.03882387980882       -0.64204117493633
C           -4.76940407343985       -1.25551596452753       -0.59689404818603
O           -5.61921714948663       -1.79780001356012       -1.49120698790937
C           -6.15586837870943       -0.99095861201017       -2.51323576786609
C           -4.37510545202170       -2.11874244869046        0.46243636070953
O           -4.90462643571167       -3.35635660329096        0.42713364509243
C           -4.65430151745129       -4.24223081044638        1.49384788600096
C           -3.50607671110771       -1.63321546095079        1.42699079331735
C           -3.02919923830664       -0.33012061082944        1.36300028576861
C           -2.31249130291793        2.27647564025070       -1.11647861875807
C           -1.38673276628160        1.17947022285947       -1.67157169334861
C           -0.08354755322742        1.08347930884463       -0.97790122863050
N            0.50273071341112       -0.04531819317916       -0.60810256280053
C            1.87482107875568       -0.05136146022873       -0.15505007417189
C            2.83586059437600       -0.51204136842094       -1.26722656011166
C            4.24303004685086       -0.57063161871612       -0.73209349764107
C            5.02481431739169        0.57621803412541       -0.72576303376973
C            6.32132764043359        0.52312021072501       -0.20022727877731
C            6.72738044726704       -0.66481060180347        0.27837710836269
O            7.77272973383324        3.11781897774557       -0.29972623365577
C            9.07030449591161        3.39469995054361       -0.28624421945400
C            6.02850122240989       -1.85000014019468        0.31709253972504
O            6.59305030296771       -2.95207967468196        0.83352953318360
C            5.86312033765575       -4.15740384447564        0.86343181664270
C            4.73071833721608       -1.76580114140932       -0.21477093969507
C           -0.15780551014123       -1.32413283264065       -0.72243174945215
C           -4.14694210225556        2.89190745057797        0.53288106729125
C           -4.82293520467649        2.57231796640024        1.86372513778131
C           -3.79540931358573        4.37568473804537        0.47378101275781
H           -4.59065941073668        0.69181189759712       -1.43961053024321
H           -6.70774388676583       -0.14004950986344       -2.10267010486397
H           -6.84144127706549       -1.63347473293450       -3.06219697961344
H           -5.37743276016211       -0.63056175644122       -3.19359982667429
H           -4.99164451134773       -3.82565937699203        2.44729841567597
H           -5.22771015075418       -5.13928466359619        1.26865198114753
H           -3.59259314471920       -4.49948309486086        1.56205296709916
H           -3.20263698647280       -2.25913191559386        2.25041447635489
H           -2.38034452926109        0.02068732112772        2.15041680495273
H           -3.12252200861216        2.42430994858614       -1.82977767456227
H           -1.75752249047634        3.21304996678071       -1.05122318848320
H           -1.91229872060473        0.22630877376220       -1.67447164375942
H           -1.17505779292970        1.44820232129625       -2.71484824873472
H           -0.88900532734718        1.62214819927631        0.94975577289238
H            0.50443618144632        1.98601253603468       -0.89373582128638
H            1.96447500907850       -0.72310017454976        0.70311744375100
H            2.15829794412989        0.95249988268025        0.16644364096160
H            2.78220256037911        0.19395557771823       -2.09735085524667
H            2.53210226680585       -1.49480345736553       -1.63002077916568
H            4.66083238958691        1.50852252037069       -1.12717002537167
H            6.93521129176396        1.42475654253259       -0.19766441059036
H            9.25552016847618        4.43678635613124        0.04033197276670
H            9.53134724393322        3.27704321441983       -1.28649235223553
H            9.62802842139143        2.73411753515114        0.40732674074369
H            6.53278352269123       -4.89276281499339        1.30458965665294
H            4.96748383326670       -4.06582684693930        1.48579559926397
H            5.58364255175848       -4.48219539303150       -0.14332160838368
H            4.10942015375355       -2.64921090525894       -0.23392004411225
H           -0.30719478376433       -1.60070669784611       -1.76822624342390
H           -1.12966808984960       -1.29715204343579       -0.22313854959415
H            0.45290941858849       -2.08709750396579       -0.24602912428199
H           -4.86642030161132        2.68190807789453       -0.26715161767895
H           -4.14566933989947        2.78099426564164        2.68562050732911
H           -5.12643609114761        1.52932149822701        1.91106032555585
H           -5.70844103307402        3.19155577265055        1.97953540129798
H           -3.03762398662530        4.61498205838439        1.21425656930053
H           -3.44244493734105        4.67092379291200       -0.51133393363407
H           -4.68371040863184        4.96128216600895        0.69765488839329
H           -1.05589103492478        2.96292465702021        2.87020666375242
