      -----------------------------------------------------------      
     |                   =====================                   |     
     |                           x T B                           |     
     |                   =====================                   |     
     |                         S. Grimme                         |     
     |          Mulliken Center for Theoretical Chemistry        |     
     |                    University of Bonn                     |     
      -----------------------------------------------------------      

   * xtb version 6.6.1 (8d0f1dd) compiled by 'conda@1efc2f54142f' on 2023-08-01

   xtb is free software: you can redistribute it and/or modify it under
   the terms of the GNU Lesser General Public License as published by
   the Free Software Foundation, either version 3 of the License, or
   (at your option) any later version.
   
   xtb is distributed in the hope that it will be useful,
   but WITHOUT ANY WARRANTY; without even the implied warranty of
   MERCHANTABILITY or FITNESS FOR A PARTICULAR PURPOSE.  See the
   GNU Lesser General Public License for more details.
   
   Cite this work as:
   * C. Bannwarth, E. Caldeweyher, S. Ehlert, A. Hansen, P. Pracht,
     J. Seibert, S. Spicher, S. Grimme, WIREs Comput. Mol. Sci., 2020, 11,
     e01493. DOI: 10.1002/wcms.1493
   
   for GFN2-xTB:
   * C. Bannwarth, S. Ehlert and S. Grimme., J. Chem. Theory Comput., 2019,
     15, 1652-1671. DOI: 10.1021/acs.jctc.8b01176
   for GFN1-xTB:
   * S. Grimme, C. Bannwarth, P. Shushkov, J. Chem. Theory Comput., 2017,
     13, 1989-2009. DOI: 10.1021/acs.jctc.7b00118
   for GFN0-xTB:
   * P. Pracht, E. Caldeweyher, S. Ehlert, S. Grimme, ChemRxiv, 2019, preprint.
     DOI: 10.26434/chemrxiv.8326202.v1
   for GFN-FF:
   * S. Spicher and S. Grimme, Angew. Chem. Int. Ed., 2020, 59, 15665-15673.
     DOI: 10.1002/anie.202004239
   
   for ALPB and GBSA implicit solvation:
   * S. Ehlert, M. Stahn, S. Spicher, S. Grimme, J. Chem. Theory Comput.,
     2021, 17, 4250-4261. DOI: 10.1021/acs.jctc.1c00471
   
   for DFT-D4:
   * E. Caldeweyher, C. Bannwarth and S. Grimme, J. Chem. Phys., 2017,
     147, 034112. DOI: 10.1063/1.4993215
   * E. Caldeweyher, S. Ehlert, A. Hansen, H. Neugebauer, S. Spicher,
     C. Bannwarth and S. Grimme, J. Chem. Phys., 2019, 150, 154122.
     DOI: 10.1063/1.5090222
   * E. Caldeweyher, J.-M. Mewes, S. Ehlert and S. Grimme, Phys. Chem. Chem. Phys.
     2020, 22, 8499-8512. DOI: 10.1039/D0CP00502A
   
   for sTDA-xTB:
   * S. Grimme and C. Bannwarth, J. Chem. Phys., 2016, 145, 054103.
     DOI: 10.1063/1.4959605
   
   in the mass-spec context:
   * V. Asgeirsson, C. Bauer and S. Grimme, Chem. Sci., 2017, 8, 4879.
     DOI: 10.1039/c7sc00601b
   * J. Koopman and S. Grimme, ACS Omega 2019, 4, 12, 15120-15133.
     DOI: 10.1021/acsomega.9b02011
   
   for metadynamics refer to:
   * S. Grimme, J. Chem. Theory Comput., 2019, 155, 2847-2862
     DOI: 10.1021/acs.jctc.9b00143
   
   for SPH calculations refer to:
   * S. Spicher and S. Grimme, J. Chem. Theory Comput., 2021, 17, 1701-1714
     DOI: 10.1021/acs.jctc.0c01306
   
   with help from (in alphabetical order)
   P. Atkinson, C. Bannwarth, F. Bohle, G. Brandenburg, E. Caldeweyher
   M. Checinski, S. Dohm, S. Ehlert, S. Ehrlich, I. Gerasimov, C. Hölzer
   A. Katbashev, J. Koopman, C. Lavigne, S. Lehtola, F. März, M. Müller,
   F. Musil, H. Neugebauer, J. Pisarek, C. Plett, P. Pracht, F. Pultar,
   J. Seibert, P. Shushkov, S. Spicher, M. Stahn, M. Steiner, T. Strunk,
   J. Stückrath, T. Rose, and J. Unsleber
   
 * started run on 2024/06/05 at 19:58:45.507     

           -------------------------------------------------
          |                Calculation Setup                |
           -------------------------------------------------

          program call               : xtb struc.xyz --opt loose --input .xc1 --gfn2
          hostname                   : n-62-29-9
          coordinate file            : struc.xyz
          omp threads                :                     1

   ID    Z sym.   atoms
    1    6 C      1, 3, 5-7, 10, 11, 14
    2    7 N      2, 4, 9, 13
    3    8 O      8, 12
    4    1 H      15-25
constraining bond 5 14 to    5.0000000 Å, actual value:    2.4460888 Å

           -------------------------------------------------
          |                 G F N 2 - x T B                 |
           -------------------------------------------------

        Reference                      10.1021/acs.jctc.8b01176
      * Hamiltonian:
        H0-scaling (s, p, d)           1.850000    2.230000    2.230000
        zeta-weighting                 0.500000
      * Dispersion:
        s8                             2.700000
        a1                             0.520000
        a2                             5.000000
        s9                             5.000000
      * Repulsion:
        kExp                           1.500000    1.000000
        rExp                           1.000000
      * Coulomb:
        alpha                          2.000000
        third order                    shell-resolved
        anisotropic                    true
        a3                             3.000000
        a5                             4.000000
        cn-shift                       1.200000
        cn-exp                         4.000000
        max-rad                        5.000000


          ...................................................
          :                      SETUP                      :
          :.................................................:
          :  # basis functions                  67          :
          :  # atomic orbitals                  67          :
          :  # shells                           39          :
          :  # electrons                        74          :
          :  max. iterations                   250          :
          :  Hamiltonian                  GFN2-xTB          :
          :  restarted?                      false          :
          :  GBSA solvation                  false          :
          :  PC potential                    false          :
          :  electronic temp.         7500.0000000     K    :
          :  accuracy                    1.0000000          :
          :  -> integral cutoff          0.2500000E+02      :
          :  -> integral neglect         0.1000000E-07      :
          :  -> SCF convergence          0.1000000E-05 Eh   :
          :  -> wf. convergence          0.1000000E-03 e    :
          :  Broyden damping             0.4000000          :
          ...................................................

 iter      E             dE          RMSdq      gap      omega  full diag
   1    -42.5960780 -0.425961E+02  0.440E+00    3.52       0.0  T
   2    -42.7780033 -0.181925E+00  0.248E+00    3.37       1.0  T
   3    -42.7871777 -0.917437E-02  0.149E+00    3.50       1.0  T
   4    -42.7817164  0.546128E-02  0.642E-01    3.42       1.0  T
   5    -42.7911189 -0.940247E-02  0.115E-01    3.49       1.0  T
   6    -42.7912109 -0.920486E-04  0.685E-02    3.46       1.0  T
   7    -42.7912647 -0.537856E-04  0.265E-02    3.48       1.0  T
   8    -42.7912686 -0.385526E-05  0.113E-02    3.47       1.8  T
   9    -42.7912697 -0.111307E-05  0.441E-03    3.47       4.5  T
  10    -42.7912698 -0.733569E-07  0.139E-03    3.47      14.4  T
  11    -42.7912698 -0.243437E-08  0.602E-04    3.47      33.2  T
  12    -42.7912698 -0.222032E-08  0.181E-04    3.47     110.6  T

   *** convergence criteria satisfied after 12 iterations ***

         #    Occupation            Energy/Eh            Energy/eV
      -------------------------------------------------------------
         1        2.0000           -0.9116047             -24.8060
       ...           ...                  ...                  ...
        31        1.9942           -0.6212459             -16.9050
        32        1.9930           -0.6166804             -16.7807
        33        1.9876           -0.6031136             -16.4116
        34        1.9710           -0.5827317             -15.8569
        35        1.9403           -0.5651917             -15.3796
        36        1.9387           -0.5645672             -15.3627
        37        1.9155           -0.5566412             -15.1470 (HOMO)
        38        0.1907           -0.4290919             -11.6762 (LUMO)
        39        0.0640           -0.4015676             -10.9272
        40        0.0206           -0.3740689             -10.1789
        41        0.0006           -0.2879107              -7.8344
        42        0.0000           -0.2065811              -5.6214
       ...           ...                  ...                  ...
        67                          0.5613577              15.2753
      -------------------------------------------------------------
                  HL-Gap            0.1275493 Eh            3.4708 eV
             Fermi-level           -0.4825284 Eh          -13.1303 eV

 SCC (total)                   0 d,  0 h,  0 min,  0.036 sec
 SCC setup                      ...        0 min,  0.000 sec (  0.855%)
 Dispersion                     ...        0 min,  0.000 sec (  1.037%)
 classical contributions        ...        0 min,  0.000 sec (  0.339%)
 integral evaluation            ...        0 min,  0.006 sec ( 15.343%)
 iterations                     ...        0 min,  0.018 sec ( 50.240%)
 molecular gradient             ...        0 min,  0.012 sec ( 31.734%)
 printout                       ...        0 min,  0.000 sec (  0.410%)

         :::::::::::::::::::::::::::::::::::::::::::::::::::::
         ::                     SUMMARY                     ::
         :::::::::::::::::::::::::::::::::::::::::::::::::::::
         :: total energy             -30.613984207600 Eh    ::
         :: gradient norm              6.826247107537 Eh/a0 ::
         :: HOMO-LUMO gap              3.470793873671 eV    ::
         ::.................................................::
         :: SCC energy               -42.791269777655 Eh    ::
         :: -> isotropic ES            0.136760385929 Eh    ::
         :: -> anisotropic ES         -0.005341405309 Eh    ::
         :: -> anisotropic XC          0.011501049227 Eh    ::
         :: -> dispersion             -0.022650340738 Eh    ::
         :: repulsion energy           0.531105277918 Eh    ::
         :: add. restraining          11.646066133129 Eh    ::
         :: total charge               1.000000000010 e     ::
         :::::::::::::::::::::::::::::::::::::::::::::::::::::

      ----------------------------------------------------------- 
     |                   =====================                   |
     |                        A N C O P T                        |
     |                   =====================                   |
     |               Approximate Normal Coordinate               |
     |                Rational Function Optimizer                |
      ----------------------------------------------------------- 

          ...................................................
          :                      SETUP                      :
          :.................................................:
          :   optimization level             loose          :
          :   max. optcycles                   200          :
          :   ANC micro-cycles                  20          :
          :   degrees of freedom                69          :
          :.................................................:
          :   RF solver                   davidson          :
          :   write xtbopt.log                true          :
          :   linear?                        false          :
          :   energy convergence         0.5000000E-04 Eh   :
          :   grad. convergence          0.4000000E-02 Eh/α :
          :   maxmium RF displ.          1.0000000          :
          :   Hlow (freq-cutoff)         0.1000000E-01      :
          :   Hmax (freq-cutoff)         5.0000000          :
          :   S6 in model hess.         20.0000000          :
          ...................................................

generating ANC from model Hessian ...
Using Lindh-Hessian (1995)
 Shifting diagonal of input Hessian by    1.6179672709228943     
 Lowest  eigenvalues of input Hessian
    0.010000    0.409168    0.000000    0.000000    0.000000    0.000000
    0.000000    0.000000    1.621470    1.622910    1.626647    1.627126
    1.629761    1.630912    1.633942    1.638199    1.642411    1.650889
 Highest eigenvalues
    3.707431    3.766210    3.837069    4.020125    4.120518    4.995217


........................................................................
.............................. CYCLE    1 ..............................
........................................................................

 iter      E             dE          RMSdq      gap      omega  full diag
   1    -42.7912698 -0.427913E+02  0.838E-05    3.47       0.0  T
   2    -42.7912698 -0.247127E-10  0.452E-05    3.47     442.9  T
   3    -42.7912698 -0.149214E-11  0.279E-05    3.47     715.8  T
     SCC iter.                  ...        0 min,  0.005 sec
     gradient                   ...        0 min,  0.011 sec
 * total energy  :   -30.6139842 Eh     change       -0.2401990E-09 Eh
   gradient norm :     6.8262476 Eh/α   predicted     0.0000000E+00 (-100.00%)
   displ. norm   :     0.7149338 α      lambda       -0.4862815E+01
   maximum displ.:     0.6446569 α      in ANC's #69, #61, #63, ...

........................................................................
.............................. CYCLE    2 ..............................
........................................................................

 iter      E             dE          RMSdq      gap      omega  full diag
   1    -42.7265099 -0.427265E+02  0.140E+00    3.65       0.0  T
   2    -42.7440029 -0.174930E-01  0.829E-01    3.12       1.0  T
   3    -42.7488014 -0.479858E-02  0.438E-01    3.51       1.0  T
   4    -42.7487778  0.235911E-04  0.144E-01    3.31       1.0  T
   5    -42.7492756 -0.497772E-03  0.386E-02    3.41       1.0  T
   6    -42.7492976 -0.219990E-04  0.164E-02    3.41       1.2  T
   7    -42.7492987 -0.112566E-05  0.585E-03    3.42       3.4  T
   8    -42.7492993 -0.555788E-06  0.152E-03    3.42      13.2  T
   9    -42.7492993 -0.125024E-07  0.656E-04    3.42      30.5  T
  10    -42.7492993 -0.228749E-08  0.238E-04    3.42      84.1  T
     SCC iter.                  ...        0 min,  0.014 sec
     gradient                   ...        0 min,  0.011 sec
 * total energy  :   -34.8220857 Eh     change       -0.4208101E+01 Eh
   gradient norm :     4.9741026 Eh/α   predicted    -0.3675289E+01 ( -12.66%)
   displ. norm   :     0.7855022 α      lambda       -0.3885313E+01
   maximum displ.:     0.6819130 α      in ANC's #69, #61, #63, ...

........................................................................
.............................. CYCLE    3 ..............................
........................................................................

 iter      E             dE          RMSdq      gap      omega  full diag
   1    -42.5380043 -0.425380E+02  0.139E+00    2.84       0.0  T
   2    -42.5120905  0.259139E-01  0.176E+00    1.68       1.0  T
   3    -42.5854309 -0.733404E-01  0.568E-01    2.68       1.0  T
   4    -42.5815428  0.388810E-02  0.418E-01    2.38       1.0  T
   5    -42.5855609 -0.401811E-02  0.129E-01    2.61       1.0  T
   6    -42.5859559 -0.395020E-03  0.324E-02    2.66       1.0  T
   7    -42.5859702 -0.142814E-04  0.142E-02    2.68       1.4  T
   8    -42.5859705 -0.263642E-06  0.769E-03    2.68       2.6  T
   9    -42.5859723 -0.183834E-05  0.419E-03    2.68       4.8  T
  10    -42.5859727 -0.376338E-06  0.797E-04    2.68      25.1  T
  11    -42.5859727 -0.214386E-08  0.334E-04    2.68      59.8  T
     SCC iter.                  ...        0 min,  0.015 sec
     gradient                   ...        0 min,  0.011 sec
 * total energy  :   -38.0017225 Eh     change       -0.3179637E+01 Eh
   gradient norm :     3.2494183 Eh/α   predicted    -0.3141306E+01 (  -1.21%)
   displ. norm   :     0.7907699 α      lambda       -0.2544774E+01
   maximum displ.:     0.5540243 α      in ANC's #69, #61, #57, ...

........................................................................
.............................. CYCLE    4 ..............................
........................................................................

 iter      E             dE          RMSdq      gap      omega  full diag
   1    -42.3150708 -0.423151E+02  0.111E+00    1.56       0.0  T
   2    -42.1502968  0.164774E+00  0.233E+00    0.79       1.0  T
   3    -42.3529231 -0.202626E+00  0.757E-01    1.57       1.0  T
   4    -42.3285815  0.243416E-01  0.937E-01    1.57       1.0  T
   5    -42.3524319 -0.238504E-01  0.480E-01    1.53       1.0  T
   6    -42.3575586 -0.512674E-02  0.200E-01    1.65       1.0  T
   7    -42.3591903 -0.163170E-02  0.579E-02    1.62       1.0  T
   8    -42.3592794 -0.891267E-04  0.145E-02    1.62       1.4  T
   9    -42.3592804 -0.101697E-05  0.694E-03    1.62       2.9  T
  10    -42.3592813 -0.810098E-06  0.306E-03    1.62       6.5  T
  11    -42.3592814 -0.144020E-06  0.121E-03    1.62      16.6  T
  12    -42.3592814 -0.222078E-07  0.626E-04    1.62      31.9  T
  13    -42.3592814 -0.953071E-08  0.239E-04    1.62      83.7  T
     SCC iter.                  ...        0 min,  0.018 sec
     gradient                   ...        0 min,  0.011 sec
 * total energy  :   -40.0834310 Eh     change       -0.2081708E+01 Eh
   gradient norm :     2.0649049 Eh/α   predicted    -0.2068102E+01 (  -0.65%)
   displ. norm   :     0.7023925 α      lambda       -0.1440119E+01
   maximum displ.:     0.5183427 α      in ANC's #69, #61, #57, ...

........................................................................
.............................. CYCLE    5 ..............................
........................................................................

 iter      E             dE          RMSdq      gap      omega  full diag
   1    -42.1691919 -0.421692E+02  0.130E+00    0.97       0.0  T
   2    -42.1618503  0.734159E-02  0.998E-01    0.97       1.0  T
   3    -42.0817169  0.801334E-01  0.124E+00    0.85       1.0  T
   4    -42.1335832 -0.518663E-01  0.879E-01    1.05       1.0  T
   5    -42.1685508 -0.349676E-01  0.351E-01    0.93       1.0  T
   6    -42.1732365 -0.468570E-02  0.944E-02    0.96       1.0  T
   7    -42.1730878  0.148731E-03  0.910E-02    0.96       1.0  T
   8    -42.1733515 -0.263713E-03  0.427E-02    0.96       1.0  T
   9    -42.1734169 -0.654558E-04  0.153E-02    0.96       1.3  T
  10    -42.1734199 -0.298484E-05  0.101E-02    0.95       2.0  T
  11    -42.1734241 -0.412145E-05  0.350E-03    0.95       5.7  T
  12    -42.1734245 -0.420034E-06  0.118E-03    0.95      17.0  T
  13    -42.1734245 -0.345511E-07  0.323E-04    0.95      61.9  T
  14    -42.1734245 -0.140740E-08  0.829E-05    0.95     241.3  T
     SCC iter.                  ...        0 min,  0.020 sec
     gradient                   ...        0 min,  0.011 sec
 * total energy  :   -41.1400464 Eh     change       -0.1056615E+01 Eh
   gradient norm :     0.9540106 Eh/α   predicted    -0.1075305E+01 (   1.77%)
   displ. norm   :     0.4990480 α      lambda       -0.4653045E+00
   maximum displ.:     0.3458799 α      in ANC's #69, #61, #2, ...

........................................................................
.............................. CYCLE    6 ..............................
........................................................................

 iter      E             dE          RMSdq      gap      omega  full diag
   1    -42.0465213 -0.420465E+02  0.125E+00    0.45       0.0  T
   2    -41.8128445  0.233677E+00  0.200E+00    0.60       1.0  T
   3    -41.9630087 -0.150164E+00  0.142E+00    0.34       1.0  T
   4    -42.0400536 -0.770449E-01  0.948E-01    0.53       1.0  T
   5    -42.0685452 -0.284916E-01  0.217E-01    0.47       1.0  T
   6    -42.0684892  0.560204E-04  0.171E-01    0.46       1.0  T
   7    -42.0684059  0.832569E-04  0.140E-01    0.46       1.0  T
   8    -42.0693012 -0.895306E-03  0.429E-02    0.47       1.0  T
   9    -42.0693142 -0.129728E-04  0.195E-02    0.47       1.0  T
  10    -42.0693215 -0.734498E-05  0.830E-03    0.46       2.4  T
  11    -42.0693242 -0.266883E-05  0.351E-03    0.47       5.7  T
  12    -42.0693245 -0.280110E-06  0.936E-04    0.47      21.4  T
  13    -42.0693245 -0.152832E-07  0.408E-04    0.47      49.0  T
     SCC iter.                  ...        0 min,  0.018 sec
     gradient                   ...        0 min,  0.011 sec
 * total energy  :   -41.4226483 Eh     change       -0.2826018E+00 Eh
   gradient norm :     0.3167695 Eh/α   predicted    -0.2905943E+00 (   2.83%)
   displ. norm   :     0.2212921 α      lambda       -0.6628583E-01
   maximum displ.:     0.0896311 α      in ANC's #69, #36, #40, ...

........................................................................
.............................. CYCLE    7 ..............................
........................................................................

 iter      E             dE          RMSdq      gap      omega  full diag
   1    -42.0512985 -0.420513E+02  0.484E-01    0.29       0.0  T
   2    -41.9496573  0.101641E+00  0.140E+00    0.48       1.0  T
   3    -42.0576378 -0.107981E+00  0.343E-01    0.27       1.0  T
   4    -42.0601370 -0.249923E-02  0.175E-01    0.34       1.0  T
   5    -42.0596503  0.486710E-03  0.166E-01    0.28       1.0  T
   6    -42.0601709 -0.520567E-03  0.962E-02    0.31       1.0  T
   7    -42.0607043 -0.533469E-03  0.318E-02    0.31       1.0  T
   8    -42.0607158 -0.114837E-04  0.220E-02    0.31       1.0  T
   9    -42.0607339 -0.180574E-04  0.835E-03    0.31       2.4  T
  10    -42.0607343 -0.412485E-06  0.641E-03    0.31       3.1  T
  11    -42.0607359 -0.157763E-05  0.201E-03    0.31       9.9  T
  12    -42.0607360 -0.119403E-06  0.328E-04    0.31      61.0  T
  13    -42.0607360 -0.105599E-08  0.141E-04    0.31     142.1  T
     SCC iter.                  ...        0 min,  0.018 sec
     gradient                   ...        0 min,  0.011 sec
 * total energy  :   -41.4710938 Eh     change       -0.4844555E-01 Eh
   gradient norm :     0.2398389 Eh/α   predicted    -0.3476644E-01 ( -28.24%)
   displ. norm   :     0.3004420 α      lambda       -0.5756192E-01
   maximum displ.:     0.1223121 α      in ANC's #36, #40, #23, ...

........................................................................
.............................. CYCLE    8 ..............................
........................................................................

 iter      E             dE          RMSdq      gap      omega  full diag
   1    -42.0550124 -0.420550E+02  0.479E-01    0.17       0.0  T
   2    -41.9693371  0.856753E-01  0.135E+00    0.35       1.0  T
   3    -42.0614567 -0.921196E-01  0.399E-01    0.15       1.0  T
   4    -42.0586350  0.282168E-02  0.356E-01    0.28       1.0  T
   5    -42.0633431 -0.470809E-02  0.198E-01    0.15       1.0  T
   6    -42.0644117 -0.106857E-02  0.459E-02    0.19       1.0  T
   7    -42.0644983 -0.866566E-04  0.167E-02    0.19       1.2  T
   8    -42.0644987 -0.323817E-06  0.128E-02    0.19       1.6  T
   9    -42.0645020 -0.335551E-05  0.634E-03    0.19       3.2  T
  10    -42.0645014  0.621900E-06  0.586E-03    0.19       3.4  T
  11    -42.0645029 -0.150836E-05  0.253E-03    0.19       7.9  T
  12    -42.0645031 -0.228904E-06  0.671E-04    0.20      29.8  T
  13    -42.0645031 -0.100098E-07  0.307E-04    0.20      65.1  T
     SCC iter.                  ...        0 min,  0.018 sec
     gradient                   ...        0 min,  0.011 sec
 * total energy  :   -41.5142082 Eh     change       -0.4311445E-01 Eh
   gradient norm :     0.2176568 Eh/α   predicted    -0.3137885E-01 ( -27.22%)
   displ. norm   :     0.3967727 α      lambda       -0.5194533E-01
   maximum displ.:     0.1822709 α      in ANC's #1, #36, #23, ...

........................................................................
.............................. CYCLE    9 ..............................
........................................................................

 iter      E             dE          RMSdq      gap      omega  full diag
   1    -42.0726678 -0.420727E+02  0.475E-01    0.10       0.0  T
   2    -42.0435362  0.291315E-01  0.968E-01    0.13       1.0  T
   3    -42.0743368 -0.308005E-01  0.484E-01    0.07       1.0  T
   4    -42.0462733  0.280635E-01  0.758E-01    0.31       1.0  T
   5    -42.0765013 -0.302280E-01  0.256E-01    0.06       1.0  T
   6    -42.0781961 -0.169480E-02  0.395E-02    0.11       1.0  T
   7    -42.0782396 -0.435333E-04  0.160E-02    0.11       1.2  T
   8    -42.0782408 -0.122882E-05  0.121E-02    0.11       1.7  T
   9    -42.0782436 -0.280789E-05  0.506E-03    0.11       4.0  T
  10    -42.0782448 -0.118663E-05  0.197E-03    0.11      10.1  T
  11    -42.0782450 -0.156147E-06  0.764E-04    0.11      26.2  T
  12    -42.0782450 -0.744195E-08  0.307E-04    0.11      65.2  T
     SCC iter.                  ...        0 min,  0.017 sec
     gradient                   ...        0 min,  0.011 sec
 * total energy  :   -41.5549866 Eh     change       -0.4077832E-01 Eh
   gradient norm :     0.2039698 Eh/α   predicted    -0.3006156E-01 ( -26.28%)
   displ. norm   :     0.5132388 α      lambda       -0.5120392E-01
   maximum displ.:     0.2944396 α      in ANC's #1, #36, #18, ...

........................................................................
.............................. CYCLE   10 ..............................
........................................................................

 iter      E             dE          RMSdq      gap      omega  full diag
   1    -42.0823320 -0.420823E+02  0.637E-01    0.05       0.0  T
   2    -42.0701181  0.122139E-01  0.857E-01    0.12       1.0  T
   3    -42.0882032 -0.180852E-01  0.360E-01    0.09       1.0  T
   4    -42.0582019  0.300013E-01  0.809E-01    0.12       1.0  T
   5    -42.0817451 -0.235432E-01  0.418E-01    0.17       1.0  T
   6    -42.0888365 -0.709138E-02  0.894E-02    0.05       1.0  T
   7    -42.0892856 -0.449068E-03  0.310E-02    0.06       1.0  T
   8    -42.0892996 -0.140372E-04  0.203E-02    0.06       1.0  T
   9    -42.0893105 -0.109072E-04  0.129E-02    0.06       1.5  T
  10    -42.0893145 -0.396271E-05  0.702E-03    0.06       2.8  T
  11    -42.0893162 -0.175565E-05  0.379E-03    0.06       5.3  T
  12    -42.0893168 -0.574876E-06  0.926E-04    0.06      21.6  T
  13    -42.0893168 -0.157075E-07  0.286E-04    0.06      70.0  T
     SCC iter.                  ...        0 min,  0.018 sec
     gradient                   ...        0 min,  0.011 sec
 * total energy  :   -41.5966600 Eh     change       -0.4167339E-01 Eh
   gradient norm :     0.1923937 Eh/α   predicted    -0.3234596E-01 ( -22.38%)
   displ. norm   :     0.5689488 α      lambda       -0.5238658E-01
   maximum displ.:     0.2896470 α      in ANC's #1, #36, #17, ...

........................................................................
.............................. CYCLE   11 ..............................
........................................................................

 iter      E             dE          RMSdq      gap      omega  full diag
   1    -42.0757047 -0.420757E+02  0.101E+00    0.23       0.0  T
   2    -42.0364886  0.392161E-01  0.132E+00    0.33       1.0  T
   3    -42.0927307 -0.562422E-01  0.424E-01    0.29       1.0  T
   4    -42.0364875  0.562432E-01  0.111E+00    0.06       1.0  T
   5    -42.0921360 -0.556485E-01  0.505E-01    0.34       1.0  T
   6    -42.0998736 -0.773760E-02  0.123E-01    0.19       1.0  T
   7    -42.1006059 -0.732290E-03  0.427E-02    0.22       1.0  T
   8    -42.1006079 -0.203496E-05  0.343E-02    0.22       1.0  T
   9    -42.1006335 -0.255849E-04  0.241E-02    0.22       1.0  T
  10    -42.1006484 -0.148460E-04  0.149E-02    0.22       1.3  T
  11    -42.1006566 -0.826997E-05  0.746E-03    0.22       2.7  T
  12    -42.1006588 -0.218037E-05  0.184E-03    0.22      10.9  T
  13    -42.1006589 -0.383507E-07  0.492E-04    0.22      40.7  T
  14    -42.1006589  0.666105E-09  0.332E-04    0.22      60.3  T
     SCC iter.                  ...        0 min,  0.020 sec
     gradient                   ...        0 min,  0.011 sec
 * total energy  :   -41.6402686 Eh     change       -0.4360862E-01 Eh
   gradient norm :     0.1812709 Eh/α   predicted    -0.3467208E-01 ( -20.49%)
   displ. norm   :     0.6052598 α      lambda       -0.5271036E-01
   maximum displ.:     0.2192528 α      in ANC's #17, #1, #36, ...

........................................................................
.............................. CYCLE   12 ..............................
........................................................................

 iter      E             dE          RMSdq      gap      omega  full diag
   1    -42.0858039 -0.420858E+02  0.121E+00    0.40       0.0  T
   2    -42.0201553  0.656486E-01  0.161E+00    0.56       1.0  T
   3    -42.1176566 -0.975012E-01  0.399E-01    0.46       1.0  T
   4    -42.0856490  0.320075E-01  0.844E-01    0.26       1.0  T
   5    -42.1109772 -0.253282E-01  0.462E-01    0.54       1.0  T
   6    -42.1214852 -0.105080E-01  0.151E-01    0.38       1.0  T
   7    -42.1224114 -0.926156E-03  0.619E-02    0.41       1.0  T
   8    -42.1224965 -0.850972E-04  0.375E-02    0.42       1.0  T
   9    -42.1225361 -0.395889E-04  0.227E-02    0.42       1.0  T
  10    -42.1225531 -0.170754E-04  0.112E-02    0.42       1.8  T
  11    -42.1225572 -0.409874E-05  0.511E-03    0.42       3.9  T
  12    -42.1225580 -0.780457E-06  0.209E-03    0.42       9.6  T
  13    -42.1225582 -0.158265E-06  0.635E-04    0.42      31.5  T
  14    -42.1225582 -0.127356E-07  0.317E-04    0.42      63.0  T
     SCC iter.                  ...        0 min,  0.020 sec
     gradient                   ...        0 min,  0.011 sec
 * total energy  :   -41.6796316 Eh     change       -0.3936298E-01 Eh
   gradient norm :     0.2040760 Eh/α   predicted    -0.3601020E-01 (  -8.52%)
   displ. norm   :     0.4641257 α      lambda       -0.3582007E-01
   maximum displ.:     0.2064254 α      in ANC's #1, #17, #18, ...

........................................................................
.............................. CYCLE   13 ..............................
........................................................................

 iter      E             dE          RMSdq      gap      omega  full diag
   1    -42.1169317 -0.421169E+02  0.774E-01    0.56       0.0  T
   2    -42.0927305  0.242012E-01  0.938E-01    0.62       1.0  T
   3    -42.1228188 -0.300883E-01  0.367E-01    0.62       1.0  T
   4    -42.0958129  0.270059E-01  0.737E-01    0.33       1.0  T
   5    -42.1262999 -0.304870E-01  0.239E-01    0.63       1.0  T
   6    -42.1284862 -0.218624E-02  0.669E-02    0.55       1.0  T
   7    -42.1286207 -0.134545E-03  0.365E-02    0.56       1.0  T
   8    -42.1286580 -0.372224E-04  0.218E-02    0.57       1.0  T
   9    -42.1286687 -0.106982E-04  0.123E-02    0.57       1.6  T
  10    -42.1286734 -0.474524E-05  0.676E-03    0.57       3.0  T
  11    -42.1286748 -0.136380E-05  0.309E-03    0.57       6.5  T
  12    -42.1286751 -0.374485E-06  0.968E-04    0.57      20.7  T
  13    -42.1286752 -0.248483E-07  0.337E-04    0.57      59.3  T
     SCC iter.                  ...        0 min,  0.019 sec
     gradient                   ...        0 min,  0.011 sec
 * total energy  :   -41.7068307 Eh     change       -0.2719917E-01 Eh
   gradient norm :     0.1984083 Eh/α   predicted    -0.2176811E-01 ( -19.97%)
   displ. norm   :     0.6016329 α      lambda       -0.5703034E-01
   maximum displ.:     0.2903182 α      in ANC's #1, #17, #18, ...

........................................................................
.............................. CYCLE   14 ..............................
........................................................................

 iter      E             dE          RMSdq      gap      omega  full diag
   1    -42.2050251 -0.422050E+02  0.106E+00    0.46       0.0  T
   2    -41.8456785  0.359347E+00  0.230E+00    1.02       1.0  T
   3    -42.1972174 -0.351539E+00  0.864E-01    0.42       1.0  T
   4    -42.2275078 -0.302903E-01  0.356E-01    0.67       1.0  T
   5    -42.2308255 -0.331769E-02  0.105E-01    0.68       1.0  T
   6    -42.2310078 -0.182380E-03  0.535E-02    0.69       1.0  T
   7    -42.2309475  0.603475E-04  0.466E-02    0.68       1.0  T
   8    -42.2310369 -0.893527E-04  0.163E-02    0.68       1.2  T
   9    -42.2310407 -0.384482E-05  0.883E-03    0.68       2.3  T
  10    -42.2310419 -0.116816E-05  0.624E-03    0.68       3.2  T
  11    -42.2310438 -0.194832E-05  0.167E-03    0.68      12.0  T
  12    -42.2310439 -0.932369E-07  0.566E-04    0.68      35.4  T
  13    -42.2310439 -0.143745E-07  0.203E-04    0.68      98.4  T
     SCC iter.                  ...        0 min,  0.018 sec
     gradient                   ...        0 min,  0.011 sec
 * total energy  :   -41.7428631 Eh     change       -0.3603236E-01 Eh
   gradient norm :     0.2979614 Eh/α   predicted    -0.3883670E-01 (   7.78%)
   displ. norm   :     0.5851457 α      lambda       -0.8872022E-01
   maximum displ.:     0.2607026 α      in ANC's #1, #17, #44, ...

........................................................................
.............................. CYCLE   15 ..............................
........................................................................

 iter      E             dE          RMSdq      gap      omega  full diag
   1    -42.2572304 -0.422572E+02  0.717E-01    0.75       0.0  T
   2    -42.2581341 -0.903670E-03  0.475E-01    0.78       1.0  T
   3    -42.2485876  0.954652E-02  0.473E-01    0.60       1.0  T
   4    -42.2345971  0.139905E-01  0.668E-01    0.95       1.0  T
   5    -42.2598809 -0.252838E-01  0.182E-01    0.70       1.0  T
   6    -42.2608626 -0.981783E-03  0.335E-02    0.75       1.0  T
   7    -42.2609169 -0.542256E-04  0.123E-02    0.75       1.6  T
   8    -42.2609176 -0.715759E-06  0.768E-03    0.75       2.6  T
   9    -42.2609184 -0.779936E-06  0.404E-03    0.75       5.0  T
  10    -42.2609192 -0.835866E-06  0.108E-03    0.75      18.5  T
  11    -42.2609192 -0.111559E-07  0.659E-04    0.75      30.4  T
  12    -42.2609192 -0.780373E-08  0.265E-04    0.75      75.6  T
     SCC iter.                  ...        0 min,  0.017 sec
     gradient                   ...        0 min,  0.011 sec
 * total energy  :   -41.7865608 Eh     change       -0.4369771E-01 Eh
   gradient norm :     0.3170525 Eh/α   predicted    -0.5954877E-01 (  36.27%)
   displ. norm   :     0.4638731 α      lambda       -0.5129609E-01
   maximum displ.:     0.3856658 α      in ANC's #1, #17, #44, ...

........................................................................
.............................. CYCLE   16 ..............................
........................................................................

 iter      E             dE          RMSdq      gap      omega  full diag
   1    -42.3178812 -0.423179E+02  0.669E-01    0.71       0.0  T
   2    -42.2469518  0.709295E-01  0.114E+00    1.02       1.0  T
   3    -42.3127912 -0.658394E-01  0.566E-01    0.59       1.0  T
   4    -42.3246870 -0.118958E-01  0.261E-01    0.84       1.0  T
   5    -42.3259369 -0.124987E-02  0.922E-02    0.82       1.0  T
   6    -42.3262141 -0.277249E-03  0.313E-02    0.82       1.0  T
   7    -42.3262415 -0.274147E-04  0.131E-02    0.82       1.5  T
   8    -42.3262437 -0.218919E-05  0.498E-03    0.82       4.0  T
   9    -42.3262442 -0.481272E-06  0.138E-03    0.82      14.5  T
  10    -42.3262442  0.429836E-08  0.977E-04    0.82      20.5  T
  11    -42.3262442 -0.233653E-07  0.369E-04    0.82      54.2  T
     SCC iter.                  ...        0 min,  0.015 sec
     gradient                   ...        0 min,  0.011 sec
 * total energy  :   -41.8290032 Eh     change       -0.4244238E-01 Eh
   gradient norm :     0.3305259 Eh/α   predicted    -0.3116928E-01 ( -26.56%)
   displ. norm   :     0.6027031 α      lambda       -0.1069936E+00
   maximum displ.:     0.2528973 α      in ANC's #1, #17, #12, ...

........................................................................
.............................. CYCLE   17 ..............................
........................................................................

 iter      E             dE          RMSdq      gap      omega  full diag
   1    -42.3847576 -0.423848E+02  0.817E-01    0.94       0.0  T
   2    -42.3759013  0.885625E-02  0.686E-01    1.14       1.0  T
   3    -42.3558425  0.200588E-01  0.805E-01    0.57       1.0  T
   4    -42.3780485 -0.222060E-01  0.485E-01    1.13       1.0  T
   5    -42.3884703 -0.104218E-01  0.135E-01    1.03       1.0  T
   6    -42.3893333 -0.863010E-03  0.254E-02    1.04       1.0  T
   7    -42.3893395 -0.621581E-05  0.126E-02    1.04       1.6  T
   8    -42.3893380  0.155732E-05  0.818E-03    1.04       2.4  T
   9    -42.3893403 -0.233318E-05  0.219E-03    1.04       9.1  T
  10    -42.3893405 -0.156462E-06  0.774E-04    1.04      25.8  T
  11    -42.3893405 -0.335361E-08  0.425E-04    1.04      47.0  T
     SCC iter.                  ...        0 min,  0.016 sec
     gradient                   ...        0 min,  0.011 sec
 * total energy  :   -41.9129444 Eh     change       -0.8394122E-01 Eh
   gradient norm :     0.2402685 Eh/α   predicted    -0.7292963E-01 ( -13.12%)
   displ. norm   :     0.6663257 α      lambda       -0.8694769E-01
   maximum displ.:     0.2873992 α      in ANC's #17, #1, #12, ...

........................................................................
.............................. CYCLE   18 ..............................
........................................................................

 iter      E             dE          RMSdq      gap      omega  full diag
   1    -42.4446067 -0.424446E+02  0.838E-01    1.09       0.0  T
   2    -42.4353919  0.921474E-02  0.736E-01    1.51       1.0  T
   3    -42.4194024  0.159896E-01  0.758E-01    0.74       1.0  T
   4    -42.4323819 -0.129795E-01  0.594E-01    1.50       1.0  T
   5    -42.4484591 -0.160772E-01  0.976E-02    1.22       1.0  T
   6    -42.4488249 -0.365803E-03  0.223E-02    1.23       1.0  T
   7    -42.4488260 -0.117435E-05  0.157E-02    1.23       1.3  T
   8    -42.4488248  0.121285E-05  0.112E-02    1.23       1.8  T
   9    -42.4488303 -0.547337E-05  0.287E-03    1.23       7.0  T
  10    -42.4488306 -0.320819E-06  0.752E-04    1.22      26.6  T
  11    -42.4488306 -0.923067E-08  0.266E-04    1.22      75.3  T
     SCC iter.                  ...        0 min,  0.016 sec
     gradient                   ...        0 min,  0.011 sec
 * total energy  :   -41.9796928 Eh     change       -0.6674838E-01 Eh
   gradient norm :     0.2419148 Eh/α   predicted    -0.6277582E-01 (  -5.95%)
   displ. norm   :     0.5170833 α      lambda       -0.6109545E-01
   maximum displ.:     0.2228016 α      in ANC's #17, #12, #45, ...

........................................................................
.............................. CYCLE   19 ..............................
........................................................................

 iter      E             dE          RMSdq      gap      omega  full diag
   1    -42.4969372 -0.424969E+02  0.677E-01    1.19       0.0  T
   2    -42.4938490  0.308818E-02  0.581E-01    1.45       1.0  T
   3    -42.4925587  0.129026E-02  0.429E-01    1.02       1.0  T
   4    -42.4812162  0.113425E-01  0.641E-01    1.64       1.0  T
   5    -42.5004598 -0.192436E-01  0.712E-02    1.25       1.0  T
   6    -42.5006467 -0.186904E-03  0.184E-02    1.28       1.1  T
   7    -42.5006496 -0.288618E-05  0.130E-02    1.28       1.5  T
   8    -42.5006516 -0.201408E-05  0.834E-03    1.28       2.4  T
   9    -42.5006532 -0.157635E-05  0.391E-03    1.28       5.1  T
  10    -42.5006539 -0.688336E-06  0.927E-04    1.27      21.6  T
  11    -42.5006539 -0.238454E-07  0.288E-04    1.27      69.5  T
     SCC iter.                  ...        0 min,  0.016 sec
     gradient                   ...        0 min,  0.011 sec
 * total energy  :   -42.0241789 Eh     change       -0.4448614E-01 Eh
   gradient norm :     0.2444708 Eh/α   predicted    -0.3871542E-01 ( -12.97%)
   displ. norm   :     0.4127708 α      lambda       -0.4274736E-01
   maximum displ.:     0.1809668 α      in ANC's #17, #1, #45, ...

........................................................................
.............................. CYCLE   20 ..............................
........................................................................

 iter      E             dE          RMSdq      gap      omega  full diag
   1    -42.5416652 -0.425417E+02  0.386E-01    1.18       0.0  T
   2    -42.5374214  0.424374E-02  0.455E-01    1.49       1.0  T
   3    -42.5412337 -0.381224E-02  0.235E-01    1.15       1.0  T
   4    -42.5395426  0.169110E-02  0.305E-01    1.42       1.0  T
   5    -42.5430971 -0.355450E-02  0.270E-02    1.26       1.0  T
   6    -42.5431192 -0.220583E-04  0.145E-02    1.27       1.4  T
   7    -42.5431230 -0.387255E-05  0.672E-03    1.27       3.0  T
   8    -42.5431236 -0.569608E-06  0.376E-03    1.27       5.3  T
   9    -42.5431239 -0.278075E-06  0.180E-03    1.27      11.1  T
  10    -42.5431240 -0.112949E-06  0.468E-04    1.27      42.7  T
  11    -42.5431240 -0.253245E-08  0.207E-04    1.27      96.5  T
     SCC iter.                  ...        0 min,  0.016 sec
     gradient                   ...        0 min,  0.011 sec
 * total energy  :   -42.0549480 Eh     change       -0.3076907E-01 Eh
   gradient norm :     0.1969458 Eh/α   predicted    -0.2501538E-01 ( -18.70%)
   displ. norm   :     0.2533532 α      lambda       -0.3244820E-01
   maximum displ.:     0.1089202 α      in ANC's #17, #1, #45, ...
 * RMSD in coord.:     1.2745396 α      energy gain  -0.1144096E+02 Eh

generating ANC from model Hessian ...
Using Lindh-Hessian (1995)
 Shifting diagonal of input Hessian by    1.1197410150956145E-002
 Lowest  eigenvalues of input Hessian
    0.010000    0.010219    0.000000    0.000000    0.000000    0.000000
    0.000000    0.000000    0.012017    0.012190    0.012462    0.013951
    0.014721    0.018955    0.021708    0.022282    0.027548    0.031122
 Highest eigenvalues
    1.995733    2.072294    2.086396    2.267260    2.389059    3.331780


........................................................................
.............................. CYCLE   21 ..............................
........................................................................

 iter      E             dE          RMSdq      gap      omega  full diag
   1    -42.5740645 -0.425741E+02  0.258E-01    1.26       0.0  T
   2    -42.5733834  0.681009E-03  0.266E-01    1.41       1.0  T
   3    -42.5738734 -0.489986E-03  0.158E-01    1.21       1.0  T
   4    -42.5727280  0.114546E-02  0.238E-01    1.44       1.0  T
   5    -42.5748778 -0.214979E-02  0.325E-02    1.31       1.0  T
   6    -42.5748960 -0.182482E-04  0.919E-03    1.31       2.2  T
   7    -42.5748972 -0.114828E-05  0.515E-03    1.30       3.9  T
   8    -42.5748975 -0.356158E-06  0.163E-03    1.31      12.3  T
   9    -42.5748975 -0.245289E-07  0.944E-04    1.31      21.2  T
  10    -42.5748976 -0.264180E-07  0.272E-04    1.30      73.4  T
     SCC iter.                  ...        0 min,  0.014 sec
     gradient                   ...        0 min,  0.011 sec
 * total energy  :   -42.0778698 Eh     change       -0.2292184E-01 Eh
   gradient norm :     0.1360586 Eh/α   predicted     0.0000000E+00 (-100.00%)
   displ. norm   :     0.6037309 α      lambda       -0.5563693E-01
   maximum displ.:     0.2896734 α      in ANC's #15, #17, #16, ...

........................................................................
.............................. CYCLE   22 ..............................
........................................................................

 iter      E             dE          RMSdq      gap      omega  full diag
   1    -42.6145679 -0.426146E+02  0.755E-01    1.53       0.0  T
   2    -42.5902337  0.243342E-01  0.785E-01    0.91       1.0  T
   3    -42.5914398 -0.120610E-02  0.885E-01    1.91       1.0  T
   4    -42.6167652 -0.253255E-01  0.174E-01    1.41       1.0  T
   5    -42.6176606 -0.895403E-03  0.529E-02    1.42       1.0  T
   6    -42.6176968 -0.361174E-04  0.321E-02    1.41       1.0  T
   7    -42.6177200 -0.232691E-04  0.124E-02    1.40       1.6  T
   8    -42.6177236 -0.357944E-05  0.342E-03    1.39       5.8  T
   9    -42.6177239 -0.275968E-06  0.136E-03    1.39      14.7  T
  10    -42.6177239 -0.347284E-07  0.493E-04    1.39      40.6  T
  11    -42.6177239 -0.261693E-08  0.251E-04    1.39      79.7  T
     SCC iter.                  ...        0 min,  0.016 sec
     gradient                   ...        0 min,  0.011 sec
 * total energy  :   -42.1213140 Eh     change       -0.4344413E-01 Eh
   gradient norm :     0.0801119 Eh/α   predicted    -0.3796154E-01 ( -12.62%)
   displ. norm   :     0.6257596 α      lambda       -0.3418801E-01
   maximum displ.:     0.3229611 α      in ANC's #15, #17, #16, ...

........................................................................
.............................. CYCLE   23 ..............................
........................................................................

 iter      E             dE          RMSdq      gap      omega  full diag
   1    -42.6498323 -0.426498E+02  0.606E-01    1.57       0.0  T
   2    -42.6373965  0.124359E-01  0.614E-01    1.12       1.0  T
   3    -42.6374600 -0.635836E-04  0.665E-01    1.85       1.0  T
   4    -42.6510483 -0.135883E-01  0.131E-01    1.47       1.0  T
   5    -42.6515719 -0.523575E-03  0.321E-02    1.48       1.0  T
   6    -42.6515878 -0.158929E-04  0.174E-02    1.47       1.2  T
   7    -42.6515941 -0.624447E-05  0.509E-03    1.46       3.9  T
   8    -42.6515944 -0.362962E-06  0.119E-03    1.46      16.9  T
   9    -42.6515944 -0.277813E-07  0.578E-04    1.46      34.6  T
  10    -42.6515945 -0.214671E-08  0.274E-04    1.46      73.0  T
     SCC iter.                  ...        0 min,  0.014 sec
     gradient                   ...        0 min,  0.011 sec
 * total energy  :   -42.1463609 Eh     change       -0.2504694E-01 Eh
   gradient norm :     0.0406684 Eh/α   predicted    -0.2378759E-01 (  -5.03%)
   displ. norm   :     0.5707064 α      lambda       -0.1549895E-01
   maximum displ.:     0.3294702 α      in ANC's #15, #8, #17, ...

........................................................................
.............................. CYCLE   24 ..............................
........................................................................

 iter      E             dE          RMSdq      gap      omega  full diag
   1    -42.6678950 -0.426679E+02  0.394E-01    1.58       0.0  T
   2    -42.6624086  0.548646E-02  0.409E-01    1.27       1.0  T
   3    -42.6630416 -0.633000E-03  0.433E-01    1.75       1.0  T
   4    -42.6684575 -0.541596E-02  0.785E-02    1.51       1.0  T
   5    -42.6686589 -0.201424E-03  0.160E-02    1.51       1.2  T
   6    -42.6686626 -0.364624E-05  0.860E-03    1.51       2.3  T
   7    -42.6686636 -0.102279E-05  0.259E-03    1.50       7.7  T
   8    -42.6686637 -0.113990E-06  0.779E-04    1.50      25.7  T
   9    -42.6686637 -0.127053E-07  0.327E-04    1.50      61.2  T
     SCC iter.                  ...        0 min,  0.013 sec
     gradient                   ...        0 min,  0.011 sec
 * total energy  :   -42.1577973 Eh     change       -0.1143636E-01 Eh
   gradient norm :     0.0369473 Eh/α   predicted    -0.1027354E-01 ( -10.17%)
   displ. norm   :     0.5270717 α      lambda       -0.8371013E-02
   maximum displ.:     0.2909599 α      in ANC's #15, #8, #17, ...

........................................................................
.............................. CYCLE   25 ..............................
........................................................................

 iter      E             dE          RMSdq      gap      omega  full diag
   1    -42.6789555 -0.426790E+02  0.295E-01    1.57       0.0  T
   2    -42.6768893  0.206621E-02  0.287E-01    1.37       1.0  T
   3    -42.6765233  0.366035E-03  0.297E-01    1.69       1.0  T
   4    -42.6791981 -0.267479E-02  0.555E-02    1.51       1.0  T
   5    -42.6792899 -0.918266E-04  0.122E-02    1.52       1.6  T
   6    -42.6792928 -0.288165E-05  0.605E-03    1.52       3.3  T
   7    -42.6792931 -0.274706E-06  0.240E-03    1.52       8.3  T
   8    -42.6792932 -0.957188E-07  0.542E-04    1.52      36.9  T
   9    -42.6792932 -0.332211E-08  0.259E-04    1.52      77.2  T
     SCC iter.                  ...        0 min,  0.013 sec
     gradient                   ...        0 min,  0.011 sec
 * total energy  :   -42.1636623 Eh     change       -0.5865021E-02 Eh
   gradient norm :     0.0387830 Eh/α   predicted    -0.5348298E-02 (  -8.81%)
   displ. norm   :     0.5378548 α      lambda       -0.5719199E-02
   maximum displ.:     0.2834320 α      in ANC's #5, #8, #15, ...

........................................................................
.............................. CYCLE   26 ..............................
........................................................................

 iter      E             dE          RMSdq      gap      omega  full diag
   1    -42.6861764 -0.426862E+02  0.453E-01    1.53       0.0  T
   2    -42.6861052  0.711703E-04  0.258E-01    1.49       1.0  T
   3    -42.6811667  0.493854E-02  0.372E-01    1.74       1.0  T
   4    -42.6861124 -0.494569E-02  0.624E-02    1.49       1.0  T
   5    -42.6862495 -0.137137E-03  0.104E-02    1.52       1.9  T
   6    -42.6862517 -0.224085E-05  0.474E-03    1.52       4.2  T
   7    -42.6862518 -0.990548E-07  0.200E-03    1.52      10.0  T
   8    -42.6862519 -0.621751E-07  0.516E-04    1.52      38.7  T
   9    -42.6862519 -0.258784E-08  0.278E-04    1.52      71.9  T
     SCC iter.                  ...        0 min,  0.013 sec
     gradient                   ...        0 min,  0.011 sec
 * total energy  :   -42.1648473 Eh     change       -0.1185034E-02 Eh
   gradient norm :     0.0534407 Eh/α   predicted    -0.3686872E-02 ( 211.12%)
   displ. norm   :     0.3390988 α      lambda       -0.5327676E-02
   maximum displ.:     0.2179465 α      in ANC's #5, #8, #2, ...

........................................................................
.............................. CYCLE   27 ..............................
........................................................................

 iter      E             dE          RMSdq      gap      omega  full diag
   1    -42.6908707 -0.426909E+02  0.416E-01    1.52       0.0  T
   2    -42.6908733 -0.263368E-05  0.243E-01    1.51       1.0  T
   3    -42.6902328  0.640547E-03  0.131E-01    1.59       1.0  T
   4    -42.6908233 -0.590514E-03  0.418E-02    1.49       1.0  T
   5    -42.6908895 -0.662748E-04  0.528E-03    1.52       3.8  T
   6    -42.6908899 -0.300120E-06  0.277E-03    1.52       7.2  T
   7    -42.6908899 -0.676682E-07  0.117E-03    1.52      17.1  T
   8    -42.6908899 -0.309486E-07  0.278E-04    1.52      71.9  T
   9    -42.6908899 -0.868852E-09  0.134E-04    1.52     149.8  T
     SCC iter.                  ...        0 min,  0.013 sec
     gradient                   ...        0 min,  0.011 sec
 * total energy  :   -42.1664426 Eh     change       -0.1595236E-02 Eh
   gradient norm :     0.0400714 Eh/α   predicted    -0.2970153E-02 (  86.19%)
   displ. norm   :     0.4511841 α      lambda       -0.5202509E-02
   maximum displ.:     0.3666816 α      in ANC's #3, #1, #5, ...

........................................................................
.............................. CYCLE   28 ..............................
........................................................................

 iter      E             dE          RMSdq      gap      omega  full diag
   1    -42.6911063 -0.426911E+02  0.627E-01    1.53       0.0  T
   2    -42.6909659  0.140374E-03  0.373E-01    1.48       1.0  T
   3    -42.6815152  0.945071E-02  0.487E-01    1.84       1.0  T
   4    -42.6911378 -0.962257E-02  0.145E-02    1.52       1.4  T
   5    -42.6911425 -0.470039E-05  0.721E-03    1.52       2.8  T
   6    -42.6911436 -0.111052E-05  0.287E-03    1.52       7.0  T
   7    -42.6911437 -0.106582E-06  0.828E-04    1.52      24.2  T
   8    -42.6911437 -0.183472E-07  0.297E-04    1.52      67.3  T
     SCC iter.                  ...        0 min,  0.012 sec
     gradient                   ...        0 min,  0.011 sec
 * total energy  :   -42.1619664 Eh     change        0.4476123E-02 Eh
   gradient norm :     0.0945184 Eh/α   predicted    -0.3130785E-02 (-169.94%)
   displ. norm   :     0.2912040 α      lambda       -0.1008073E-01
   maximum displ.:     0.2118627 α      in ANC's #3, #5, #1, ...

........................................................................
.............................. CYCLE   29 ..............................
........................................................................

 iter      E             dE          RMSdq      gap      omega  full diag
   1    -42.6916679 -0.426917E+02  0.438E-01    1.52       0.0  T
   2    -42.6916682 -0.320164E-06  0.258E-01    1.53       1.0  T
   3    -42.6911789  0.489313E-03  0.116E-01    1.45       1.0  T
   4    -42.6916486 -0.469692E-03  0.273E-02    1.54       1.0  T
   5    -42.6916784 -0.298627E-04  0.322E-03    1.52       6.2  T
   6    -42.6916785 -0.913215E-07  0.190E-03    1.52      10.5  T
   7    -42.6916785 -0.361803E-07  0.646E-04    1.52      31.0  T
   8    -42.6916785 -0.727204E-08  0.203E-04    1.52      98.3  T
     SCC iter.                  ...        0 min,  0.012 sec
     gradient                   ...        0 min,  0.011 sec
 * total energy  :   -42.1675898 Eh     change       -0.5623340E-02 Eh
   gradient norm :     0.0151600 Eh/α   predicted    -0.5467795E-02 (  -2.77%)
   displ. norm   :     0.1521749 α      lambda       -0.6019813E-03
   maximum displ.:     0.0793478 α      in ANC's #8, #2, #3, ...

........................................................................
.............................. CYCLE   30 ..............................
........................................................................

 iter      E             dE          RMSdq      gap      omega  full diag
   1    -42.6920516 -0.426921E+02  0.937E-02    1.53       0.0  T
   2    -42.6920056  0.460752E-04  0.624E-02    1.50       1.0  T
   3    -42.6915031  0.502419E-03  0.126E-01    1.60       1.0  T
   4    -42.6920572 -0.554026E-03  0.983E-03    1.52       2.0  T
   5    -42.6920604 -0.319067E-05  0.237E-03    1.53       8.4  T
   6    -42.6920604 -0.557679E-07  0.131E-03    1.53      15.3  T
   7    -42.6920604 -0.115757E-07  0.546E-04    1.53      36.7  T
   8    -42.6920604 -0.759620E-08  0.106E-04    1.53     189.0  T
     SCC iter.                  ...        0 min,  0.012 sec
     gradient                   ...        0 min,  0.011 sec
 * total energy  :   -42.1678821 Eh     change       -0.2923153E-03 Eh
   gradient norm :     0.0098720 Eh/α   predicted    -0.3079621E-03 (   5.35%)
   displ. norm   :     0.0999401 α      lambda       -0.2071971E-03
   maximum displ.:     0.0775237 α      in ANC's #2, #8, #6, ...

........................................................................
.............................. CYCLE   31 ..............................
........................................................................

 iter      E             dE          RMSdq      gap      omega  full diag
   1    -42.6929043 -0.426929E+02  0.323E-02    1.53       0.0  T
   2    -42.6928873  0.169585E-04  0.295E-02    1.51       1.0  T
   3    -42.6928743  0.130569E-04  0.320E-02    1.55       1.0  T
   4    -42.6929063 -0.319984E-04  0.734E-03    1.53       2.7  T
   5    -42.6929078 -0.148380E-05  0.135E-03    1.53      14.9  T
   6    -42.6929078 -0.364286E-07  0.593E-04    1.53      33.7  T
   7    -42.6929078 -0.208006E-08  0.225E-04    1.53      88.8  T
     SCC iter.                  ...        0 min,  0.010 sec
     gradient                   ...        0 min,  0.011 sec
 * total energy  :   -42.1680526 Eh     change       -0.1705386E-03 Eh
   gradient norm :     0.0066803 Eh/α   predicted    -0.1046354E-03 ( -38.64%)
   displ. norm   :     0.3252517 α      lambda       -0.4368565E-03
   maximum displ.:     0.2702828 α      in ANC's #2, #1, #6, ...

........................................................................
.............................. CYCLE   32 ..............................
........................................................................

 iter      E             dE          RMSdq      gap      omega  full diag
   1    -42.6921709 -0.426922E+02  0.962E-02    1.56       0.0  T
   2    -42.6917085  0.462424E-03  0.129E-01    1.46       1.0  T
   3    -42.6921430 -0.434529E-03  0.642E-02    1.57       1.0  T
   4    -42.6922274 -0.843805E-04  0.155E-02    1.53       1.3  T
   5    -42.6922340 -0.667139E-05  0.236E-03    1.54       8.5  T
   6    -42.6922341 -0.352493E-07  0.141E-03    1.54      14.2  T
   7    -42.6922341 -0.149620E-07  0.440E-04    1.54      45.5  T
   8    -42.6922341 -0.252790E-08  0.183E-04    1.54     109.3  T
     SCC iter.                  ...        0 min,  0.012 sec
     gradient                   ...        0 min,  0.011 sec
 * total energy  :   -42.1683180 Eh     change       -0.2653906E-03 Eh
   gradient norm :     0.0064392 Eh/α   predicted    -0.2415371E-03 (  -8.99%)
   displ. norm   :     0.2083868 α      lambda       -0.1411279E-03
   maximum displ.:     0.1887111 α      in ANC's #2, #1, #6, ...

........................................................................
.............................. CYCLE   33 ..............................
........................................................................

 iter      E             dE          RMSdq      gap      omega  full diag
   1    -42.6925531 -0.426926E+02  0.436E-02    1.55       0.0  T
   2    -42.6924277  0.125406E-03  0.677E-02    1.50       1.0  T
   3    -42.6925656 -0.137847E-03  0.223E-02    1.55       1.0  T
   4    -42.6925683 -0.269746E-05  0.901E-03    1.54       2.2  T
   5    -42.6925705 -0.220966E-05  0.142E-03    1.54      14.1  T
   6    -42.6925705 -0.355441E-07  0.655E-04    1.54      30.5  T
   7    -42.6925705 -0.890793E-09  0.301E-04    1.54      66.4  T
     SCC iter.                  ...        0 min,  0.010 sec
     gradient                   ...        0 min,  0.011 sec
 * total energy  :   -42.1684341 Eh     change       -0.1160747E-03 Eh
   gradient norm :     0.0075145 Eh/α   predicted    -0.7363017E-04 ( -36.57%)
   displ. norm   :     0.1907902 α      lambda       -0.1793182E-03
   maximum displ.:     0.1742089 α      in ANC's #2, #1, #8, ...

........................................................................
.............................. CYCLE   34 ..............................
........................................................................

 iter      E             dE          RMSdq      gap      omega  full diag
   1    -42.6932468 -0.426932E+02  0.385E-02    1.56       0.0  T
   2    -42.6931146  0.132252E-03  0.670E-02    1.50       1.0  T
   3    -42.6932619 -0.147304E-03  0.186E-02    1.55       1.1  T
   4    -42.6932630 -0.110191E-05  0.850E-03    1.54       2.4  T
   5    -42.6932653 -0.235861E-05  0.118E-03    1.54      16.9  T
   6    -42.6932654 -0.292769E-07  0.443E-04    1.54      45.2  T
   7    -42.6932654 -0.830887E-09  0.225E-04    1.54      88.8  T
     SCC iter.                  ...        0 min,  0.010 sec
     gradient                   ...        0 min,  0.011 sec
 * total energy  :   -42.1685969 Eh     change       -0.1628410E-03 Eh
   gradient norm :     0.0051255 Eh/α   predicted    -0.9292495E-04 ( -42.94%)
   displ. norm   :     0.3057419 α      lambda       -0.2831455E-03
   maximum displ.:     0.2742982 α      in ANC's #2, #1, #8, ...

........................................................................
.............................. CYCLE   35 ..............................
........................................................................

 iter      E             dE          RMSdq      gap      omega  full diag
   1    -42.6934111 -0.426934E+02  0.602E-02    1.57       0.0  T
   2    -42.6930555  0.355550E-03  0.109E-01    1.48       1.0  T
   3    -42.6934531 -0.397568E-03  0.286E-02    1.56       1.0  T
   4    -42.6934541 -0.104273E-05  0.153E-02    1.54       1.3  T
   5    -42.6934627 -0.854988E-05  0.220E-03    1.55       9.1  T
   6    -42.6934628 -0.131168E-06  0.676E-04    1.55      29.6  T
   7    -42.6934628 -0.332616E-08  0.341E-04    1.55      58.7  T
     SCC iter.                  ...        0 min,  0.010 sec
     gradient                   ...        0 min,  0.011 sec
 * total energy  :   -42.1688526 Eh     change       -0.2556762E-03 Eh
   gradient norm :     0.0051878 Eh/α   predicted    -0.1548085E-03 ( -39.45%)
   displ. norm   :     0.4183582 α      lambda       -0.3528490E-03
   maximum displ.:     0.3748607 α      in ANC's #2, #1, #8, ...

........................................................................
.............................. CYCLE   36 ..............................
........................................................................

 iter      E             dE          RMSdq      gap      omega  full diag
   1    -42.6932813 -0.426933E+02  0.850E-02    1.59       0.0  T
   2    -42.6925291  0.752127E-03  0.158E-01    1.46       1.0  T
   3    -42.6933703 -0.841180E-03  0.398E-02    1.57       1.0  T
   4    -42.6933731 -0.278561E-05  0.222E-02    1.54       1.0  T
   5    -42.6933907 -0.175693E-04  0.290E-03    1.55       6.9  T
   6    -42.6933909 -0.229630E-06  0.918E-04    1.55      21.8  T
   7    -42.6933909 -0.562624E-08  0.460E-04    1.55      43.5  T
     SCC iter.                  ...        0 min,  0.010 sec
     gradient                   ...        0 min,  0.011 sec
 * total energy  :   -42.1691817 Eh     change       -0.3290679E-03 Eh
   gradient norm :     0.0063899 Eh/α   predicted    -0.2073091E-03 ( -37.00%)
   displ. norm   :     0.5510627 α      lambda       -0.4650929E-03
   maximum displ.:     0.4975050 α      in ANC's #2, #1, #8, ...

........................................................................
.............................. CYCLE   37 ..............................
........................................................................

 iter      E             dE          RMSdq      gap      omega  full diag
   1    -42.6923936 -0.426924E+02  0.114E-01    1.61       0.0  T
   2    -42.6909792  0.141438E-02  0.216E-01    1.43       1.0  T
   3    -42.6925672 -0.158792E-02  0.518E-02    1.58       1.0  T
   4    -42.6925694 -0.221037E-05  0.291E-02    1.55       1.0  T
   5    -42.6925993 -0.298833E-04  0.368E-03    1.56       5.4  T
   6    -42.6925996 -0.381248E-06  0.116E-03    1.56      17.3  T
   7    -42.6925996 -0.853638E-08  0.594E-04    1.56      33.7  T
   8    -42.6925997 -0.513636E-08  0.216E-04    1.56      92.6  T
     SCC iter.                  ...        0 min,  0.012 sec
     gradient                   ...        0 min,  0.011 sec
 * total energy  :   -42.1696246 Eh     change       -0.4429325E-03 Eh
   gradient norm :     0.0088729 Eh/α   predicted    -0.3031665E-03 ( -31.55%)
   displ. norm   :     0.8835211 α      lambda       -0.7851591E-03
   maximum displ.:     0.8052157 α      in ANC's #2, #1, #8, ...

........................................................................
.............................. CYCLE   38 ..............................
........................................................................

 iter      E             dE          RMSdq      gap      omega  full diag
   1    -42.6903544 -0.426904E+02  0.192E-01    1.68       0.0  T
   2    -42.6859718  0.438262E-02  0.378E-01    1.37       1.0  T
   3    -42.6909226 -0.495082E-02  0.823E-02    1.62       1.0  T
   4    -42.6909123  0.103569E-04  0.448E-02    1.57       1.0  T
   5    -42.6909845 -0.722294E-04  0.548E-03    1.59       3.6  T
   6    -42.6909853 -0.856185E-06  0.175E-03    1.59      11.4  T
   7    -42.6909854 -0.161495E-07  0.926E-04    1.59      21.6  T
   8    -42.6909854 -0.109795E-07  0.361E-04    1.59      55.4  T
     SCC iter.                  ...        0 min,  0.012 sec
     gradient                   ...        0 min,  0.011 sec
 * total energy  :   -42.1703367 Eh     change       -0.7121095E-03 Eh
   gradient norm :     0.0236365 Eh/α   predicted    -0.6990358E-03 (  -1.84%)
   displ. norm   :     0.7364334 α      lambda       -0.9530245E-03
   maximum displ.:     0.6776709 α      in ANC's #2, #1, #15, ...

........................................................................
.............................. CYCLE   39 ..............................
........................................................................

 iter      E             dE          RMSdq      gap      omega  full diag
   1    -42.6895774 -0.426896E+02  0.179E-01    1.72       0.0  T
   2    -42.6855354  0.404203E-02  0.362E-01    1.42       1.0  T
   3    -42.6901428 -0.460738E-02  0.719E-02    1.66       1.0  T
   4    -42.6901247  0.181058E-04  0.372E-02    1.62       1.0  T
   5    -42.6901756 -0.508937E-04  0.443E-03    1.64       4.5  T
   6    -42.6901761 -0.512257E-06  0.164E-03    1.64      12.2  T
   7    -42.6901761 -0.210841E-07  0.877E-04    1.64      22.8  T
   8    -42.6901761 -0.810470E-08  0.306E-04    1.64      65.3  T
     SCC iter.                  ...        0 min,  0.012 sec
     gradient                   ...        0 min,  0.011 sec
 * total energy  :   -42.1712239 Eh     change       -0.8871848E-03 Eh
   gradient norm :     0.0289660 Eh/α   predicted    -0.7349429E-03 ( -17.16%)
   displ. norm   :     0.6112567 α      lambda       -0.1698399E-02
   maximum displ.:     0.5522656 α      in ANC's #2, #15, #18, ...

........................................................................
.............................. CYCLE   40 ..............................
........................................................................

 iter      E             dE          RMSdq      gap      omega  full diag
   1    -42.6931467 -0.426931E+02  0.178E-01    1.80       0.0  T
   2    -42.6890091  0.413764E-02  0.364E-01    1.49       1.0  T
   3    -42.6937809 -0.477177E-02  0.683E-02    1.73       1.0  T
   4    -42.6937751  0.574978E-05  0.266E-02    1.70       1.0  T
   5    -42.6937988 -0.236649E-04  0.401E-03    1.72       5.0  T
   6    -42.6937991 -0.309232E-06  0.163E-03    1.71      12.3  T
   7    -42.6937991  0.252165E-09  0.902E-04    1.71      22.2  T
   8    -42.6937991 -0.167789E-07  0.274E-04    1.72      73.0  T
     SCC iter.                  ...        0 min,  0.012 sec
     gradient                   ...        0 min,  0.011 sec
 * total energy  :   -42.1722745 Eh     change       -0.1050619E-02 Eh
   gradient norm :     0.0264733 Eh/α   predicted    -0.1166490E-02 (  11.03%)
   displ. norm   :     0.8478105 α      lambda       -0.1976870E-02
   maximum displ.:     0.7921694 α      in ANC's #2, #1, #15, ...

........................................................................
.............................. CYCLE   41 ..............................
........................................................................

 iter      E             dE          RMSdq      gap      omega  full diag
   1    -42.6908901 -0.426909E+02  0.232E-01    2.01       0.0  T
   2    -42.6798262  0.110638E-01  0.592E-01    1.49       1.0  T
   3    -42.6927783 -0.129521E-01  0.986E-02    1.83       1.0  T
   4    -42.6928531 -0.747718E-04  0.249E-02    1.85       1.0  T
   5    -42.6928656 -0.125531E-04  0.938E-03    1.85       2.1  T
   6    -42.6928679 -0.225345E-05  0.371E-03    1.85       5.4  T
   7    -42.6928682 -0.307387E-06  0.854E-04    1.86      23.4  T
   8    -42.6928682 -0.223544E-07  0.229E-04    1.86      87.5  T
     SCC iter.                  ...        0 min,  0.012 sec
     gradient                   ...        0 min,  0.011 sec
 * total energy  :   -42.1743946 Eh     change       -0.2120036E-02 Eh
   gradient norm :     0.0389349 Eh/α   predicted    -0.1698906E-02 ( -19.86%)
   displ. norm   :     0.8109338 α      lambda       -0.2401968E-02
   maximum displ.:     0.7500287 α      in ANC's #2, #1, #15, ...

........................................................................
.............................. CYCLE   42 ..............................
........................................................................

 iter      E             dE          RMSdq      gap      omega  full diag
   1    -42.6886588 -0.426887E+02  0.270E-01    2.29       0.0  T
   2    -42.6740165  0.146423E-01  0.687E-01    1.62       1.0  T
   3    -42.6919871 -0.179707E-01  0.113E-01    2.03       1.0  T
   4    -42.6921407 -0.153546E-03  0.446E-02    2.06       1.0  T
   5    -42.6921693 -0.286263E-04  0.159E-02    2.07       1.3  T
   6    -42.6921761 -0.685350E-05  0.648E-03    2.07       3.1  T
   7    -42.6921769 -0.800226E-06  0.231E-03    2.08       8.7  T
   8    -42.6921772 -0.211816E-06  0.577E-04    2.08      34.7  T
   9    -42.6921772 -0.314807E-08  0.313E-04    2.08      63.8  T
     SCC iter.                  ...        0 min,  0.013 sec
     gradient                   ...        0 min,  0.011 sec
 * total energy  :   -42.1766995 Eh     change       -0.2304972E-02 Eh
   gradient norm :     0.0673554 Eh/α   predicted    -0.1990771E-02 ( -13.63%)
   displ. norm   :     0.6324866 α      lambda       -0.7395117E-02
   maximum displ.:     0.4674264 α      in ANC's #2, #5, #3, ...
 * RMSD in coord.:     1.4143080 α      energy gain  -0.1217515E+00 Eh

generating ANC from model Hessian ...
Using Lindh-Hessian (1995)
 Shifting diagonal of input Hessian by    9.8067224684611678E-003
 Lowest  eigenvalues of input Hessian
    0.000000    0.000000    0.000000    0.000000    0.000000    0.000000
    0.010000    0.010212    0.013203    0.013954    0.014122    0.016966
    0.018123    0.019038    0.020851    0.021774    0.023197    0.028671
 Highest eigenvalues
    2.062974    2.198178    2.279648    2.291281    2.381209    3.396514


........................................................................
.............................. CYCLE   43 ..............................
........................................................................

 iter      E             dE          RMSdq      gap      omega  full diag
   1    -42.6940218 -0.426940E+02  0.513E-01    2.77       0.0  T
   2    -42.6816927  0.123291E-01  0.723E-01    1.96       1.0  T
   3    -42.6995099 -0.178172E-01  0.219E-01    2.50       1.0  T
   4    -42.6995358 -0.258791E-04  0.571E-02    2.44       1.0  T
   5    -42.6995902 -0.544449E-04  0.238E-02    2.44       1.0  T
   6    -42.6996010 -0.107570E-04  0.115E-02    2.45       1.7  T
   7    -42.6996035 -0.248919E-05  0.296E-03    2.46       6.8  T
   8    -42.6996039 -0.355809E-06  0.947E-04    2.46      21.1  T
   9    -42.6996038  0.654502E-08  0.682E-04    2.46      29.3  T
     SCC iter.                  ...        0 min,  0.013 sec
     gradient                   ...        0 min,  0.011 sec
 * total energy  :   -42.1811167 Eh     change       -0.4417128E-02 Eh
   gradient norm :     0.0604609 Eh/α   predicted     0.0000000E+00 (-100.00%)
   displ. norm   :     0.3078098 α      lambda       -0.6299122E-02
   maximum displ.:     0.1582838 α      in ANC's #11, #5, #7, ...

........................................................................
.............................. CYCLE   44 ..............................
........................................................................

 iter      E             dE          RMSdq      gap      omega  full diag
   1    -42.6993430 -0.426993E+02  0.263E-01    2.62       0.0  T
   2    -42.6993018  0.412041E-04  0.182E-01    2.51       1.0  T
   3    -42.6986006  0.701125E-03  0.154E-01    2.70       1.0  T
   4    -42.6994875 -0.886907E-03  0.498E-02    2.55       1.0  T
   5    -42.6995518 -0.642320E-04  0.954E-03    2.58       2.1  T
   6    -42.6995533 -0.156104E-05  0.453E-03    2.57       4.4  T
   7    -42.6995536 -0.246144E-06  0.217E-03    2.58       9.2  T
   8    -42.6995536 -0.510308E-07  0.435E-04    2.58      46.0  T
   9    -42.6995536 -0.319032E-08  0.184E-04    2.58     108.4  T
     SCC iter.                  ...        0 min,  0.013 sec
     gradient                   ...        0 min,  0.011 sec
 * total energy  :   -42.1854417 Eh     change       -0.4325084E-02 Eh
   gradient norm :     0.0251819 Eh/α   predicted    -0.3462046E-02 ( -19.95%)
   displ. norm   :     0.4991978 α      lambda       -0.4647887E-02
   maximum displ.:     0.3566049 α      in ANC's #5, #4, #6, ...

........................................................................
.............................. CYCLE   45 ..............................
........................................................................

 iter      E             dE          RMSdq      gap      omega  full diag
   1    -42.6969511 -0.426970E+02  0.234E-01    3.02       0.0  T
   2    -42.6960957  0.855356E-03  0.279E-01    2.66       1.0  T
   3    -42.6981685 -0.207279E-02  0.111E-01    2.85       1.0  T
   4    -42.6981514  0.170990E-04  0.377E-02    2.85       1.0  T
   5    -42.6981730 -0.215874E-04  0.129E-02    2.85       1.5  T
   6    -42.6981752 -0.221768E-05  0.664E-03    2.85       3.0  T
   7    -42.6981756 -0.428351E-06  0.214E-03    2.86       9.4  T
   8    -42.6981757 -0.778889E-07  0.818E-04    2.86      24.4  T
   9    -42.6981757 -0.240735E-08  0.489E-04    2.86      40.9  T
     SCC iter.                  ...        0 min,  0.013 sec
     gradient                   ...        0 min,  0.011 sec
 * total energy  :   -42.1892746 Eh     change       -0.3832879E-02 Eh
   gradient norm :     0.0302616 Eh/α   predicted    -0.2903187E-02 ( -24.26%)
   displ. norm   :     0.7620989 α      lambda       -0.6309533E-02
   maximum displ.:     0.5153692 α      in ANC's #5, #4, #11, ...

........................................................................
.............................. CYCLE   46 ..............................
........................................................................

 iter      E             dE          RMSdq      gap      omega  full diag
   1    -42.6918788 -0.426919E+02  0.337E-01    3.20       0.0  T
   2    -42.6931810 -0.130219E-02  0.312E-01    3.29       1.0  T
   3    -42.6946384 -0.145738E-02  0.154E-01    3.25       1.0  T
   4    -42.6946024  0.359750E-04  0.606E-02    3.27       1.0  T
   5    -42.6946516 -0.492380E-04  0.207E-02    3.25       1.0  T
   6    -42.6946567 -0.510299E-05  0.113E-02    3.26       1.8  T
   7    -42.6946575 -0.714704E-06  0.325E-03    3.26       6.1  T
   8    -42.6946576 -0.137615E-06  0.160E-03    3.26      12.5  T
   9    -42.6946576 -0.418985E-08  0.102E-03    3.26      19.6  T
  10    -42.6946576 -0.177522E-07  0.192E-04    3.26     104.1  T
  11    -42.6946576 -0.112267E-08  0.108E-04    3.26     185.4  T
     SCC iter.                  ...        0 min,  0.016 sec
     gradient                   ...        0 min,  0.011 sec
 * total energy  :   -42.1956019 Eh     change       -0.6327311E-02 Eh
   gradient norm :     0.0524872 Eh/α   predicted    -0.4987114E-02 ( -21.18%)
   displ. norm   :     0.9128616 α      lambda       -0.9117795E-02
   maximum displ.:     0.5812930 α      in ANC's #5, #4, #11, ...

........................................................................
.............................. CYCLE   47 ..............................
........................................................................

 iter      E             dE          RMSdq      gap      omega  full diag
   1    -42.6829731 -0.426830E+02  0.460E-01    3.21       0.0  T
   2    -42.6836845 -0.711339E-03  0.283E-01    3.28       1.0  T
   3    -42.6836162  0.683203E-04  0.144E-01    3.23       1.0  T
   4    -42.6837504 -0.134252E-03  0.593E-02    3.28       1.0  T
   5    -42.6838239 -0.734411E-04  0.224E-02    3.26       1.0  T
   6    -42.6838260 -0.216228E-05  0.134E-02    3.26       1.5  T
   7    -42.6838270 -0.961011E-06  0.307E-03    3.26       6.5  T
   8    -42.6838271 -0.108091E-06  0.188E-03    3.26      10.6  T
   9    -42.6838271 -0.254445E-07  0.765E-04    3.26      26.1  T
  10    -42.6838271 -0.761410E-08  0.164E-04    3.26     122.2  T
     SCC iter.                  ...        0 min,  0.014 sec
     gradient                   ...        0 min,  0.011 sec
 * total energy  :   -42.2009784 Eh     change       -0.5376480E-02 Eh
   gradient norm :     0.0910546 Eh/α   predicted    -0.8357904E-02 (  55.45%)
   displ. norm   :     0.1353896 α      lambda       -0.2985535E-02
   maximum displ.:     0.0998939 α      in ANC's #11, #14, #4, ...

........................................................................
.............................. CYCLE   48 ..............................
........................................................................

 iter      E             dE          RMSdq      gap      omega  full diag
   1    -42.6893953 -0.426894E+02  0.105E-01    3.29       0.0  T
   2    -42.6894264 -0.310509E-04  0.697E-02    3.27       1.0  T
   3    -42.6894247  0.161556E-05  0.407E-02    3.29       1.0  T
   4    -42.6894480 -0.232646E-04  0.116E-02    3.27       1.7  T
   5    -42.6894506 -0.258249E-05  0.274E-03    3.28       7.3  T
   6    -42.6894507 -0.110554E-06  0.161E-03    3.28      12.5  T
   7    -42.6894507 -0.120407E-07  0.516E-04    3.28      38.8  T
   8    -42.6894507 -0.424493E-08  0.243E-04    3.28      82.3  T
     SCC iter.                  ...        0 min,  0.012 sec
     gradient                   ...        0 min,  0.011 sec
 * total energy  :   -42.2031305 Eh     change       -0.2152048E-02 Eh
   gradient norm :     0.0676892 Eh/α   predicted    -0.1520154E-02 ( -29.36%)
   displ. norm   :     0.3839135 α      lambda       -0.4589287E-02
   maximum displ.:     0.2987542 α      in ANC's #5, #4, #7, ...

........................................................................
.............................. CYCLE   49 ..............................
........................................................................

 iter      E             dE          RMSdq      gap      omega  full diag
   1    -42.6938768 -0.426939E+02  0.334E-01    3.31       0.0  T
   2    -42.6938970 -0.202509E-04  0.201E-01    3.29       1.0  T
   3    -42.6937781  0.118896E-03  0.672E-02    3.33       1.0  T
   4    -42.6939100 -0.131857E-03  0.105E-02    3.30       1.9  T
   5    -42.6939123 -0.228816E-05  0.349E-03    3.30       5.7  T
   6    -42.6939123 -0.381210E-07  0.198E-03    3.30      10.1  T
   7    -42.6939124 -0.566868E-07  0.686E-04    3.30      29.1  T
   8    -42.6939124 -0.244782E-08  0.354E-04    3.30      56.4  T
     SCC iter.                  ...        0 min,  0.012 sec
     gradient                   ...        0 min,  0.011 sec
 * total energy  :   -42.2053560 Eh     change       -0.2225586E-02 Eh
   gradient norm :     0.0407304 Eh/α   predicted    -0.2632852E-02 (  18.30%)
   displ. norm   :     0.3875892 α      lambda       -0.9268438E-02
[...]
H            2.57233132230334        2.54486940600648       -0.02595176150234
H            4.42132539754639       -0.82952056421883        0.08323077448741
H           -1.86240465049413        2.27089954217156       -0.06394210222355
H           -2.77140031137956        1.01266356848720       -0.94040347480458
H           -2.79126404979202        1.04286237965663        0.83413302010308
H           -3.57875907277588       -2.88286175235361        0.81687788148782
H           -3.58384227803025       -2.78213196206362       -0.97993006516452
H           -4.46336245939660       -1.53834446107109       -0.00640999789291
H            2.64409474742961       -2.69272436076981        0.07701694598247

 Bond Distances (Angstroems)
 ---------------------------
C1-N2=1.4380         C1-H15=1.0910        C1-H16=1.0906        C1-H17=1.0899        N2-C1=1.4380         N2-C3=1.3400         
N2-C6=1.3737         C3-N2=1.3400         C3-N4=1.3538         C3-H18=1.0717        N4-C3=1.3538         N4-C5=1.3558         
N4-H25=1.0097        C5-N4=1.3558         C5-C6=1.3881         C5-N13=1.3827        C6-N2=1.3737         C6-C5=1.3881         
C6-C7=1.4387         C7-C6=1.4387         C7-O8=1.2163         C7-N9=1.4126         O8-C7=1.2163         N9-C7=1.4126         
N9-C10=1.4519        N9-C11=1.3972        C10-N9=1.4519        C10-H19=1.0892       C10-H20=1.0896       C10-H21=1.0897       
C11-N9=1.3972        C11-O12=1.3386       C11-N13=1.3324       O12-C11=1.3386       O12-C14=1.5373       N13-C5=1.3827        
N13-C11=1.3324       C14-O12=1.5373       C14-H22=1.0862       C14-H23=1.0863       C14-H24=1.0825       H15-C1=1.0910        
H16-C1=1.0906        H17-C1=1.0899        H18-C3=1.0717        H19-C10=1.0892       H20-C10=1.0896       H21-C10=1.0897       
H22-C14=1.0862       H23-C14=1.0863       H24-C14=1.0825       H25-N4=1.0097        
 C  H  Rav=1.0867 sigma=0.0056  Rmin=1.0717  Rmax=1.0910    10
 C  C  Rav=1.4134 sigma=0.0253  Rmin=1.3881  Rmax=1.4387     2
 N  H  Rav=1.0097 sigma=0.0000  Rmin=1.0097  Rmax=1.0097     1
 N  C  Rav=1.3838 sigma=0.0387  Rmin=1.3324  Rmax=1.4519    10
 O  C  Rav=1.3641 sigma=0.1322  Rmin=1.2163  Rmax=1.5373     3

 selected bond angles (degree)
 --------------------
H15-C1-N2=110.43               H16-C1-N2=110.44               H16-C1-H15=108.74              H17-C1-N2=108.52               
H17-C1-H15=109.26              H17-C1-H16=109.44              C3-N2-C1=126.65                C6-N2-C1=125.88                
C6-N2-C3=107.47                N4-C3-N2=110.23                H18-C3-N2=125.02               H18-C3-N4=124.76               
C5-N4-C3=107.26                H25-N4-C3=127.10               H25-N4-C5=125.63               C6-C5-N4=108.06                
N13-C5-N4=129.48               N13-C5-C6=122.46               C5-C6-N2=106.98                C7-C6-N2=132.64                
C7-C6-C5=120.38                O8-C7-C6=125.46                N9-C7-C6=112.94                N9-C7-O8=121.59                
C10-N9-C7=115.27               C11-N9-C7=125.58               C11-N9-C10=119.16              H19-C10-N9=107.64              
H20-C10-N9=110.28              H20-C10-H19=109.80             H21-C10-N9=110.25              H21-C10-H19=109.79             
H21-C10-H20=109.06             

 selected dihedral angles (degree)
 ---------------------------------
C3-N2-C1-H15=297.86           C3-N2-C1-H16= 58.16           C3-N2-C1-H17=178.13           C6-N2-C1-H15=117.43           
C6-N2-C1-H16=237.74           C6-N2-C1-H17=357.70           N4-C3-N2-C1=179.60            N4-C3-N2-C6=359.97            
H18-C3-N2-C1=359.72           H18-C3-N2-C6=180.08           C5-N4-C3-N2=  0.08            C5-N4-C3-H18=179.97           
H25-N4-C3-N2=179.36           H25-N4-C3-H18=359.24          C6-C5-N4-C3=359.90            C6-C5-N4-H25=180.61           
N13-C5-N4-C3=179.70           N13-C5-N4-H25=  0.41          C5-C6-N2-C1=180.33            C5-C6-N2-C3=359.97            
C7-C6-N2-C1=  0.58            C7-C6-N2-C3=180.22            N2-C6-C5-N4=  0.08            N2-C6-C5-N13=180.26           
C7-C6-C5-N4=179.86            C7-C6-C5-N13=  0.05           O8-C7-C6-N2=359.90            O8-C7-C6-C5=180.18            
N9-C7-C6-N2=179.82            N9-C7-C6-C5=  0.10            C10-N9-C7-C6=179.72           C10-N9-C7-O8=359.65           
C11-N9-C7-C6=359.87           C11-N9-C7-O8=179.80           H19-C10-N9-C7=  0.31          H19-C10-N9-C11=180.16         
H20-C10-N9-C7=120.07          H20-C10-N9-C11=299.93         H21-C10-N9-C7=240.57          H21-C10-N9-C11= 60.42         
           -------------------------------------------------
          |                Final Singlepoint                |
           -------------------------------------------------

          ...................................................
          :                      SETUP                      :
          :.................................................:
          :  # basis functions                  67          :
          :  # atomic orbitals                  67          :
          :  # shells                           39          :
          :  # electrons                        74          :
          :  max. iterations                   250          :
          :  Hamiltonian                  GFN2-xTB          :
          :  restarted?                      false          :
          :  GBSA solvation                  false          :
          :  PC potential                    false          :
          :  electronic temp.         7500.0000000     K    :
          :  accuracy                    1.0000000          :
          :  -> integral cutoff          0.2500000E+02      :
          :  -> integral neglect         0.1000000E-07      :
          :  -> SCF convergence          0.1000000E-05 Eh   :
          :  -> wf. convergence          0.1000000E-03 e    :
          :  Broyden damping             0.4000000          :
          ...................................................

 iter      E             dE          RMSdq      gap      omega  full diag
   1    -42.7039751 -0.427040E+02  0.304E-04    3.33       0.0  T
   2    -42.7039751 -0.370626E-09  0.222E-04    3.33      90.0  T
   3    -42.7039751 -0.541455E-09  0.143E-04    3.33     139.9  T

   *** convergence criteria satisfied after 3 iterations ***

         #    Occupation            Energy/Eh            Energy/eV
      -------------------------------------------------------------
         1        2.0000           -0.8871586             -24.1408
       ...           ...                  ...                  ...
        31        1.9925           -0.6034667             -16.4212
        32        1.9909           -0.5990171             -16.3001
        33        1.9868           -0.5900757             -16.0568
        34        1.9605           -0.5637155             -15.3395
        35        1.9467           -0.5564383             -15.1415
        36        1.9227           -0.5473242             -14.8935
        37        1.9018           -0.5413898             -14.7320 (HOMO)
        38        0.2008           -0.4189224             -11.3995 (LUMO)
        39        0.0885           -0.3980120             -10.8305
        40        0.0251           -0.3673026              -9.9948
        41        0.0016           -0.3011367              -8.1943
        42        0.0005           -0.2738720              -7.4524
       ...           ...                  ...                  ...
        67                          0.5169906              14.0680
      -------------------------------------------------------------
                  HL-Gap            0.1224673 Eh            3.3325 eV
             Fermi-level           -0.4709987 Eh          -12.8165 eV

 SCC (total)                   0 d,  0 h,  0 min,  0.021 sec
 SCC setup                      ...        0 min,  0.000 sec (  0.847%)
 Dispersion                     ...        0 min,  0.000 sec (  0.921%)
 classical contributions        ...        0 min,  0.000 sec (  0.320%)
 integral evaluation            ...        0 min,  0.004 sec ( 20.752%)
 iterations                     ...        0 min,  0.005 sec ( 23.049%)
 molecular gradient             ...        0 min,  0.011 sec ( 53.496%)
 printout                       ...        0 min,  0.000 sec (  0.559%)

         :::::::::::::::::::::::::::::::::::::::::::::::::::::
         ::                     SUMMARY                     ::
         :::::::::::::::::::::::::::::::::::::::::::::::::::::
         :: total energy             -42.209349803964 Eh    ::
         :: gradient norm              0.002014952071 Eh/a0 ::
         :: HOMO-LUMO gap              3.332505023042 eV    ::
         ::.................................................::
         :: SCC energy               -42.703975087809 Eh    ::
         :: -> isotropic ES            0.128805616795 Eh    ::
         :: -> anisotropic ES         -0.008804711716 Eh    ::
         :: -> anisotropic XC          0.016732850288 Eh    ::
         :: -> dispersion             -0.021467730562 Eh    ::
         :: repulsion energy           0.493273683105 Eh    ::
         :: add. restraining           0.001336802284 Eh    ::
         :: total charge               1.000000000002 e     ::
         :::::::::::::::::::::::::::::::::::::::::::::::::::::

           -------------------------------------------------
          |                Property Printout                |
           -------------------------------------------------

    * Orbital Energies and Occupations

         #    Occupation            Energy/Eh            Energy/eV
      -------------------------------------------------------------
         1        2.0000           -0.8871586             -24.1408
       ...           ...                  ...                  ...
        25        1.9993           -0.6596557             -17.9501
        26        1.9990           -0.6503798             -17.6977
        27        1.9986           -0.6431413             -17.5008
        28        1.9975           -0.6297384             -17.1361
        29        1.9966           -0.6227656             -16.9463
        30        1.9930           -0.6051308             -16.4664
        31        1.9925           -0.6034667             -16.4212
        32        1.9909           -0.5990171             -16.3001
        33        1.9868           -0.5900757             -16.0568
        34        1.9605           -0.5637155             -15.3395
        35        1.9467           -0.5564383             -15.1415
        36        1.9227           -0.5473242             -14.8935
        37        1.9018           -0.5413898             -14.7320 (HOMO)
        38        0.2008           -0.4189224             -11.3995 (LUMO)
        39        0.0885           -0.3980120             -10.8305
        40        0.0251           -0.3673026              -9.9948
        41        0.0016           -0.3011367              -8.1943
        42        0.0005           -0.2738720              -7.4524
        43        0.0000           -0.1788124              -4.8657
        44        0.0000           -0.1640018              -4.4627
        45        0.0000           -0.1392237              -3.7885
        46                         -0.0707294              -1.9246
        47                         -0.0418260              -1.1381
        48                         -0.0179756              -0.4891
       ...                                ...                  ...
        67                          0.5169906              14.0680
      -------------------------------------------------------------
                  HL-Gap            0.1224673 Eh            3.3325 eV
             Fermi-level           -0.4709987 Eh          -12.8165 eV

     #   Z          covCN         q      C6AA      α(0)
     1   6 C        3.690    -0.089    22.389     6.771
     2   7 N        2.828     0.070    20.020     6.645
     3   6 C        3.072     0.047    26.873     8.500
     4   7 N        2.780    -0.046    22.133     6.987
     5   6 C        3.065     0.134    25.020     8.202
     6   6 C        3.105    -0.016    28.265     8.711
     7   6 C        2.769     0.266    22.516     7.771
     8   8 O        0.858    -0.373    21.146     6.165
     9   7 N        2.747    -0.067    22.548     7.052
    10   6 C        3.701    -0.065    21.916     6.694
    11   6 C        2.716     0.305    21.827     7.648
    12   8 O        1.681    -0.253    18.197     5.759
    13   7 N        1.829    -0.272    27.903     7.828
    14   6 C        3.596     0.014    20.944     6.624
    15   1 H        0.924     0.103     1.754     2.071
    16   1 H        0.924     0.103     1.759     2.074
    17   1 H        0.925     0.131     1.527     1.932
    18   1 H        0.926     0.118     1.626     1.994
    19   1 H        0.925     0.122     1.594     1.975
    20   1 H        0.925     0.094     1.839     2.121
    21   1 H        0.925     0.095     1.836     2.119
    22   1 H        0.925     0.110     1.693     2.035
    23   1 H        0.925     0.110     1.693     2.035
    24   1 H        0.925     0.124     1.578     1.964
    25   1 H        0.860     0.234     0.949     1.526

 Mol. C6AA /au·bohr⁶  :       6525.596822
 Mol. C8AA /au·bohr⁸  :     149839.291133
 Mol. α(0) /au        :        123.204559


Wiberg/Mayer (AO) data.
largest (>0.10) Wiberg bond orders for each atom

 ---------------------------------------------------------------------------
     #   Z sym  total        # sym  WBO       # sym  WBO       # sym  WBO
 ---------------------------------------------------------------------------
     1   6 C    3.914 --     2 N    0.989    17 H    0.961    16 H    0.960
                            15 H    0.958
     2   7 N    3.622 --     3 C    1.341     6 C    1.160     1 C    0.989
     3   6 C    3.761 --     2 N    1.341     4 N    1.274    18 H    0.954
     4   7 N    3.568 --     3 C    1.274     5 C    1.197    25 H    0.918
     5   6 C    3.901 --     6 C    1.319    13 N    1.217     4 N    1.197
     6   6 C    3.859 --     5 C    1.319     2 N    1.160     7 C    1.102
     7   6 C    3.903 --     8 O    1.637     6 C    1.102     9 N    1.075
     8   8 O    1.940 --     7 C    1.637     9 N    0.129
     9   7 N    3.513 --    11 C    1.142     7 C    1.075    10 C    0.982
                             8 O    0.129
    10   6 C    3.902 --     9 N    0.982    20 H    0.958    21 H    0.958
                            19 H    0.955
    11   6 C    3.869 --    13 N    1.391    12 O    1.194     9 N    1.142
    12   8 O    2.282 --    11 C    1.194    14 C    0.863    13 N    0.102
    13   7 N    2.915 --    11 C    1.391     5 C    1.217    12 O    0.102
    14   6 C    3.826 --    22 H    0.971    23 H    0.971    24 H    0.969
                            12 O    0.863
    15   1 H    0.981 --     1 C    0.958
    16   1 H    0.982 --     1 C    0.960
    17   1 H    0.980 --     1 C    0.961
    18   1 H    0.985 --     3 C    0.954
    19   1 H    0.978 --    10 C    0.955
    20   1 H    0.979 --    10 C    0.958
    21   1 H    0.979 --    10 C    0.958
    22   1 H    0.981 --    14 C    0.971
    23   1 H    0.981 --    14 C    0.971
    24   1 H    0.981 --    14 C    0.969
    25   1 H    0.944 --     4 N    0.918
 ---------------------------------------------------------------------------

Topologies differ in total number of bonds
Writing topology from bond orders to xtbtopo.mol

molecular dipole:
                 x           y           z       tot (Debye)
 q only:        1.288      -1.510       0.024
   full:        1.526      -1.838       0.028       6.073
molecular quadrupole (traceless):
                xx          xy          yy          xz          yz          zz
 q only:       42.667       8.157     -13.505       1.263       0.097     -29.162
  q+dip:       43.042       5.383     -16.234       1.294       0.146     -26.808
   full:       42.334       6.030     -16.962       1.263       0.211     -25.372

           -------------------------------------------------
          |                Geometry Summary                 |
           -------------------------------------------------

      molecular mass/u    :      195.1988581
   center of mass at/Å    :        0.2751841      -0.1367834       0.0068158
  moments of inertia/u·Å² :        0.3693391E+03   0.1006523E+04   0.1366231E+04
rotational constants/cm⁻¹ :        0.4564269E-01   0.1674838E-01   0.1233879E-01

 * 25 selected distances

     #   Z          #   Z                                           value/Å
     1   6 C        2   7 N                                       1.4380245
     2   7 N        3   6 C                                       1.3399707
     3   6 C        4   7 N                                       1.3537685
     4   7 N        5   6 C                                       1.3557970
     2   7 N        6   6 C                                       1.3736861
     5   6 C        6   6 C                                       1.3880512
     6   6 C        7   6 C                                       1.4387462
     7   6 C        8   8 O                                       1.2163378
     7   6 C        9   7 N                                       1.4126456
     9   7 N       10   6 C                                       1.4518804 (max)
     9   7 N       11   6 C                                       1.3972200
    11   6 C       12   8 O                                       1.3386388
     5   6 C       13   7 N                                       1.3827218
    11   6 C       13   7 N                                       1.3324041
     1   6 C       15   1 H                                       1.0909851
     1   6 C       16   1 H                                       1.0906240
     1   6 C       17   1 H                                       1.0899142
     3   6 C       18   1 H                                       1.0717194
    10   6 C       19   1 H                                       1.0891805
    10   6 C       20   1 H                                       1.0896179
    10   6 C       21   1 H                                       1.0896677
    14   6 C       22   1 H                                       1.0861962
    14   6 C       23   1 H                                       1.0862560
    14   6 C       24   1 H                                       1.0824945
     4   7 N       25   1 H                                       1.0096794 (min)

 * 5 distinct bonds (by element types)

   Z      Z             #   av. dist./Å        max./Å        min./Å
   1 H    6 C          10     1.0866656     1.0909851     1.0717194
   6 C    6 C           2     1.4133987     1.4387462     1.3880512
   1 H    7 N           1     1.0096794     1.0096794     1.0096794
   6 C    7 N          10     1.3838119     1.4518804     1.3324041
   6 C    8 O           2     1.2774883     1.3386388     1.2163378


optimized geometry written to: xtbopt.xyz


           -------------------------------------------------
          | TOTAL ENERGY              -42.209349803964 Eh   |
          | GRADIENT NORM               0.002014952071 Eh/α |
          | HOMO-LUMO GAP               3.332505023042 eV   |
           -------------------------------------------------

------------------------------------------------------------------------
 * finished run on 2024/06/05 at 19:58:47.299     
------------------------------------------------------------------------
 total:
 * wall-time:     0 d,  0 h,  0 min,  1.792 sec
 *  cpu-time:     0 d,  0 h,  0 min,  1.767 sec
 * ratio c/w:     0.986 speedup
 SCF:
 * wall-time:     0 d,  0 h,  0 min,  0.036 sec
 *  cpu-time:     0 d,  0 h,  0 min,  0.036 sec
 * ratio c/w:     0.999 speedup
 ANC optimizer:
 * wall-time:     0 d,  0 h,  0 min,  1.724 sec
 *  cpu-time:     0 d,  0 h,  0 min,  1.718 sec
 * ratio c/w:     0.997 speedup

