      -----------------------------------------------------------      
     |                   =====================                   |     
     |                           x T B                           |     
     |                   =====================                   |     
     |                         S. Grimme                         |     
     |          Mulliken Center for Theoretical Chemistry        |     
     |                    University of Bonn                     |     
      -----------------------------------------------------------      

   * xtb version 6.6.1 (8d0f1dd) compiled by 'conda@1efc2f54142f' on 2023-08-01

   xtb is free software: you can redistribute it and/or modify it under
   the terms of the GNU Lesser General Public License as published by
   the Free Software Foundation, either version 3 of the License, or
   (at your option) any later version.
   
   xtb is distributed in the hope that it will be useful,
   but WITHOUT ANY WARRANTY; without even the implied warranty of
   MERCHANTABILITY or FITNESS FOR A PARTICULAR PURPOSE.  See the
   GNU Lesser General Public License for more details.
   
   Cite this work as:
   * C. Bannwarth, E. Caldeweyher, S. Ehlert, A. Hansen, P. Pracht,
     J. Seibert, S. Spicher, S. Grimme, WIREs Comput. Mol. Sci., 2020, 11,
     e01493. DOI: 10.1002/wcms.1493
   
   for GFN2-xTB:
   * C. Bannwarth, S. Ehlert and S. Grimme., J. Chem. Theory Comput., 2019,
     15, 1652-1671. DOI: 10.1021/acs.jctc.8b01176
   for GFN1-xTB:
   * S. Grimme, C. Bannwarth, P. Shushkov, J. Chem. Theory Comput., 2017,
     13, 1989-2009. DOI: 10.1021/acs.jctc.7b00118
   for GFN0-xTB:
   * P. Pracht, E. Caldeweyher, S. Ehlert, S. Grimme, ChemRxiv, 2019, preprint.
     DOI: 10.26434/chemrxiv.8326202.v1
   for GFN-FF:
   * S. Spicher and S. Grimme, Angew. Chem. Int. Ed., 2020, 59, 15665-15673.
     DOI: 10.1002/anie.202004239
   
   for ALPB and GBSA implicit solvation:
   * S. Ehlert, M. Stahn, S. Spicher, S. Grimme, J. Chem. Theory Comput.,
     2021, 17, 4250-4261. DOI: 10.1021/acs.jctc.1c00471
   
   for DFT-D4:
   * E. Caldeweyher, C. Bannwarth and S. Grimme, J. Chem. Phys., 2017,
     147, 034112. DOI: 10.1063/1.4993215
   * E. Caldeweyher, S. Ehlert, A. Hansen, H. Neugebauer, S. Spicher,
     C. Bannwarth and S. Grimme, J. Chem. Phys., 2019, 150, 154122.
     DOI: 10.1063/1.5090222
   * E. Caldeweyher, J.-M. Mewes, S. Ehlert and S. Grimme, Phys. Chem. Chem. Phys.
     2020, 22, 8499-8512. DOI: 10.1039/D0CP00502A
   
   for sTDA-xTB:
   * S. Grimme and C. Bannwarth, J. Chem. Phys., 2016, 145, 054103.
     DOI: 10.1063/1.4959605
   
   in the mass-spec context:
   * V. Asgeirsson, C. Bauer and S. Grimme, Chem. Sci., 2017, 8, 4879.
     DOI: 10.1039/c7sc00601b
   * J. Koopman and S. Grimme, ACS Omega 2019, 4, 12, 15120-15133.
     DOI: 10.1021/acsomega.9b02011
   
   for metadynamics refer to:
   * S. Grimme, J. Chem. Theory Comput., 2019, 155, 2847-2862
     DOI: 10.1021/acs.jctc.9b00143
   
   for SPH calculations refer to:
   * S. Spicher and S. Grimme, J. Chem. Theory Comput., 2021, 17, 1701-1714
     DOI: 10.1021/acs.jctc.0c01306
   
   with help from (in alphabetical order)
   P. Atkinson, C. Bannwarth, F. Bohle, G. Brandenburg, E. Caldeweyher
   M. Checinski, S. Dohm, S. Ehlert, S. Ehrlich, I. Gerasimov, C. Hölzer
   A. Katbashev, J. Koopman, C. Lavigne, S. Lehtola, F. März, M. Müller,
   F. Musil, H. Neugebauer, J. Pisarek, C. Plett, P. Pracht, F. Pultar,
   J. Seibert, P. Shushkov, S. Spicher, M. Stahn, M. Steiner, T. Strunk,
   J. Stückrath, T. Rose, and J. Unsleber
   
 * started run on 2024/06/05 at 19:58:47.318     

           -------------------------------------------------
          |                Calculation Setup                |
           -------------------------------------------------

          program call               : xtb xtbopt.xyz --opt crude --input .xc2 --gfn2
          hostname                   : n-62-29-9
          coordinate file            : xtbopt.xyz
          omp threads                :                     1

   ID    Z sym.   atoms
    1    6 C      1, 3, 5-7, 10, 11, 14
    2    7 N      2, 4, 9, 13
    3    8 O      8, 12
    4    1 H      15-25
########################################################################
[WARNING] Please study the warnings concerning your input carefully
-1- readin_getIntValue: could not parse ''
########################################################################

           -------------------------------------------------
          |                 G F N 2 - x T B                 |
           -------------------------------------------------

        Reference                      10.1021/acs.jctc.8b01176
      * Hamiltonian:
        H0-scaling (s, p, d)           1.850000    2.230000    2.230000
        zeta-weighting                 0.500000
      * Dispersion:
        s8                             2.700000
        a1                             0.520000
        a2                             5.000000
        s9                             5.000000
      * Repulsion:
        kExp                           1.500000    1.000000
        rExp                           1.000000
      * Coulomb:
        alpha                          2.000000
        third order                    shell-resolved
        anisotropic                    true
        a3                             3.000000
        a5                             4.000000
        cn-shift                       1.200000
        cn-exp                         4.000000
        max-rad                        5.000000

q/qsh data taken from xtbrestart
CAMM data taken from xtbrestart

          ...................................................
          :                      SETUP                      :
          :.................................................:
          :  # basis functions                  67          :
          :  # atomic orbitals                  67          :
          :  # shells                           39          :
          :  # electrons                        74          :
          :  max. iterations                   250          :
          :  Hamiltonian                  GFN2-xTB          :
          :  restarted?                       true          :
          :  GBSA solvation                  false          :
          :  PC potential                    false          :
          :  electronic temp.         7500.0000000     K    :
          :  accuracy                    1.0000000          :
          :  -> integral cutoff          0.2500000E+02      :
          :  -> integral neglect         0.1000000E-07      :
          :  -> SCF convergence          0.1000000E-05 Eh   :
          :  -> wf. convergence          0.1000000E-03 e    :
          :  Broyden damping             0.4000000          :
          ...................................................

 iter      E             dE          RMSdq      gap      omega  full diag
   1    -42.7039751 -0.427040E+02  0.312E-05    3.33       0.0  T
   2    -42.7039751 -0.834177E-11  0.236E-05    3.33     846.1  T
   3    -42.7039751 -0.131237E-10  0.109E-05    3.33    1827.2  T

   *** convergence criteria satisfied after 3 iterations ***

         #    Occupation            Energy/Eh            Energy/eV
      -------------------------------------------------------------
         1        2.0000           -0.8871595             -24.1408
       ...           ...                  ...                  ...
        31        1.9925           -0.6034670             -16.4212
        32        1.9909           -0.5990172             -16.3001
        33        1.9868           -0.5900756             -16.0568
        34        1.9605           -0.5637155             -15.3395
        35        1.9467           -0.5564383             -15.1415
        36        1.9227           -0.5473247             -14.8935
        37        1.9018           -0.5413900             -14.7320 (HOMO)
        38        0.2008           -0.4189232             -11.3995 (LUMO)
        39        0.0885           -0.3980123             -10.8305
        40        0.0251           -0.3673029              -9.9948
        41        0.0016           -0.3011364              -8.1943
        42        0.0005           -0.2738721              -7.4524
       ...           ...                  ...                  ...
        67                          0.5169909              14.0680
      -------------------------------------------------------------
                  HL-Gap            0.1224668 Eh            3.3325 eV
             Fermi-level           -0.4709991 Eh          -12.8165 eV

 SCC (total)                   0 d,  0 h,  0 min,  0.022 sec
 SCC setup                      ...        0 min,  0.000 sec (  0.969%)
 Dispersion                     ...        0 min,  0.000 sec (  1.286%)
 classical contributions        ...        0 min,  0.000 sec (  0.327%)
 integral evaluation            ...        0 min,  0.004 sec ( 20.512%)
 iterations                     ...        0 min,  0.005 sec ( 25.047%)
 molecular gradient             ...        0 min,  0.011 sec ( 51.183%)
 printout                       ...        0 min,  0.000 sec (  0.624%)

         :::::::::::::::::::::::::::::::::::::::::::::::::::::
         ::                     SUMMARY                     ::
         :::::::::::::::::::::::::::::::::::::::::::::::::::::
         :: total energy             -42.210686606365 Eh    ::
         :: gradient norm              0.073782296775 Eh/a0 ::
         :: HOMO-LUMO gap              3.332491115327 eV    ::
         ::.................................................::
         :: SCC energy               -42.703975087926 Eh    ::
         :: -> isotropic ES            0.128804847325 Eh    ::
         :: -> anisotropic ES         -0.008804658279 Eh    ::
         :: -> anisotropic XC          0.016732866031 Eh    ::
         :: -> dispersion             -0.021467725817 Eh    ::
         :: repulsion energy           0.493273683105 Eh    ::
         :: add. restraining           0.000000000000 Eh    ::
         :: total charge               1.000000000002 e     ::
         :::::::::::::::::::::::::::::::::::::::::::::::::::::

      ----------------------------------------------------------- 
     |                   =====================                   |
     |                        A N C O P T                        |
     |                   =====================                   |
     |               Approximate Normal Coordinate               |
     |                Rational Function Optimizer                |
      ----------------------------------------------------------- 

          ...................................................
          :                      SETUP                      :
          :.................................................:
          :   optimization level             crude          :
          :   max. optcycles                   200          :
          :   ANC micro-cycles                  20          :
          :   degrees of freedom                69          :
          :.................................................:
          :   RF solver                   davidson          :
          :   write xtbopt.log                true          :
          :   linear?                        false          :
          :   energy convergence         0.5000000E-03 Eh   :
          :   grad. convergence          0.1000000E-01 Eh/α :
          :   maxmium RF displ.          1.0000000          :
          :   Hlow (freq-cutoff)         0.1000000E-01      :
          :   Hmax (freq-cutoff)         5.0000000          :
          :   S6 in model hess.         20.0000000          :
          ...................................................

generating ANC from model Hessian ...
Using Lindh-Hessian (1995)
 Shifting diagonal of input Hessian by    9.4406371657055899E-003
 Lowest  eigenvalues of input Hessian
    0.000000    0.000000    0.000000    0.000000    0.000000    0.000000
    0.010000    0.010701    0.013124    0.013647    0.014182    0.018687
    0.019805    0.021827    0.024836    0.027538    0.031694    0.041561
 Highest eigenvalues
    1.993783    2.075111    2.148048    2.198970    2.320708    2.394056


........................................................................
.............................. CYCLE    1 ..............................
........................................................................

 iter      E             dE          RMSdq      gap      omega  full diag
   1    -42.7039751 -0.427040E+02  0.491E-06    3.33       0.0  T
   2    -42.7039751 -0.156319E-12  0.358E-06    3.33    5593.8  T
   3    -42.7039751 -0.710543E-13  0.212E-06    3.33    9446.1  T
     SCC iter.                  ...        0 min,  0.005 sec
     gradient                   ...        0 min,  0.011 sec
 * total energy  :   -42.2106866 Eh     change       -0.4192202E-12 Eh
   gradient norm :     0.0737823 Eh/α   predicted     0.0000000E+00 (-100.00%)
   displ. norm   :     0.4778702 α      lambda       -0.1741330E-01
   maximum displ.:     0.2689933 α      in ANC's #5, #10, #13, ...

........................................................................
.............................. CYCLE    2 ..............................
........................................................................

 iter      E             dE          RMSdq      gap      omega  full diag
   1    -42.7248771 -0.427249E+02  0.283E-01    3.34       0.0  T
   2    -42.7254029 -0.525856E-03  0.182E-01    3.39       1.0  T
   3    -42.7254485 -0.455456E-04  0.913E-02    3.36       1.0  T
   4    -42.7254835 -0.350079E-04  0.464E-02    3.39       1.0  T
   5    -42.7255179 -0.343885E-04  0.107E-02    3.37       1.9  T
   6    -42.7255198 -0.193720E-05  0.489E-03    3.37       4.1  T
   7    -42.7255199 -0.942660E-07  0.191E-03    3.37      10.5  T
   8    -42.7255199 -0.441459E-07  0.927E-04    3.37      21.6  T
   9    -42.7255199 -0.667100E-08  0.389E-04    3.37      51.4  T
     SCC iter.                  ...        0 min,  0.013 sec
     gradient                   ...        0 min,  0.011 sec
 * total energy  :   -42.2248490 Eh     change       -0.1416235E-01 Eh
   gradient norm :     0.0447774 Eh/α   predicted    -0.1069508E-01 ( -24.48%)
   displ. norm   :     0.6515781 α      lambda       -0.1437989E-01
   maximum displ.:     0.4191725 α      in ANC's #5, #10, #4, ...

........................................................................
.............................. CYCLE    3 ..............................
........................................................................

 iter      E             dE          RMSdq      gap      omega  full diag
   1    -42.7414705 -0.427415E+02  0.344E-01    3.37       0.0  T
   2    -42.7420302 -0.559647E-03  0.211E-01    3.42       1.0  T
   3    -42.7420053  0.248699E-04  0.100E-01    3.39       1.0  T
   4    -42.7420744 -0.690786E-04  0.466E-02    3.42       1.0  T
   5    -42.7421137 -0.393710E-04  0.979E-03    3.40       2.0  T
   6    -42.7421155 -0.172404E-05  0.394E-03    3.41       5.1  T
   7    -42.7421155 -0.680527E-07  0.157E-03    3.41      12.7  T
   8    -42.7421156 -0.346590E-07  0.654E-04    3.41      30.6  T
   9    -42.7421156 -0.343195E-08  0.299E-04    3.41      66.8  T
     SCC iter.                  ...        0 min,  0.013 sec
     gradient                   ...        0 min,  0.012 sec
 * total energy  :   -42.2352326 Eh     change       -0.1038368E-01 Eh
   gradient norm :     0.0254744 Eh/α   predicted    -0.1024246E-01 (  -1.36%)
   displ. norm   :     0.6434455 α      lambda       -0.7078289E-02
   maximum displ.:     0.4965554 α      in ANC's #5, #10, #4, ...

........................................................................
.............................. CYCLE    4 ..............................
........................................................................

 iter      E             dE          RMSdq      gap      omega  full diag
   1    -42.7479428 -0.427479E+02  0.250E-01    3.41       0.0  T
   2    -42.7480144 -0.715722E-04  0.145E-01    3.41       1.0  T
   3    -42.7480037  0.106977E-04  0.395E-02    3.41       1.0  T
   4    -42.7480194 -0.156557E-04  0.113E-02    3.41       1.8  T
   5    -42.7480220 -0.266599E-05  0.471E-03    3.41       4.2  T
   6    -42.7480223 -0.232397E-06  0.230E-03    3.41       8.7  T
   7    -42.7480223 -0.367551E-07  0.854E-04    3.41      23.4  T
   8    -42.7480223 -0.654024E-08  0.394E-04    3.41      50.7  T
     SCC iter.                  ...        0 min,  0.012 sec
     gradient                   ...        0 min,  0.011 sec
 * total energy  :   -42.2412232 Eh     change       -0.5990557E-02 Eh
   gradient norm :     0.0322402 Eh/α   predicted    -0.5004438E-02 ( -16.46%)
   displ. norm   :     0.7329203 α      lambda       -0.6949809E-02
   maximum displ.:     0.5800058 α      in ANC's #5, #4, #10, ...

........................................................................
.............................. CYCLE    5 ..............................
........................................................................

 iter      E             dE          RMSdq      gap      omega  full diag
   1    -42.7521377 -0.427521E+02  0.256E-01    3.42       0.0  T
   2    -42.7521905 -0.528384E-04  0.150E-01    3.40       1.0  T
   3    -42.7521154  0.751643E-04  0.648E-02    3.42       1.0  T
   4    -42.7522120 -0.965837E-04  0.117E-02    3.41       1.7  T
   5    -42.7522145 -0.252834E-05  0.471E-03    3.41       4.2  T
   6    -42.7522145 -0.282347E-07  0.218E-03    3.41       9.2  T
   7    -42.7522146 -0.487427E-07  0.856E-04    3.41      23.4  T
   8    -42.7522146 -0.770926E-08  0.451E-04    3.41      44.3  T
     SCC iter.                  ...        0 min,  0.011 sec
     gradient                   ...        0 min,  0.011 sec
 * total energy  :   -42.2470114 Eh     change       -0.5788204E-02 Eh
   gradient norm :     0.0282747 Eh/α   predicted    -0.5341531E-02 (  -7.72%)
   displ. norm   :     0.6789879 α      lambda       -0.5530005E-02
   maximum displ.:     0.5341746 α      in ANC's #5, #4, #10, ...

........................................................................
.............................. CYCLE    6 ..............................
........................................................................

 iter      E             dE          RMSdq      gap      omega  full diag
   1    -42.7585806 -0.427586E+02  0.249E-01    3.42       0.0  T
   2    -42.7586204 -0.398395E-04  0.146E-01    3.40       1.0  T
   3    -42.7585503  0.701551E-04  0.586E-02    3.42       1.0  T
   4    -42.7586366 -0.863006E-04  0.952E-03    3.41       2.1  T
   5    -42.7586384 -0.179550E-05  0.327E-03    3.41       6.1  T
   6    -42.7586384 -0.621557E-08  0.163E-03    3.41      12.3  T
   7    -42.7586384 -0.229089E-07  0.654E-04    3.41      30.6  T
   8    -42.7586384 -0.638389E-08  0.294E-04    3.41      68.0  T
     SCC iter.                  ...        0 min,  0.011 sec
     gradient                   ...        0 min,  0.011 sec
 * total energy  :   -42.2514573 Eh     change       -0.4445931E-02 Eh
   gradient norm :     0.0174222 Eh/α   predicted    -0.4039742E-02 (  -9.14%)
   displ. norm   :     0.6293310 α      lambda       -0.3869990E-02
   maximum displ.:     0.4965549 α      in ANC's #5, #4, #10, ...

........................................................................
.............................. CYCLE    7 ..............................
........................................................................

 iter      E             dE          RMSdq      gap      omega  full diag
   1    -42.7634927 -0.427635E+02  0.249E-01    3.41       0.0  T
   2    -42.7635198 -0.270474E-04  0.147E-01    3.40       1.0  T
   3    -42.7634852  0.346170E-04  0.420E-02    3.41       1.0  T
   4    -42.7635271 -0.419300E-04  0.839E-03    3.40       2.4  T
   5    -42.7635286 -0.149275E-05  0.331E-03    3.40       6.0  T
   6    -42.7635286 -0.189513E-07  0.125E-03    3.40      16.0  T
   7    -42.7635286 -0.924803E-08  0.439E-04    3.40      45.6  T
   8    -42.7635286 -0.923279E-09  0.246E-04    3.40      81.4  T
     SCC iter.                  ...        0 min,  0.011 sec
     gradient                   ...        0 min,  0.011 sec
 * total energy  :   -42.2544393 Eh     change       -0.2981990E-02 Eh
   gradient norm :     0.0165125 Eh/α   predicted    -0.2701367E-02 (  -9.41%)
   displ. norm   :     0.5233231 α      lambda       -0.2751983E-02
   maximum displ.:     0.3706725 α      in ANC's #5, #4, #10, ...

........................................................................
.............................. CYCLE    8 ..............................
........................................................................

 iter      E             dE          RMSdq      gap      omega  full diag
   1    -42.7725415 -0.427725E+02  0.189E-01    3.40       0.0  T
   2    -42.7725707 -0.291725E-04  0.112E-01    3.40       1.0  T
   3    -42.7725573  0.133699E-04  0.323E-02    3.40       1.0  T
   4    -42.7725736 -0.162751E-04  0.751E-03    3.40       2.7  T
   5    -42.7725752 -0.164631E-05  0.230E-03    3.40       8.7  T
   6    -42.7725753 -0.523809E-07  0.108E-03    3.40      18.6  T
   7    -42.7725753 -0.132996E-08  0.298E-04    3.40      67.0  T
   8    -42.7725753 -0.158480E-08  0.106E-04    3.40     189.6  T
     SCC iter.                  ...        0 min,  0.011 sec
     gradient                   ...        0 min,  0.011 sec
 * total energy  :   -42.2558988 Eh     change       -0.1459533E-02 Eh
   gradient norm :     0.0197778 Eh/α   predicted    -0.1752831E-02 (  20.10%)
   displ. norm   :     0.5823686 α      lambda       -0.2222494E-02
   maximum displ.:     0.4510162 α      in ANC's #5, #4, #10, ...

........................................................................
.............................. CYCLE    9 ..............................
........................................................................

 iter      E             dE          RMSdq      gap      omega  full diag
   1    -42.7645599 -0.427646E+02  0.242E-01    3.39       0.0  T
   2    -42.7645801 -0.202034E-04  0.145E-01    3.39       1.0  T
   3    -42.7645628  0.173818E-04  0.320E-02    3.39       1.0  T
   4    -42.7645867 -0.239478E-04  0.913E-03    3.39       2.2  T
   5    -42.7645875 -0.772779E-06  0.535E-03    3.39       3.7  T
   6    -42.7645876 -0.149310E-06  0.212E-03    3.39       9.4  T
   7    -42.7645877 -0.555277E-07  0.799E-04    3.39      25.0  T
   8    -42.7645877 -0.303739E-08  0.411E-04    3.39      48.6  T
     SCC iter.                  ...        0 min,  0.012 sec
     gradient                   ...        0 min,  0.011 sec
 * total energy  :   -42.2563489 Eh     change       -0.4500326E-03 Eh
   gradient norm :     0.0210071 Eh/α   predicted    -0.1488130E-02 ( 230.67%)
   displ. norm   :     0.1463389 α      lambda       -0.9023505E-03
   maximum displ.:     0.1100917 α      in ANC's #5, #4, #10, ...

........................................................................
.............................. CYCLE   10 ..............................
........................................................................

 iter      E             dE          RMSdq      gap      omega  full diag
   1    -42.7701937 -0.427702E+02  0.796E-02    3.39       0.0  T
   2    -42.7701998 -0.614406E-05  0.476E-02    3.39       1.0  T
   3    -42.7701985  0.135480E-05  0.120E-02    3.39       1.7  T
   4    -42.7702003 -0.184305E-05  0.481E-03    3.39       4.2  T
   5    -42.7702008 -0.523704E-06  0.190E-03    3.39      10.5  T
   6    -42.7702008 -0.711150E-08  0.805E-04    3.39      24.9  T
   7    -42.7702008 -0.375748E-08  0.268E-04    3.39      74.7  T
     SCC iter.                  ...        0 min,  0.010 sec
     gradient                   ...        0 min,  0.011 sec
 * total energy  :   -42.2568009 Eh     change       -0.4520565E-03 Eh
   gradient norm :     0.0065093 Eh/α   predicted    -0.4608378E-03 (   1.94%)
   displ. norm   :     0.0826286 α      lambda       -0.9590532E-04
   maximum displ.:     0.0437760 α      in ANC's #5, #4, #13, ...

   *** GEOMETRY OPTIMIZATION CONVERGED AFTER 10 ITERATIONS ***

------------------------------------------------------------------------
 total energy gain   :        -0.0461143 Eh      -28.9372 kcal/mol
 total RMSD          :         0.9274875 a0        0.4908 Å
 total power (kW/mol):       -12.1073147 (step) -426.6853 (real)
------------------------------------------------------------------------

 ANCopt (total)                0 d,  0 h,  0 min,  0.284 sec
 optimizer setup                ...        0 min,  0.001 sec (  0.195%)
 model hessian                  ...        0 min,  0.007 sec (  2.348%)
 ANC generation                 ...        0 min,  0.001 sec (  0.369%)
 coordinate transformation      ...        0 min,  0.000 sec (  0.033%)
 single point calculation       ...        0 min,  0.272 sec ( 95.735%)
 optimization log               ...        0 min,  0.002 sec (  0.835%)
 hessian update                 ...        0 min,  0.000 sec (  0.042%)
 rational function              ...        0 min,  0.001 sec (  0.248%)

================
 final structure:
================
25
 xtb: 6.6.1 (8d0f1dd)
C            3.31111012141053        1.59650852772231        0.03655391999680
N            2.57094595198479        0.36285154690153        0.03618953583782
C            3.06332820995543       -0.87957697559501        0.05859517579794
N            2.05179024679203       -1.77847553860182        0.05283758539842
C            0.87627967725382       -1.09222998107219        0.02655723578787
C            1.20062457260974        0.26582203244116        0.01608761368549
C            0.17556618254384        1.27106292036745       -0.01350653501828
O            0.33002586860318        2.47449141095697       -0.02965248177315
N           -1.10819793520347        0.68196667259284       -0.02345902664046
C           -2.25421413106845        1.56990851288663       -0.05247127658285
C           -1.31721573797107       -0.66656736565459       -0.01192020049521
O           -2.58259939455392       -1.01395980208423       -0.02396818506757
N           -0.36896028180838       -1.57635708182585        0.01182568906651
C           -2.90672472971089       -2.40056408958649       -0.03026554832762
H            3.90081092125200        1.68866436389573        0.94981299039770
H            3.98394018485877        1.63924897217603       -0.82073250313762
H            2.60216066922375        2.42334904376610       -0.01773874571576
H            4.10467571486313       -1.13116498667988        0.07756508478500
H           -1.87904068641340        2.59264437085207       -0.06681492400954
H           -2.85402540202966        1.38036560259266       -0.94243383959848
H           -2.87402042174621        1.41297315939325        0.83009690431822
H           -2.48956930666125       -2.90260868638448        0.84178156303840
H           -2.52830125699726       -2.88257253071275       -0.93460665992731
H           -3.99647221670714       -2.43410603867795       -0.00597347583791
H            2.14851469360959       -2.78343551806695        0.06681172191570

 Bond Distances (Angstroems)
 ---------------------------
C1-N2=1.4387         C1-H15=1.0910        C1-H16=1.0906        C1-H17=1.0905        N2-C1=1.4387         N2-C3=1.3366         
N2-C6=1.3739         C3-N2=1.3366         C3-N4=1.3532         C3-H18=1.0715        N4-C3=1.3532         N4-C5=1.3614         
N4-H25=1.0097        C5-N4=1.3614         C5-C6=1.3963         C5-N13=1.3361        C6-N2=1.3739         C6-C5=1.3963         
C6-C7=1.4360         C7-C6=1.4360         C7-O8=1.2134         C7-N9=1.4125         O8-C7=1.2134         N9-C7=1.4125         
N9-C10=1.4500        N9-C11=1.3647        C10-N9=1.4500        C10-H19=1.0895       C10-H20=1.0898       C10-H21=1.0898       
C11-N9=1.3647        C11-O12=1.3123       C11-N13=1.3143       O12-C11=1.3123       O12-C14=1.4240       N13-C5=1.3361        
N13-C11=1.3143       C14-O12=1.4240       C14-H22=1.0893       C14-H23=1.0924       C14-H24=1.0905       H15-C1=1.0910        
H16-C1=1.0906        H17-C1=1.0905        H18-C3=1.0715        H19-C10=1.0895       H20-C10=1.0898       H21-C10=1.0898       
H22-C14=1.0893       H23-C14=1.0924       H24-C14=1.0905       H25-N4=1.0097        
 C  H  Rav=1.0885 sigma=0.0057  Rmin=1.0715  Rmax=1.0924    10
 C  C  Rav=1.4161 sigma=0.0199  Rmin=1.3963  Rmax=1.4360     2
 N  H  Rav=1.0097 sigma=0.0000  Rmin=1.0097  Rmax=1.0097     1
 N  C  Rav=1.3742 sigma=0.0430  Rmin=1.3143  Rmax=1.4500    10
 O  C  Rav=1.3166 sigma=0.0860  Rmin=1.2134  Rmax=1.4240     3

 selected bond angles (degree)
 --------------------
H15-C1-N2=110.53               H16-C1-N2=110.54               H16-C1-H15=108.74              H17-C1-N2=108.40               
H17-C1-H15=109.21              H17-C1-H16=109.40              C3-N2-C1=127.41                C6-N2-C1=125.01                
C6-N2-C3=107.58                N4-C3-N2=110.00                H18-C3-N2=125.21               H18-C3-N4=124.79               
C5-N4-C3=108.10                H25-N4-C3=126.12               H25-N4-C5=125.78               C6-C5-N4=106.85                
N13-C5-N4=128.48               N13-C5-C6=124.67               C5-C6-N2=107.47                C7-C6-N2=131.52                
C7-C6-C5=121.01                O8-C7-C6=127.13                N9-C7-C6=110.91                N9-C7-O8=121.95                
C10-N9-C7=117.58               C11-N9-C7=123.45               C11-N9-C10=118.96              H19-C10-N9=107.63              
H20-C10-N9=110.17              H20-C10-H19=110.00             H21-C10-N9=110.19              H21-C10-H19=109.98             
H21-C10-H20=108.86             

 selected dihedral angles (degree)
 ---------------------------------
C3-N2-C1-H15=297.87           C3-N2-C1-H16= 58.31           C3-N2-C1-H17=178.21           C6-N2-C1-H15=117.66           
C6-N2-C1-H16=238.10           C6-N2-C1-H17=358.00           N4-C3-N2-C1=179.86            N4-C3-N2-C6=  0.03            
H18-C3-N2-C1=359.81           H18-C3-N2-C6=179.99           C5-N4-C3-N2=359.97            C5-N4-C3-H18=180.02           
H25-N4-C3-N2=180.05           H25-N4-C3-H18=  0.09          C6-C5-N4-C3=  0.00            C6-C5-N4-H25=179.93           
N13-C5-N4-C3=179.97           N13-C5-N4-H25=359.89          C5-C6-N2-C1=180.14            C5-C6-N2-C3=359.97            
C7-C6-N2-C1=  0.27            C7-C6-N2-C3=180.09            N2-C6-C5-N4=  0.00            N2-C6-C5-N13=180.05           
C7-C6-C5-N4=179.91            C7-C6-C5-N13=359.95           O8-C7-C6-N2=  0.14            O8-C7-C6-C5=180.27            
N9-C7-C6-N2=180.09            N9-C7-C6-C5=  0.23            C10-N9-C7-C6=179.97           C10-N9-C7-O8=359.93           
C11-N9-C7-C6=359.74           C11-N9-C7-O8=179.70           H19-C10-N9-C7=  0.28          H19-C10-N9-C11=180.51         
H20-C10-N9-C7=120.23          H20-C10-N9-C11=300.45         H21-C10-N9-C7=240.36          H21-C10-N9-C11= 60.58         
           -------------------------------------------------
          |                Final Singlepoint                |
           -------------------------------------------------

          ...................................................
          :                      SETUP                      :
          :.................................................:
          :  # basis functions                  67          :
          :  # atomic orbitals                  67          :
          :  # shells                           39          :
          :  # electrons                        74          :
          :  max. iterations                   250          :
          :  Hamiltonian                  GFN2-xTB          :
          :  restarted?                      false          :
          :  GBSA solvation                  false          :
          :  PC potential                    false          :
          :  electronic temp.         7500.0000000     K    :
          :  accuracy                    1.0000000          :
          :  -> integral cutoff          0.2500000E+02      :
          :  -> integral neglect         0.1000000E-07      :
          :  -> SCF convergence          0.1000000E-05 Eh   :
          :  -> wf. convergence          0.1000000E-03 e    :
          :  Broyden damping             0.4000000          :
          ...................................................

 iter      E             dE          RMSdq      gap      omega  full diag
   1    -42.7702008 -0.427702E+02  0.160E-04    3.39       0.0  T
   2    -42.7702008 -0.801137E-10  0.107E-04    3.39     186.9  T
   3    -42.7702008 -0.807177E-10  0.750E-05    3.39     266.7  T

   *** convergence criteria satisfied after 3 iterations ***

         #    Occupation            Energy/Eh            Energy/eV
      -------------------------------------------------------------
         1        2.0000           -0.8943637             -24.3369
       ...           ...                  ...                  ...
        31        1.9917           -0.6071234             -16.5207
        32        1.9896           -0.6017579             -16.3747
        33        1.9893           -0.6012202             -16.3600
        34        1.9606           -0.5698683             -15.5069
        35        1.9548           -0.5665295             -15.4161
        36        1.9393           -0.5593137             -15.2197
        37        1.9034           -0.5478533             -14.9078 (HOMO)
        38        0.1878           -0.4232042             -11.5160 (LUMO)
        39        0.0799           -0.4015251             -10.9261
        40        0.0211           -0.3691935             -10.0463
        41        0.0004           -0.2746443              -7.4735
        42        0.0000           -0.1869328              -5.0867
       ...           ...                  ...                  ...
        67                          0.5278734              14.3642
      -------------------------------------------------------------
                  HL-Gap            0.1246491 Eh            3.3919 eV
             Fermi-level           -0.4770516 Eh          -12.9812 eV

 SCC (total)                   0 d,  0 h,  0 min,  0.021 sec
 SCC setup                      ...        0 min,  0.000 sec (  0.857%)
 Dispersion                     ...        0 min,  0.000 sec (  0.916%)
 classical contributions        ...        0 min,  0.000 sec (  0.313%)
 integral evaluation            ...        0 min,  0.004 sec ( 20.768%)
 iterations                     ...        0 min,  0.005 sec ( 23.238%)
 molecular gradient             ...        0 min,  0.011 sec ( 53.149%)
 printout                       ...        0 min,  0.000 sec (  0.688%)

         :::::::::::::::::::::::::::::::::::::::::::::::::::::
         ::                     SUMMARY                     ::
         :::::::::::::::::::::::::::::::::::::::::::::::::::::
         :: total energy             -42.256800933054 Eh    ::
         :: gradient norm              0.006510553856 Eh/a0 ::
         :: HOMO-LUMO gap              3.391874941819 eV    ::
         ::.................................................::
         :: SCC energy               -42.770200833021 Eh    ::
         :: -> isotropic ES            0.124334203405 Eh    ::
         :: -> anisotropic ES         -0.007420717265 Eh    ::
         :: -> anisotropic XC          0.014827295895 Eh    ::
         :: -> dispersion             -0.021985871595 Eh    ::
         :: repulsion energy           0.513342552346 Eh    ::
         :: add. restraining           0.000000000000 Eh    ::
         :: total charge               1.000000000001 e     ::
         :::::::::::::::::::::::::::::::::::::::::::::::::::::

           -------------------------------------------------
          |                Property Printout                |
           -------------------------------------------------

    * Orbital Energies and Occupations

         #    Occupation            Energy/Eh            Energy/eV
      -------------------------------------------------------------
         1        2.0000           -0.8943637             -24.3369
       ...           ...                  ...                  ...
        25        1.9993           -0.6664684             -18.1355
        26        1.9990           -0.6565229             -17.8649
        27        1.9986           -0.6492154             -17.6660
        28        1.9976           -0.6366821             -17.3250
        29        1.9964           -0.6270969             -17.0642
        30        1.9935           -0.6128713             -16.6771
        31        1.9917           -0.6071234             -16.5207
        32        1.9896           -0.6017579             -16.3747
        33        1.9893           -0.6012202             -16.3600
        34        1.9606           -0.5698683             -15.5069
        35        1.9548           -0.5665295             -15.4161
        36        1.9393           -0.5593137             -15.2197
        37        1.9034           -0.5478533             -14.9078 (HOMO)
        38        0.1878           -0.4232042             -11.5160 (LUMO)
        39        0.0799           -0.4015251             -10.9261
        40        0.0211           -0.3691935             -10.0463
        41        0.0004           -0.2746443              -7.4735
        42        0.0000           -0.1869328              -5.0867
        43        0.0000           -0.1719242              -4.6783
        44        0.0000           -0.1335803              -3.6349
        45        0.0000           -0.1130313              -3.0757
        46                         -0.0601645              -1.6372
        47                         -0.0341607              -0.9296
        48                         -0.0199308              -0.5423
       ...                                ...                  ...
        67                          0.5278734              14.3642
      -------------------------------------------------------------
                  HL-Gap            0.1246491 Eh            3.3919 eV
             Fermi-level           -0.4770516 Eh          -12.9812 eV

     #   Z          covCN         q      C6AA      α(0)
     1   6 C        3.690    -0.090    22.412     6.775
     2   7 N        2.822     0.071    20.000     6.642
     3   6 C        3.053     0.049    26.845     8.497
     4   7 N        2.787    -0.056    22.313     7.016
     5   6 C        3.110     0.139    24.839     8.165
     6   6 C        3.116    -0.024    28.429     8.734
     7   6 C        2.768     0.266    22.519     7.772
     8   8 O        0.857    -0.367    21.042     6.150
     9   7 N        2.747    -0.066    22.511     7.047
    10   6 C        3.701    -0.066    21.926     6.696
    11   6 C        2.830     0.295    21.998     7.686
    12   8 O        1.708    -0.190    17.169     5.594
    13   7 N        1.831    -0.281    28.137     7.860
    14   6 C        3.652     0.006    20.788     6.548
    15   1 H        0.924     0.105     1.741     2.064
    16   1 H        0.924     0.104     1.746     2.067
    17   1 H        0.924     0.133     1.516     1.925
    18   1 H        0.926     0.120     1.615     1.987
    19   1 H        0.925     0.123     1.588     1.971
    20   1 H        0.925     0.099     1.797     2.096
    21   1 H        0.925     0.099     1.796     2.096
    22   1 H        0.925     0.093     1.853     2.129
    23   1 H        0.924     0.092     1.858     2.131
    24   1 H        0.924     0.112     1.680     2.027
    25   1 H        0.860     0.233     0.951     1.528

 Mol. C6AA /au·bohr⁶  :       6527.705189
 Mol. C8AA /au·bohr⁸  :     149801.302102
 Mol. α(0) /au        :        123.202235


Wiberg/Mayer (AO) data.
largest (>0.10) Wiberg bond orders for each atom

 ---------------------------------------------------------------------------
     #   Z sym  total        # sym  WBO       # sym  WBO       # sym  WBO
 ---------------------------------------------------------------------------
     1   6 C    3.911 --     2 N    0.988    17 H    0.959    16 H    0.959
                            15 H    0.957
     2   7 N    3.629 --     3 C    1.348     6 C    1.159     1 C    0.988
     3   6 C    3.771 --     2 N    1.348     4 N    1.276    18 H    0.954
     4   7 N    3.565 --     3 C    1.276     5 C    1.185    25 H    0.918
     5   6 C    3.907 --     6 C    1.298    13 N    1.259     4 N    1.185
     6   6 C    3.858 --     5 C    1.298     2 N    1.159     7 C    1.109
     7   6 C    3.904 --     8 O    1.648     6 C    1.109     9 N    1.057
     8   8 O    1.953 --     7 C    1.648     9 N    0.126
     9   7 N    3.531 --    11 C    1.192     7 C    1.057    10 C    0.978
                             8 O    0.126
    10   6 C    3.900 --     9 N    0.978    19 H    0.959    20 H    0.958
                            21 H    0.958
    11   6 C    3.891 --    13 N    1.373     9 N    1.192    12 O    1.189
    12   8 O    2.332 --    11 C    1.189    14 C    0.938
    13   7 N    2.940 --    11 C    1.373     5 C    1.259
    14   6 C    3.870 --    24 H    0.969    22 H    0.965    23 H    0.965
                            12 O    0.938
    15   1 H    0.981 --     1 C    0.957
    16   1 H    0.981 --     1 C    0.959
    17   1 H    0.980 --     1 C    0.959
    18   1 H    0.984 --     3 C    0.954
    19   1 H    0.979 --    10 C    0.959
    20   1 H    0.978 --    10 C    0.958
    21   1 H    0.978 --    10 C    0.958
    22   1 H    0.982 --    14 C    0.965
    23   1 H    0.982 --    14 C    0.965
    24   1 H    0.982 --    14 C    0.969
    25   1 H    0.945 --     4 N    0.918
 ---------------------------------------------------------------------------

Topologies differ in total number of bonds
Writing topology from bond orders to xtbtopo.mol

molecular dipole:
                 x           y           z       tot (Debye)
 q only:        1.517      -1.594       0.039
   full:        1.786      -1.815       0.047       6.473
molecular quadrupole (traceless):
                xx          xy          yy          xz          yz          zz
 q only:       31.113       2.687      -6.616       0.932      -0.082     -24.497
  q+dip:       31.532      -1.110     -10.301       0.942      -0.064     -21.231
   full:       30.837      -0.583     -10.836       0.912      -0.024     -20.001

           -------------------------------------------------
          |                Geometry Summary                 |
           -------------------------------------------------

      molecular mass/u    :      195.1988581
   center of mass at/Å    :        0.1739102      -0.0718439       0.0028669
  moments of inertia/u·Å² :        0.4078774E+03   0.8720729E+03   0.1270423E+04
rotational constants/cm⁻¹ :        0.4133014E-01   0.1933053E-01   0.1326931E-01

 * 26 selected distances

     #   Z          #   Z                                           value/Å
     1   6 C        2   7 N                                       1.4386636
     2   7 N        3   6 C                                       1.3366268
     3   6 C        4   7 N                                       1.3532410
     4   7 N        5   6 C                                       1.3614144
     2   7 N        6   6 C                                       1.3738995
     5   6 C        6   6 C                                       1.3962861
     6   6 C        7   6 C                                       1.4360119
     7   6 C        8   8 O                                       1.2134080
     7   6 C        9   7 N                                       1.4125099
     9   7 N       10   6 C                                       1.4500469 (max)
     9   7 N       11   6 C                                       1.3646853
    11   6 C       12   8 O                                       1.3122587
     5   6 C       13   7 N                                       1.3361209
    11   6 C       13   7 N                                       1.3143325
    12   8 O       14   6 C                                       1.4239974
     1   6 C       15   1 H                                       1.0910005
     1   6 C       16   1 H                                       1.0906270
     1   6 C       17   1 H                                       1.0905148
     3   6 C       18   1 H                                       1.0714762
    10   6 C       19   1 H                                       1.0894722
    10   6 C       20   1 H                                       1.0898319
    10   6 C       21   1 H                                       1.0898235
    14   6 C       22   1 H                                       1.0892813
    14   6 C       23   1 H                                       1.0924145
    14   6 C       24   1 H                                       1.0905343
     4   7 N       25   1 H                                       1.0097008 (min)

 * 5 distinct bonds (by element types)

   Z      Z             #   av. dist./Å        max./Å        min./Å
   1 H    6 C          10     1.0884976     1.0924145     1.0714762
   6 C    6 C           2     1.4161490     1.4360119     1.3962861
   1 H    7 N           1     1.0097008     1.0097008     1.0097008
   6 C    7 N          10     1.3741541     1.4500469     1.3143325
   6 C    8 O           3     1.3165547     1.4239974     1.2134080


optimized geometry written to: xtbopt.xyz


           -------------------------------------------------
          | TOTAL ENERGY              -42.256800933054 Eh   |
          | GRADIENT NORM               0.006510553856 Eh/α |
          | HOMO-LUMO GAP               3.391874941819 eV   |
           -------------------------------------------------

------------------------------------------------------------------------
 * finished run on 2024/06/05 at 19:58:47.701     
------------------------------------------------------------------------
 total:
 * wall-time:     0 d,  0 h,  0 min,  0.382 sec
 *  cpu-time:     0 d,  0 h,  0 min,  0.339 sec
 * ratio c/w:     0.886 speedup
 SCF:
 * wall-time:     0 d,  0 h,  0 min,  0.022 sec
 *  cpu-time:     0 d,  0 h,  0 min,  0.022 sec
 * ratio c/w:     1.000 speedup
 ANC optimizer:
 * wall-time:     0 d,  0 h,  0 min,  0.311 sec
 *  cpu-time:     0 d,  0 h,  0 min,  0.304 sec
 * ratio c/w:     0.976 speedup

