25
 energy: -42.210686606365 gnorm: 0.073782316393 xtb: 6.6.1 (8d0f1dd)
C            3.35390286164483        1.78752299159135        0.03308303549863
N            2.73359927377931        0.49017086310496        0.03695009073512
C            3.35825126037476       -0.69497737692454        0.06442222544143
N            2.45280113737820       -1.70137610005096        0.06765840149146
C            1.22137779307116       -1.13481391486844        0.03956752339210
C            1.38228759218602        0.24375595691145        0.02115454162938
C            0.23408278086934        1.11003599204191       -0.01312246058038
O            0.26769174333912        2.32572276343204       -0.03441712780655
N           -0.98898133578282        0.40321067314210       -0.02202943214990
C           -2.18224380899189        1.22983295441911       -0.04989852175393
C           -1.12439936930266       -0.98730534516648       -0.00330344627882
O           -2.43505998339381       -1.25955306646050       -0.00515371087616
N           -0.02326490874721       -1.73696097158337        0.02532602949368
C           -3.62908010366381       -2.22688399008630       -0.04740390496296
H            3.93090008863530        1.93643435234347        0.94694729231320
H            4.02184784728248        1.88771096391149       -0.82323013816507
H            2.57233132230334        2.54486940600648       -0.02595176150234
H            4.42132539754639       -0.82952056421883        0.08323077448741
H           -1.86240465049413        2.27089954217156       -0.06394210222355
H           -2.77140031137956        1.01266356848720       -0.94040347480458
H           -2.79126404979202        1.04286237965663        0.83413302010308
H           -3.57875907277588       -2.88286175235361        0.81687788148782
H           -3.58384227803025       -2.78213196206362       -0.97993006516452
H           -4.46336245939660       -1.53834446107109       -0.00640999789291
H            2.64409474742961       -2.69272436076981        0.07701694598247
25
 energy: -42.224848952845 gnorm: 0.044777516273 xtb: 6.6.1 (8d0f1dd)
C            3.33978576999195        1.77030118983750        0.03320638580443
N            2.70668697789533        0.47551830513847        0.03688818721834
C            3.31831580787358       -0.71405342678219        0.06398150473630
N            2.39950080444400       -1.71230488594880        0.06520365672973
C            1.15984267174141       -1.14481239072197        0.03678323576941
C            1.35329340475397        0.23675583735384        0.02021649887510
C            0.22906257481059        1.12631623268484       -0.01373868899548
O            0.27767409786862        2.34121530697934       -0.03454013029785
N           -0.99144108543682        0.42925898866839       -0.02200934317537
C           -2.18697096286367        1.24917934907924       -0.05013969460277
C           -1.12855047286312       -0.95604299249701       -0.00205759234994
O           -2.41835375969028       -1.21026991608497       -0.00249810725539
N           -0.06575555376719       -1.73952334880344        0.02404826409036
C           -3.51234602032185       -2.22841587700399       -0.04572771902463
H            3.91960911202171        1.92015417495017        0.94564694934982
H            4.01001857269758        1.87094121183952       -0.82183316880538
H            2.56604323435474        2.53559780757431       -0.02568694565705
H            4.38265415151644       -0.85332764363979        0.08335684224805
H           -1.86870077545025        2.28989347015661       -0.06461885812988
H           -2.77393134506164        1.02516923780040       -0.94058850888481
H           -2.79383882969593        1.05597579621239        0.83419162318793
H           -3.48216239548831       -2.88456071657044        0.81886346903261
H           -3.49098010680747       -2.78506081667320       -0.97811168500741
H           -4.38436334185265       -1.57703933421915       -0.00633208475272
H            2.59533898341847       -2.70262701772784        0.07666752779071
25
 energy: -42.235232628450 gnorm: 0.025474880208 xtb: 6.6.1 (8d0f1dd)
C            3.32027720805193        1.74475960563082        0.03350220981780
N            2.67561274724621        0.45422482434419        0.03713360898767
C            3.27060685141521       -0.74189383970318        0.06353818825820
N            2.33588828309221       -1.72585453387840        0.06205868504809
C            1.08855682679107       -1.15334122600135        0.03327333361247
C            1.32066562946641        0.22975222060889        0.01899648028762
C            0.22477050512005        1.14993656414874       -0.01408239914572
O            0.29225769381301        2.36397821643785       -0.03428112857351
N           -0.99611471164403        0.46661907680779       -0.02257793794351
C           -2.19381756564110        1.28128143195870       -0.05062869601780
C           -1.14279652454600       -0.91359568095403       -0.00310808689575
O           -2.41791328369906       -1.14939415271141       -0.00018081662789
N           -0.11870002243555       -1.73766463436934        0.02176137180498
C           -3.37140788925257       -2.22226256585213       -0.04203589343204
H            3.90189244230773        1.89081144638746        0.94563707042861
H            3.99153224114385        1.84090945601457       -0.82148981777924
H            2.55404423357833        2.51820131024083       -0.02517272799374
H            4.33418930563956       -0.89024221810784        0.08333264620017
H           -1.87560414569667        2.32106759246039       -0.06537644856185
H           -2.77995424897329        1.05354604265213       -0.94080593396282
H           -2.80004143152868        1.08483364281802        0.83353262598905
H           -3.32561929394096       -2.88454628839386        0.81869782137656
H           -3.34008349409051       -2.78763940556690       -0.97052505057095
H           -4.32498745938171       -1.66010315912753       -0.00647078161321
H            2.53717761725383       -2.71514518424216        0.07644329520094
25
 energy: -42.241223185824 gnorm: 0.032241481326 xtb: 6.6.1 (8d0f1dd)
C            3.30933516902176        1.71843208151884        0.03400332003320
N            2.65544948508030        0.43400471720541        0.03723263495725
C            3.23302629791819       -0.77098120880885        0.06284884528633
N            2.28379671842113       -1.73900201078531        0.05940102857189
C            1.04224234550801       -1.14917482522830        0.03097402001685
C            1.29913715680073        0.23125159192733        0.01795824488568
C            0.22371610296580        1.17720525254524       -0.01445617030949
O            0.31084590858570        2.38990187728009       -0.03429172153277
N           -1.00585333473819        0.51227774177779       -0.02252789547103
C           -2.20047582148020        1.33095641324174       -0.05120180387915
C           -1.16820440939889       -0.86324277480731       -0.00212390240130
O           -2.44290215357911       -1.09725636801303       -0.00082382295547
N           -0.16661440244750       -1.71621075170900        0.02013732087695
C           -3.27689877663318       -2.24839185897268       -0.03957785272518
H            3.89049474365842        1.85808461758274        0.94701275386479
H            3.97957344100652        1.80795917521885       -0.82203416946552
H            2.54782079102900        2.49690428422761       -0.02424654518295
H            4.29354458091072       -0.93474198861438        0.08298108693479
H           -1.87920378691664        2.36950970969123       -0.06670744071160
H           -2.78753634190478        1.10311790062049       -0.94080950285859
H           -2.80766817433676        1.13577343508309        0.83260639634427
H           -3.16709600996309       -2.90703991007657        0.82279310097222
H           -3.19049599737611       -2.81489537262577       -0.96736206812396
H           -4.29316183172882       -1.77633363944428       -0.00603503116567
H            2.47755981368628       -2.72986954723265        0.07542079193255
25
 energy: -42.247011389497 gnorm: 0.028280121540 xtb: 6.6.1 (8d0f1dd)
C            3.30160005852066        1.68860118207719        0.03466511551614
N            2.63625116043074        0.41217739224997        0.03726557926893
C            3.19326803597417       -0.80335357193603        0.06196924639357
N            2.22814103767229       -1.75298452949988        0.05700953969814
C            1.00088777161307       -1.13798060351697        0.02918930595159
C            1.27782337620261        0.23670789236715        0.01704010877163
C            0.22061714470091        1.20586827924484       -0.01425269193918
O            0.32823563803082        2.41619799373984       -0.03359669027327
N           -1.02234507748311        0.56284371663996       -0.02251849955466
C           -2.20892751208000        1.39355301637920       -0.05179258239099
C           -1.20242014909880       -0.80589958428157       -0.00303512807326
O           -2.48217660265883       -1.05188053820430       -0.00495144357112
N           -0.21996198265227       -1.68285066774113        0.01835441968087
C           -3.18969192918825       -2.29291387691522       -0.03727691649525
H            3.88229258999688        1.82064377960398        0.94849353857684
H            3.97067624027742        1.77063131113624       -0.82233483888773
H            2.54572218745461        2.47277613660949       -0.02293488919000
H            4.24939511270399       -0.98792820787927        0.08224924750272
H           -1.88074921954081        2.43022488833148       -0.06769068166252
H           -2.79802880913246        1.16951641055114       -0.94099318143451
H           -2.81866149043745        1.20313463037024        0.83128495503342
H           -2.98980949824919       -2.93339113678941        0.83117409733659
H           -3.02455507894764       -2.85109748660241       -0.96548766919225
H           -4.24272894102564       -1.91721291531689       -0.00469603594613
H            2.40557745100561       -2.74714496901527        0.07403771277453
25
 energy: -42.251457320300 gnorm: 0.017432021296 xtb: 6.6.1 (8d0f1dd)
C            3.29787945142865        1.66105831883405        0.03518855630849
N            2.61837459821435        0.39353318407148        0.03703630373420
C            3.15553578008379       -0.83133607886415        0.06095816327943
N            2.17589305513213       -1.76415057039284        0.05517011341177
C            0.96662969048529       -1.12414444750438        0.02801756685641
C            1.25706947781771        0.24378396813016        0.01615954118950
C            0.21285224766793        1.22820906040866       -0.01425565270277
O            0.33644318815247        2.43588032992440       -0.03289682448948
N           -1.04305826148840        0.60353256946054       -0.02239276095205
C           -2.21883220017293        1.45109792372000       -0.05202952783869
C           -1.23400046751996       -0.75803203182768       -0.00479609921365
O           -2.51575961956031       -1.03151870467428       -0.00821666669796
N           -0.26671641750025       -1.64891575496654        0.01690534399918
C           -3.11091562360444       -2.33065490324728       -0.03549537586422
H            3.87913680190627        1.78531807264276        0.94937447886332
H            3.96671701058340        1.73567170957866       -0.82223103873396
H            2.54936269057977        2.45236739456568       -0.02165177791614
H            4.20710347199714       -1.03733582655263        0.08111589487994
H           -1.88052749856384        2.48536004088732       -0.06811324399443
H           -2.81105861868116        1.23500799224115       -0.94109491479777
H           -2.83192087836811        1.26925799603743        0.83051233774321
H           -2.83054643766475       -2.94135190596789        0.83507495467786
H           -2.87038348507709       -2.87320281434146       -0.95922853236254
H           -4.18126830360916       -2.05904489916972       -0.00443499136151
H            2.33242186185090       -2.76215208139100        0.07249576987594
25
 energy: -42.254439310553 gnorm: 0.016532016567 xtb: 6.6.1 (8d0f1dd)
C            3.30088680470301        1.63607663048695        0.03560249861534
N            2.60215948858488        0.37898789096183        0.03671516177598
C            3.12035662095185       -0.85382240285532        0.06012236503805
N            2.12665766580742       -1.77194470735645        0.05402532307438
C            0.93380844374065       -1.11049715797829        0.02730915856010
C            1.23695824946247        0.25206126017625        0.01581954066662
C            0.20233881746836        1.24728332039654       -0.01398857535264
O            0.33980053097581        2.45286975533691       -0.03213679479109
N           -1.06557488616606        0.63862070999770       -0.02222117613516
C           -2.22997362239891        1.50262390667030       -0.05222496473510
C           -1.26365241392311       -0.71606957472397       -0.00654019856043
O           -2.54226334250193       -1.01873244673048       -0.01335125600749
N           -0.30844943340975       -1.61708223801340        0.01518501619684
C           -3.03226390784351       -2.36136833817671       -0.03340264063226
H            3.88435624962990        1.75138455283218        0.94964243429398
H            3.97081206998292        1.70197398458653       -0.82177172926360
H            2.56322457675485        2.43772714633816       -0.02044793639648
H            4.16786301937132       -1.07988529684189        0.07993215532697
H           -1.87865467812886        2.53329528734003       -0.06818592316549
H           -2.82513020593622        1.29575980758036       -0.94157903209093
H           -2.84597111110640        1.33028373513786        0.83023633555640
H           -2.69344360831875       -2.93895421319962        0.83352817753708
H           -2.73675373330031       -2.88597178043535       -0.94748850281467
H           -4.12705387445698       -2.21296037456929       -0.00445498547270
H            2.26039379414678       -2.77342091535837        0.07084716667040
25
 energy: -42.255898843499 gnorm: 0.019784562628 xtb: 6.6.1 (8d0f1dd)
C            3.30404766637655        1.61509971862518        0.03634401107460
N            2.58527388978244        0.36914386505121        0.03648028176847
C            3.08895656860074       -0.86880348670503        0.05938237476659
N            2.08548380498185       -1.77632392990396        0.05327377338892
C            0.90563497845935       -1.09993736625709        0.02667666915092
C            1.21697278697391        0.25907934493286        0.01583117018850
C            0.18694518434365        1.25842930538975       -0.01366146622649
O            0.33336794305996        2.46259188652640       -0.03078178131031
N           -1.09027258085292        0.66002119879315       -0.02269663891373
C           -2.24362206352766        1.53943714194549       -0.05233515692619
C           -1.29123978218352       -0.69066322917697       -0.00990532764031
O           -2.56306571621308       -1.02615578644810       -0.02048508082815
N           -0.34054026563954       -1.59452208777589        0.01263092891073
C           -2.96433010645771       -2.38348743915332       -0.03189431942208
H            3.89044205485764        1.71974333540389        0.95010361036922
H            3.97554240084897        1.67071663958010       -0.82086913471481
H            2.57934701608576        2.42847519625489       -0.01882808784898
H            4.13258821212916       -1.11044963029288        0.07878377193156
H           -1.87840977487634        2.56601556622567       -0.06748175212463
H           -2.84171409600449        1.34350752207353       -0.94219771233140
H           -2.86219671674639        1.37718125493276        0.83022336779560
H           -2.58247763078204       -2.91549249933967        0.83879393761740
H           -2.62733918904236       -2.88272071292328       -0.93946104860931
H           -4.03625422548580       -2.32245239251845       -0.00541255463739
H            2.19729115540134       -2.78019487363773        0.06865778246538
25
 energy: -42.256348876079 gnorm: 0.021041984739 xtb: 6.6.1 (8d0f1dd)
C            3.31160958433103        1.59208816339317        0.03710221249227
N            2.56866658627020        0.35884026455082        0.03651330485611
C            3.05650744743059       -0.88531696835452        0.05876074769111
N            2.04099349620242       -1.78126504062533        0.05261000377172
C            0.86886256336722       -1.09076192370060        0.02626472166315
C            1.19695675704502        0.26632265308229        0.01627378991608
C            0.17512135830289        1.27499720165387       -0.01296733757867
O            0.33406391380207        2.47802147574411       -0.02894627985153
N           -1.11176781702186        0.69054477253507       -0.02350940533225
C           -2.25526713569309        1.58149971990719       -0.05270079145806
C           -1.32357045102626       -0.65543380419950       -0.01331581969052
O           -2.58985574563845       -1.00444769130166       -0.03079203502541
N           -0.38004365888097       -1.57002290941740        0.01037618992419
C           -2.89156107275091       -2.40583372782414       -0.02981492450509
H            3.90183583503455        1.68466472386135        0.95023243241925
H            3.98509602441994        1.63545489704029       -0.81987983654657
H            2.60312232773259        2.42012536606536       -0.01718215826926
H            4.09727484459489       -1.14142125874435        0.07762359728970
H           -1.87711413070914        2.60348317319773       -0.06668145304211
H           -2.85503041350475        1.39289915988638       -0.94298799136094
H           -2.87535548501966        1.42518177643085        0.82983184843830
H           -2.45009551042058       -2.90220152241798        0.84422651428270
H           -2.50336878679534       -2.88916072001079       -0.93124981014897
H           -4.00051899787270       -2.47300953820231       -0.00508925763230
H            2.13386998088985       -2.78700970094738        0.06647335559118
25
 energy: -42.256800932601 gnorm: 0.006511667115 xtb: 6.6.1 (8d0f1dd)
C            3.31111012141053        1.59650852772231        0.03655391999680
N            2.57094595198479        0.36285154690153        0.03618953583782
C            3.06332820995543       -0.87957697559501        0.05859517579794
N            2.05179024679203       -1.77847553860182        0.05283758539842
C            0.87627967725382       -1.09222998107219        0.02655723578787
C            1.20062457260974        0.26582203244116        0.01608761368549
C            0.17556618254384        1.27106292036745       -0.01350653501828
O            0.33002586860318        2.47449141095697       -0.02965248177315
N           -1.10819793520347        0.68196667259284       -0.02345902664046
C           -2.25421413106845        1.56990851288663       -0.05247127658285
C           -1.31721573797107       -0.66656736565459       -0.01192020049521
O           -2.58259939455392       -1.01395980208423       -0.02396818506757
N           -0.36896028180838       -1.57635708182585        0.01182568906651
C           -2.90672472971089       -2.40056408958649       -0.03026554832762
H            3.90081092125200        1.68866436389573        0.94981299039770
H            3.98394018485877        1.63924897217603       -0.82073250313762
H            2.60216066922375        2.42334904376610       -0.01773874571576
H            4.10467571486313       -1.13116498667988        0.07756508478500
H           -1.87904068641340        2.59264437085207       -0.06681492400954
H           -2.85402540202966        1.38036560259266       -0.94243383959848
H           -2.87402042174621        1.41297315939325        0.83009690431822
H           -2.48956930666125       -2.90260868638448        0.84178156303840
H           -2.52830125699726       -2.88257253071275       -0.93460665992731
H           -3.99647221670714       -2.43410603867795       -0.00597347583791
H            2.14851469360959       -2.78343551806695        0.06681172191570
