25
 energy: 0.000000000000 xtb: 6.6.1 (8d0f1dd)
C            3.23720132972391        1.16630909158653        0.08434468864950
N            2.29877796055224        0.07527476373246        0.03981602671198
C            2.58028186251803       -1.21425391179017        0.03006175752192
N            1.43813944744728       -1.93419254010258        0.00098261751768
C            0.39035684826767       -1.05887462812143       -0.00790371763344
C            0.93510047688824        0.21347817468824        0.01709077332874
C            0.09450143016486        1.40504290868848       -0.00410946993748
O            0.49712746915594        2.54126690785742       -0.00342325656480
N           -1.25076628431515        1.06271869620815       -0.03085477937476
C           -2.21907191394203        2.15522079838987       -0.05001256521996
C           -1.81739470187490       -0.20012724136556       -0.04692818139228
O           -2.99983858926755       -0.37846413507442       -0.07008877579474
N           -0.92618577614240       -1.30210203518959       -0.03682761236648
C           -1.46982251276835       -2.64643077634382       -0.06029819901142
H            3.71247229913541        1.21471443890471        1.06488839270555
H            4.00791460421487        1.03430799217987       -0.67357688121503
H            2.69909982127087        2.09770098766290       -0.09130154035862
H            3.56654087521359       -1.63682977417947        0.04233139674524
H           -1.67107945562430        3.09322822573871       -0.02552706696334
H           -2.82428927394145        2.09428605349656       -0.95318074103337
H           -2.87644002486466        2.07745706351925        0.81450059976605
H           -1.17061985538665       -3.19584861009707        0.83242224714061
H           -1.14560246782873       -3.17511580834413       -0.95688266944647
H           -2.55549768731684       -2.55659960601237       -0.07459039105944
H            1.38130842369251       -2.94313824728853       -0.01389874052104
25
 energy: -5.346735874197 xtb: 6.6.1 (8d0f1dd)
C            3.23628656598607        1.17416188109531        0.08545922129883
N            2.30001625371792        0.10006592487000        0.03285684961516
C            2.60733653604919       -1.24167911945695        0.03209373908474
N            1.43925108683653       -1.96752601301562        0.00310275560513
C            0.40667866752309       -1.08551213902257       -0.00917921990958
C            0.91389164748915        0.21115725042890        0.01194815195292
C            0.11137538973276        1.37892405440204       -0.00715084321990
O            0.49152779437915        2.55551984922289       -0.00540303807577
N           -1.27280315473918        1.05299061687684       -0.03181995912671
C           -2.22360591999591        2.15403480935960       -0.04866802058585
C           -1.81723453138958       -0.19365477052761       -0.04809360548043
O           -3.01647499599313       -0.38104886726293       -0.07023812432779
N           -0.93875043271122       -1.30169545970142       -0.03889211156855
C           -1.47940832021804       -2.63837264373215       -0.06166946287141
H            3.71729663136444        1.21686594200707        1.06633503566461
H            4.00631373084027        1.03735122479389       -0.67584867225605
H            2.69990056135997        2.10510011032889       -0.08986162423350
H            3.58856208904988       -1.63981174552941        0.04475722549413
H           -1.66747057460847        3.08991827171977       -0.02443371525155
H           -2.83026298763497        2.09950740475427       -0.95227356244446
H           -2.88006450361301        2.08235449001528        0.81791349253665
H           -1.17394176024738       -3.18779053581103        0.83133236375773
H           -1.14852169240192       -3.16764457096254       -0.95793931531761
H           -2.56387826706536       -2.54764123097567       -0.07600813893452
H            1.47376685321456       -2.98671293406075       -0.00017917506204
25
 energy: -3.033605180842 xtb: 6.6.1 (8d0f1dd)
C            3.23247416924025        1.17460923406893        0.08444780179592
N            2.29670777167245        0.09796082730795        0.03062966840320
C            2.61205082209976       -1.24497912855190        0.03495650804886
N            1.45703590799129       -1.99535293593673        0.00541713648470
C            0.41339117770390       -1.10822494542689       -0.00944218454658
C            0.90874801915101        0.19729259388616        0.00981557791011
C            0.10796913006805        1.37072134912753       -0.00730472457627
O            0.48977773368827        2.54874715968679       -0.00364086009170
N           -1.27842259206640        1.05496439232308       -0.03183817977980
C           -2.22825430680344        2.15839403308883       -0.04851810998791
C           -1.82003221915528       -0.19160252539633       -0.04890879276317
O           -3.01974009658997       -0.37942618436773       -0.07143610709266
N           -0.93960721572554       -1.30185571503302       -0.03965719168153
C           -1.48628046191199       -2.63475376480127       -0.06230293760925
H            3.71757809586955        1.21274535255273        1.06362153457156
H            4.00034036671316        1.03829166466514       -0.67966868937462
H            2.69874144180940        2.10812670554585       -0.08694160695999
H            3.59841850590845       -1.62820103073059        0.04322711484634
H           -1.67159343905258        3.09412593835131       -0.02336341165675
H           -2.83523782456355        2.10683183471933       -0.95221523174800
H           -2.88644071282868        2.08916115221749        0.81707188545871
H           -1.17945168293765       -3.18246513659574        0.83075445055327
H           -1.15314512832421       -3.16256786841574       -0.95808127467106
H           -2.56977170036521       -2.54127465435606       -0.07692211823108
H            1.57504174871242       -3.02480659173642        0.01143383638947
25
 energy: 0.767003245828 xtb: 6.6.1 (8d0f1dd)
C            3.22746351482654        1.17577589530737        0.08322746904036
N            2.28985298385879        0.09863944122052        0.02775836581804
C            2.60644498106748       -1.24414942718234        0.03468196478346
N            1.47142232472254       -2.02366052553902        0.00759703488961
C            0.41740740279355       -1.13090332352388       -0.00950412359631
C            0.90095030581984        0.18358144915432        0.00720595024233
C            0.10234363624309        1.36088561919487       -0.00825731345229
O            0.48310349370293        2.54048604290486       -0.00241927882678
N           -1.28520522551621        1.05628270436849       -0.03228076748480
C           -2.23265021607222        2.16236114245020       -0.04762413999726
C           -1.82324382804944       -0.18951054564066       -0.04978439698051
O           -3.02333114577209       -0.37741730425785       -0.07217497127936
N           -0.94178855770911       -1.30184680982897       -0.04030134395828
C           -1.49460017655116       -2.63062505788926       -0.06303646514089
H            3.71523206247678        1.21183714312429        1.06126348750216
H            3.99597926241429        1.03863845044138       -0.68059631674712
H            2.70080403247624        2.11362704567799       -0.08659817652515
H            3.59296132381494       -1.62162509361649        0.04349585748952
H           -1.67499610151525        3.09794343115137       -0.02217258910837
H           -2.84048712130493        2.11244994311604       -0.95095401614764
H           -2.89070054664250        2.09411482830926        0.81825894120860
H           -1.18747148935620       -3.17664735743148        0.83051657177306
H           -1.15970919318340       -3.15748517337496       -0.95832920359506
H           -2.57687769172972       -2.53248769467217       -0.07837361812698
H            1.67687684477054       -3.05788825053537        0.01944109714287
25
 energy: 6.060037009481 xtb: 6.6.1 (8d0f1dd)
C            3.22090788247567        1.17508903632957        0.08314025350748
N            2.28295619921393        0.09741750271210        0.02344109917677
C            2.60258857270537       -1.24365189250650        0.03017707514576
N            1.48849684099379       -2.05152894816552        0.00888046872414
C            0.42244288858626       -1.15265634911976       -0.00912405925987
C            0.89368618864167        0.16978032728575        0.00602742697499
C            0.09729525550607        1.35385770409889       -0.00867358775566
O            0.48388814737076        2.53104978495478       -0.00112775307644
N           -1.29094541896692        1.05935594392588       -0.03223949424481
C           -2.23596561617029        2.16822482099741       -0.04822759394768
C           -1.82561598975652       -0.18643583200758       -0.05001678761620
O           -3.02629270806132       -0.37350002070282       -0.07298360743518
N           -0.94300716027137       -1.30104602262244       -0.03995801328346
C           -1.50197124142589       -2.62635077120662       -0.06280549148717
H            3.71197955872632        1.20513351887614        1.06043515870303
H            3.98770598289979        1.04061562739817       -0.68357948828271
H            2.69772857316419        2.11638198275142       -0.07996588304081
H            3.58878538892340       -1.61669118204484        0.04007973126901
H           -1.67684198411496        3.10322173746091       -0.02222779065145
H           -2.84365849796239        2.12071408822405       -0.95186650424276
H           -2.89572333234612        2.10268904281870        0.81666520768122
H           -1.19327710840057       -3.17103343266405        0.83054339686720
H           -1.16598241422128       -3.15252982903148       -0.95770692041753
H           -2.58337147588056       -2.52582914156137       -0.07774642173881
H            1.77749999045664       -3.09049412849323        0.02841345045179
25
 energy: 13.139206175536 xtb: 6.6.1 (8d0f1dd)
C            3.21658563434851        1.17182339144768        0.08165625277202
N            2.27685091771437        0.09385634149109        0.02044356200603
C            2.59602431306521       -1.24561883942778        0.02962277151205
N            1.50146315490629       -2.07886211706070        0.00828987521544
C            0.42269207269678       -1.16887206597807       -0.00308197981604
C            0.88633006695852        0.15984634581983        0.00515732586268
C            0.09293716917389        1.35102722443586       -0.01038345629679
O            0.48253522865066        2.52631897666553        0.00145493626595
N           -1.29689862744749        1.06309397463761       -0.03348294373255
C           -2.24011160475956        2.17386650921303       -0.04664558762457
C           -1.82946883134884       -0.18227388013544       -0.05202993814532
O           -3.03038424533699       -0.37019409158483       -0.07805539226376
N           -0.94649730856243       -1.29876658717526       -0.03785736615222
C           -1.50931334950991       -2.62173385583094       -0.06365675546870
H            3.70930860996928        1.20114748877342        1.05881741653576
H            3.98226118853862        1.03899067857223       -0.68679829585193
H            2.69687521572824        2.11680555557302       -0.07865748484397
H            3.58264266299446       -1.61384283003410        0.04261199486017
H           -1.68006873637879        3.10847524534620       -0.01982916397667
H           -2.84923045460707        2.12940167718619       -0.94943456077604
H           -2.89962763340233        2.10934289824427        0.81858882483078
H           -1.19998179233007       -3.16596297770342        0.82936295498895
H           -1.16992767040392       -3.14604266377592       -0.95814278210730
H           -2.59003013603693       -2.52020649901067       -0.08054203170715
H            1.86877322040649       -3.13182604063356        0.03574119457446
25
 energy: 23.085691668515 xtb: 6.6.1 (8d0f1dd)
C            3.21245794053007        1.16690597451183        0.08069457615889
N            2.25259696536110        0.09088060671930        0.02576479019433
C            2.51189140038710       -1.22649073487925        0.02160134599025
N            1.42908762200447       -1.98786286479135       -0.01184732204710
C            0.38797618096917       -1.09952239833298       -0.00799217414874
C            0.87980255346133        0.20286561984843        0.00826868693640
C            0.06794196986223        1.39307717439458       -0.00563942789108
O            0.46306838276871        2.54508989575115        0.00393678457718
N           -1.29110739754923        1.08432339384223       -0.03167661887026
C           -2.24651668089437        2.18464597011763       -0.04682356153105
C           -1.83601884943004       -0.18534019197022       -0.05175533696765
O           -3.03655230068923       -0.34649358616426       -0.08092737538740
N           -0.96293879749116       -1.27360453569015       -0.03840126377360
C           -1.51512034661613       -2.60952349722609       -0.06517073452326
H            3.70658473410660        1.19064336564291        1.05483089987153
H            3.97322732679768        1.03283667831333       -0.69021361644539
H            2.70189102400024        2.11791948478586       -0.07470341515799
H            3.51308609413837       -1.60940384993349        0.03774738274806
H           -1.68951659254907        3.11992315428974       -0.01952944175566
H           -2.85348937336828        2.13482403586658       -0.95006297699134
H           -2.90530264838406        2.11505606103808        0.81783129041019
H           -1.20183619540725       -3.15343251532262        0.82452334651057
H           -1.16996857302960       -3.13244032943518       -0.95597430677531
H           -2.59645557770414       -2.51519831764583       -0.08284870137728
H            2.21176063156410       -3.52214737723168        0.06435975278191
25
 energy: 21.420503424017 xtb: 6.6.1 (8d0f1dd)
C            3.20935963611266        1.16258615235557        0.08041141478191
N            2.24465016266439        0.09099621800244        0.02488559531504
C            2.49712094508553       -1.22840928442346        0.02090890733990
N            1.41363494069063       -1.98913140098802       -0.01044719988437
C            0.37994168627486       -1.09169916953728       -0.00934366436476
C            0.87389674032024        0.21040645727503        0.00759267123124
C            0.06268264972637        1.40102357852185       -0.00583755646819
O            0.45597144785490        2.55322931172287        0.00262440293225
N           -1.29700303765529        1.09183114508876       -0.03213960508486
C           -2.25237586377886        2.19250622017882       -0.04613854120596
C           -1.84174739765598       -0.17815194949709       -0.05274516904739
O           -3.04253006288100       -0.33826720004044       -0.08112854924562
N           -0.97003942088752       -1.26604714056286       -0.03920481025020
C           -1.52011154388753       -2.60283640119896       -0.06583394832931
H            3.70370290502461        1.18426963729862        1.05437234093819
H            3.96821641225981        1.03054980055708       -0.69253073548559
H            2.70643677939731        2.11783256986469       -0.07306150986375
H            3.49775548409217       -1.61204107586755        0.03831153267282
H           -1.69617588193098        3.12807456861430       -0.01879680025244
H           -2.86036288688307        2.14487341865753       -0.94864097014713
H           -2.91137104423757        2.12461026278290        0.81837447495336
H           -1.20631346562196       -3.14596147495244        0.82434338045618
H           -1.17401449923203       -3.12597413453427       -0.95627722348903
H           -2.60118465561596       -2.50899016155522       -0.08392660016014
H            2.32290223608110       -3.57574662034788        0.06949874259621
25
 energy: 20.278453846300 xtb: 6.6.1 (8d0f1dd)
C            3.20896620472202        1.15810559705703        0.08006763292428
N            2.23782693700291        0.09234477045997        0.02653849159387
C            2.48228404378303       -1.22827977160095        0.02084655490905
N            1.39577114407093       -1.98214352939822       -0.01199192541809
C            0.37062879281177       -1.07867014927999       -0.01064320424482
C            0.86906885669401        0.22190668451645        0.00901985926184
C            0.05863787340477        1.41167855595402       -0.00461775590240
O            0.45107663610056        2.56399339600318        0.00315983608676
N           -1.30142716640045        1.10008017888663       -0.03208839358667
C           -2.25730072477359        2.19926621604318       -0.04601194417622
C           -1.84695690800766       -0.16987730308449       -0.05260890475228
O           -3.04779747217747       -0.32835628066382       -0.08107540253547
N           -0.97770223691762       -1.25752736024910       -0.03937711419687
C           -1.52651354833364       -2.59556959985759       -0.06654246260042
H            3.70315800874290        1.18064678307221        1.05375243816877
H            3.96657743630323        1.02453630741944       -0.69312439730135
H            2.71309385982461        2.11654350276628       -0.07471447559036
H            3.48124511833079       -1.61533640950337        0.03869858049510
H           -1.70024789661348        3.13403766199452       -0.01873788009804
H           -2.86504847643714        2.15150091142337       -0.94860078510163
H           -2.91629733921184        2.13125549152354        0.81850110552793
H           -1.21319338400384       -3.13998595692344        0.82323209732820
H           -1.18040956405338       -3.11892566327408       -0.95690393412488
H           -2.60744424447114       -2.50228078673263       -0.08464910737613
H            2.43461183502733       -3.64599758922773        0.07594853892642
25
 energy: 19.754116797560 xtb: 6.6.1 (8d0f1dd)
C            3.20804183102072        1.15516493623173        0.08006787477088
N            2.23290373260146        0.09345127159080        0.02907861771257
C            2.46844264858071       -1.22822055135916        0.01912814619205
N            1.37741997765591       -1.97313945225802       -0.01394282285230
C            0.36178387232307       -1.06386866504053       -0.01232106902803
C            0.86572716595176        0.23417645096882        0.01017498310965
C            0.05575842691492        1.42285557752518       -0.00439051828055
O            0.44809826071166        2.57532389739524        0.00364230743683
N           -1.30465832203943        1.10832873495556       -0.03258330190045
C           -2.26142708144305        2.20557509800142       -0.04599585890434
C           -1.85113992948527       -0.16153271499935       -0.05271920251819
O           -3.05196990113098       -0.31845648333300       -0.08050685680002
N           -0.98455341223436       -1.24838359660982       -0.03966491206216
C           -1.53307463535767       -2.58709076641331       -0.06682778367913
H            3.70241398263033        1.17702277548423        1.05318440409152
H            3.96392640520854        1.02069429221088       -0.69397773539289
H            2.71367762096676        2.11410574981193       -0.07554858861679
H            3.46588932437699       -1.61896955562499        0.03478959414676
H           -1.70339030879731        3.13946903619865       -0.01854164515318
H           -2.86932215948586        2.15757300731517       -0.94839203032593
H           -2.92046146354330        2.13671825275491        0.81851896023019
H           -1.22111273423809       -3.13233523412470        0.82305650820815
H           -1.18600811770036       -3.11054520138912       -0.95671906869284
H           -2.61395368094601       -2.49317375476732       -0.08568672255242
H            2.54936842253128       -3.73197582210222        0.08875033195368
25
 energy: 19.584155607691 xtb: 6.6.1 (8d0f1dd)
C            3.20991172574798        1.15647518272744        0.08108599289697
N            2.23229976508474        0.09661299647229        0.03418940814750
C            2.45502186168928       -1.22735490417442        0.02017965936867
N            1.35829861779836       -1.96140081212919       -0.01439916972168
C            0.35300433116253       -1.04595031823692       -0.01308836154669
C            0.86523874084668        0.24836182752721        0.01129664037533
C            0.05335150379228        1.43513258933168       -0.00546883088058
O            0.44492098668543        2.58804046091707        0.00246908829738
N           -1.30793423773281        1.11824389281357       -0.03351270063375
C           -2.26608161568653        2.21351620301972       -0.04617100046993
C           -1.85630053166154       -0.15115032949266       -0.05303631951945
O           -3.05736074591800       -0.30729189855838       -0.07968913134178
N           -0.99119133177916       -1.23668586297048       -0.04048124817684
C           -1.53695903593823       -2.57722879253719       -0.06661793531532
H            3.70252527694946        1.17867681489752        1.05500115285597
H            3.96389354455309        1.01529599457610       -0.69322412885608
H            2.71442416251669        2.11442139939040       -0.07925108377105
H            3.44999210666807       -1.62424904188925        0.03555799690473
H           -1.70776317892951        3.14709272159697       -0.01905076751965
H           -2.87525286701886        2.16455374196640       -0.94777290388499
H           -2.92530232618519        2.14347881774460        0.81842663327370
H           -1.22291823553142       -3.12144594667498        0.82304196136836
H           -1.18625269546286       -3.10086097074133       -0.95491764704351
H           -2.61842750460192       -2.48654525210893       -0.08672863175174
H            2.66020227295747       -3.83812938296759        0.08925398670956
25
 energy: 19.551389473855 xtb: 6.6.1 (8d0f1dd)
C            3.21100408127075        1.16058888526066        0.08105444187967
N            2.23070635822590        0.10371681582841        0.03586721842957
C            2.44188097961289       -1.22409121574154        0.01993804725974
N            1.33969547003352       -1.94743062174906       -0.01511049084618
C            0.34423084456761       -1.02704630943559       -0.01373951688161
C            0.86446299657034        0.26341826552646        0.01225053295338
C            0.05013066866139        1.44739408524895       -0.00538754537875
O            0.44057745378355        2.60079693804867        0.00248395899434
N           -1.31107711965373        1.12708107744155       -0.03378846459106
C           -2.27028100931377        2.22091533228901       -0.04615166702580
C           -1.86169134962217       -0.14268081409533       -0.05347558750369
O           -3.06300609797990       -0.29742033598512       -0.07941681574802
N           -0.99754202605388       -1.22537210238680       -0.04222529961744
C           -1.54027031617024       -2.56749687682701       -0.06729097951972
H            3.70320203282156        1.18274990444534        1.05539573854835
H            3.96387624350123        1.01086809228018       -0.69267092641761
H            2.71739975233297        2.11972077591108       -0.08094308290801
H            3.43356103329164       -1.63082884115651        0.03398610387394
H           -1.71109548410144        3.15388605865491       -0.01891133743359
H           -2.88037582340910        2.17125985580236       -0.94743900446095
H           -2.93003072830277        2.14998059081274        0.81836184094301
H           -1.22303894737083       -3.11097649327023        0.82154401507672
H           -1.18617756100947       -3.09094934472237       -0.95424961841597
H           -2.62253767855587       -2.47961226024273       -0.08819959507099
H            2.74487331211499       -3.96436430192818        0.08849978558188
25
 energy: 19.638494214272 xtb: 6.6.1 (8d0f1dd)
C            3.21077465419031        1.16423663035179        0.08106576108545
N            2.22758711194214        0.11005777873146        0.03594465525509
C            2.42813678455860       -1.22149910286530        0.01962132759505
N            1.32022138080618       -1.93437917414275       -0.01468480424923
C            0.33503356391989       -1.00875905649469       -0.01411997157547
C            0.86277915523491        0.27775384067768        0.01344296355702
C            0.04723846559321        1.45955661792875       -0.00371488971248
O            0.43719330140993        2.61321576427031        0.00313852305317
N           -1.31249644808979        1.13490802008653       -0.03310961730654
C           -2.27332568905979        2.22807570964445       -0.04616787464198
C           -1.86670576430979       -0.13705346724604       -0.05352232015613
O           -3.06842603709113       -0.28767908247259       -0.07895600041427
N           -1.00417697941303       -1.21578811715541       -0.04373424580063
C           -1.54271292147027       -2.55932979960964       -0.06808617918607
H            3.70247120260493        1.18707478745686        1.05590581917103
H            3.96462824463167        1.00847290731510       -0.69120567611187
H            2.71817534230471        2.12384852526743       -0.08211860054052
H            3.41673532190500       -1.63864003932221        0.03293317381043
H           -1.71411669664739        3.16103372898711       -0.01861284681727
H           -2.88360525635034        2.17819083270548       -0.94766653463222
H           -2.93367400515343        2.15729510062700        0.81813610331550
H           -1.21968468400588       -3.10209213436573        0.81904068076514
H           -1.18244233378240       -3.08249362282794       -0.95268451088899
H           -2.62669319507048       -2.47643241762703       -0.08955582302134
H            2.81628120565338       -4.10738000543192        0.08531425869913
25
 energy: 19.758895061283 xtb: 6.6.1 (8d0f1dd)
C            3.21309822377709        1.16937925701896        0.08096447510840
N            2.22699668490126        0.11826899983352        0.03531318516618
C            2.42251918891820       -1.21576622894041        0.02197626472417
N            1.30600082924851       -1.91921384181641       -0.01132937257271
C            0.32821623110410       -0.99088297122612       -0.01477591757202
C            0.86303332888173        0.29218508324400        0.01360482331921
C            0.04478359350435        1.47131227379719       -0.00282069902423
O            0.43288835743446        2.62549495313348        0.00320476531257
N           -1.31278183135119        1.14118009305178       -0.03265118048124
C           -2.27418394379989        2.23486243987336       -0.04590001497597
C           -1.87180584362975       -0.13181731843021       -0.05293009581611
O           -3.07410633379644       -0.27794941171933       -0.07723830471527
N           -1.00968400034526       -1.20811096442867       -0.04513770343111
C           -1.53971396201942       -2.55559191779213       -0.06890262513180
H            3.70596982753372        1.19151044560151        1.05556740804210
H            3.96832661766304        1.01149560842565       -0.68969269357465
H            2.71934602179823        2.12777149775547       -0.08250640654009
H            3.40629690959986       -1.64449308443820        0.03401086883188
H           -1.71570965520862        3.16814701286529       -0.01796833187803
H           -2.88586470127556        2.18771205062476       -0.94727668939629
H           -2.93489700818026        2.16460983685233        0.81841046630515
H           -1.21380682142245       -3.09791327293494        0.81830924518461
H           -1.17500904947683       -3.08031981647126       -0.95152988599737
H           -2.62515476116190       -2.48002795105809       -0.09135448563519
H            2.87603741488015       -4.25998360663746        0.08065299705987
25
 energy: 19.846767623466 xtb: 6.6.1 (8d0f1dd)
C            3.21465589987134        1.17589912855023        0.08111082793450
N            2.22656926542511        0.12801992328314        0.03395377286133
C            2.42102677240503       -1.20609643085992        0.02488127852855
N            1.30043300529055       -1.90203781876332       -0.00606613672656
C            0.32498690079804       -0.97386530462246       -0.01526224582990
C            0.86401041205725        0.30618630109104        0.01210432341179
C            0.04509336193092        1.48238329267450       -0.00445489404015
O            0.43129606098748        2.63729937945859        0.00108711473732
N           -1.30870812820863        1.14488289892701       -0.03346892314139
C           -2.27254072804499        2.23465285298632       -0.04577838130807
C           -1.87435301427833       -0.12654001769502       -0.05269434500862
O           -3.07666057071341       -0.26901610757222       -0.07549674840069
N           -1.01219531920790       -1.20078202786753       -0.04676836685400
C           -1.53134559486662       -2.55175876238283       -0.06854004157225
H            3.70554292556138        1.19494757223154        1.05664718929148
H            3.97012609292064        1.01542581799665       -0.68883905934158
H            2.72521104550538        2.13629295377867       -0.08231391044277
H            3.39895231430579       -1.64461817247051        0.03825104801445
H           -1.72315254378282        3.17250057518473       -0.01742980247195
H           -2.88370775965474        2.18608066871294       -0.94676954545279
H           -2.93171476752004        2.15712160193892        0.81822846993434
H           -1.20184123051030       -3.09137974546826        0.81908939670316
H           -1.16520478031654       -3.07399833734626       -0.95209512299488
H           -2.61704360647817       -2.48048818021742       -0.08884985062699
H            2.89207515048292       -4.40814890158441        0.06735115330445
25