72
 energy: -99.318244150089 gnorm: 0.004413351988 xtb: 6.6.1 (8d0f1dd)
N           -1.53204306557807        3.07480155860749        2.50035918295888
C           -1.93851628741252        1.88675768440105        2.23068627897196
C           -3.11880954314916        1.62079039758966        1.49987645618896
C           -3.44829984488768        0.27700890115254        1.13412873868436
C           -4.25160399745416        0.00837082735396       -0.00080505755872
C           -4.57042567917390       -1.27631899579645       -0.38978143934951
O           -5.30563469252057       -1.59764977143164       -1.47817461514722
C           -5.92362594962909       -0.56877405059177       -2.21533855911323
C           -4.09972845226922       -2.38342963236601        0.37118502632548
O           -4.46903659124382       -3.59877461713883       -0.07514900170228
C           -4.14046293343771       -4.73909353438132        0.68322219200896
C           -3.31741392256383       -2.12846495553095        1.49341446765181
C           -2.99186235870084       -0.83780345825339        1.86047654182477
C           -2.32060191019244        2.06692764610367       -2.74392690342837
C           -1.74972214665708        0.84671810438770       -2.14509398014042
C           -0.45352359547902        1.03642474683325       -1.47024541730345
N            0.18927128349268        0.06599044325569       -0.84065134708675
C            1.53642092749242        0.25649750009548       -0.35618402308669
C            2.57214314722621       -0.28104654087885       -1.36411160773072
C            3.97250658884172       -0.04761107008627       -0.86969630463529
C            4.59628056526518        1.17338848695979       -1.07275585928552
C            5.88906740008176        1.39360302559705       -0.62484048226148
C            6.58682058977063        0.39463814268620        0.03982202870467
O            7.84588323088587        0.49089145479369        0.50281661286303
C            8.56492005456715        1.68627273735554        0.29996023969390
C            5.95119840328939       -0.85855648816221        0.26287516383358
O            6.69816086731874       -1.77147717938044        0.91431392959969
C            6.17521982820948       -3.05896880580397        1.13895241945794
C            4.65615077150526       -1.05402799758565       -0.19198607358915
C           -0.36399603472164       -1.26262517409005       -0.77276557912392
C           -4.00212950171987        2.76374380281919        1.07592060717891
C           -4.37859885726636        3.64135959393530        2.27432294242168
C           -3.31610598314500        3.61277980552005       -0.00219024418236
H           -4.62443583763103        0.83525744174457       -0.58157881160543
H           -6.57588948030353        0.04177156477302       -1.58408357223439
H           -6.52267703891556       -1.07058617524218       -2.97217249067154
H           -5.18498383260005        0.07318076869403       -2.70702826889951
H           -4.55829393983008       -4.68332441267209        1.69324313979053
H           -4.58675756228538       -5.58054719287215        0.15485644970682
H           -3.05667580533573       -4.88397203538069        0.74352278715644
H           -2.97064589245397       -2.94736309727139        2.10309925829179
H           -2.42296107373248       -0.69769931569697        2.76518710033354
H           -3.29507424273879        2.02478511905840       -3.18840446679217
H           -1.70002842951403        2.91512859617639       -2.95728494828757
H           -2.47500435639398        0.39711514837294       -1.44047248927744
H           -1.63283063794248        0.06739512282214       -2.92429073104770
H           -1.33796685436664        1.01006346004785        2.51092346185962
H            0.01125914959112        2.00891714425804       -1.48571936038018
H            1.65026892807053       -0.26316571015126        0.59821245070799
H            1.71347351771071        1.32063086400732       -0.19172115236913
H            2.42731973607224        0.23302896832908       -2.31623229883579
H            2.40784953846484       -1.34796279680978       -1.52044761478446
H            4.08101266349454        1.96192517831905       -1.59960381682306
H            6.35126426913413        2.34974873523818       -0.80713296769699
H            8.08219559563031        2.53321196184276        0.79679719888742
H            8.68361588458215        1.90527384804956       -0.76539373830787
H            9.54368946729474        1.51723802310630        0.74491805447635
H            6.96204860170635       -3.60851674095977        1.65218981685209
H            5.28473313717070       -3.02587303030890        1.77482503805673
H            5.93611837534320       -3.56417506843758        0.19793139196645
H            4.17043435330292       -2.00477617116430       -0.03715051635683
H           -0.47738226272006       -1.69554521389484       -1.76995509153962
H           -1.34656394546707       -1.24117147074881       -0.29604286326322
H            0.29181317086096       -1.90140721412047       -0.18715008016233
H           -4.93596992041295        2.35874086590763        0.67384906664689
H           -3.48513127978001        4.09679405224402        2.69449233595299
H           -4.86765147977844        3.04737877341092        3.04445058811536
H           -5.06237567781065        4.42317203542302        1.95398038303136
H           -2.40195405639919        4.04000476157960        0.40150956343396
H           -3.06454114604563        3.01022051722557       -0.88506133030680
H           -3.97345015041933        4.42017717612173       -0.31402395241244
H           -0.67323819921765        3.15672245353196        3.02959098571201
