25
 energy: -40.397828472985 gnorm: 8.791514263965 xtb: 6.6.1 (8d0f1dd)
C            3.11890216106197        1.12742675582581        0.56221871409915
N            2.26921177914563        0.06663553486186        0.11058957119913
C            2.61124019992111       -1.25358355788330        0.22099183098359
N            1.61668179395067       -1.97698302257915       -0.20997539801874
C            0.48807950492683       -1.15980937295091       -0.81799781059532
C            1.04562784459738        0.20286548993690       -0.42476759440515
C            0.19210817282442        1.37787453019534       -0.37973977391120
O            0.59270143951402        2.52076386921487       -0.39237903691279
N           -1.14789227606999        1.04170769081439       -0.26790849324522
C           -2.11626161993811        2.11944060876508       -0.21510543025950
C           -1.63245590256075       -0.22205855250474        0.11064112224092
O           -2.75130374806686       -0.34719900800558        0.53040374514662
N           -0.77350011822627       -1.28722223612306       -0.01290398647235
C           -1.25091498840653       -2.62078159953350        0.26848957802690
H            3.36904307483106        0.97121433671915        1.61349634947504
H            4.05208781147682        1.11107030752343       -0.00551852292769
H            2.62595610094524        2.08946769435852        0.42426851463114
H            0.42825393503457       -1.24981585638352       -1.22842369873240
H           -1.60326810236186        3.05512357510238       -0.42823127902345
H           -2.89961649332400        1.93728685630377       -0.95275593728720
H           -2.58656315631230        2.16175367628430        0.76945468605205
H           -0.64932766493138       -3.07514810862250        1.05864301264624
H           -1.21136183289417       -3.24307103343561       -0.62793542265437
H           -2.28381990817576       -2.54605214769102        0.60786297765971
H            1.65682350713782       -2.98266788859301       -0.28224609981553
25
 energy: -42.119401402689 gnorm: 0.105626159975 xtb: 6.6.1 (8d0f1dd)
C            3.11900869262293        1.12747868509368        0.56216280784284
N            2.26977617637383        0.06728354454400        0.11096819628698
C            2.61221901077317       -1.25389549747656        0.22125305350752
N            1.61980082857288       -1.97714094426501       -0.20410878894502
C            0.52841792109222       -1.09908385792289       -0.53533813264335
C            1.04782369137568        0.20708229265314       -0.41919287913815
C            0.19216280660962        1.37804024967062       -0.37981016476752
O            0.59265270430531        2.52082045073887       -0.39253295945768
N           -1.14786453285201        1.04168236664933       -0.26776585441460
C           -2.11625923374482        2.11944317199084       -0.21511196771031
C           -1.63276358045726       -0.22197027088043        0.11064160195256
O           -2.75147357884297       -0.34720188608198        0.53020215533507
N           -0.77548136627735       -1.28633715751549       -0.00600304676461
C           -1.25098305175819       -2.62091932967091        0.26836792241772
H            3.36905563161246        0.97121685715752        1.61346675728580
H            4.05206798755747        1.11107316650198       -0.00551604952853
H            2.62597141513723        2.08944384896425        0.42427746386307
H            0.38375449970008       -1.31604800253589       -1.52902661198678
H           -1.60327806451956        3.05511419585383       -0.42823296965796
H           -2.89961514389194        1.93728125995104       -0.95274622053009
H           -2.58655929403832        2.16175879461317        0.76944994932642
H           -0.64940847541135       -3.07513631223796        1.05867495103594
H           -1.21127572670406       -3.24305030129441       -0.62793881375122
H           -2.28382343903177       -2.54608876297382        0.60778198575521
H            1.65650563589628       -2.98260801992702       -0.28275076741371
25
 energy: -42.131813830235 gnorm: 0.068205852861 xtb: 6.6.1 (8d0f1dd)
C            3.14166908504893        1.14062977427375        0.56084558656057
N            2.29293841473520        0.08122859308988        0.11467578107090
C            2.64852444912015       -1.23761148220698        0.20048607061019
N            1.62127237332572       -1.96322822644566       -0.17560015717297
C            0.50632076482868       -1.13240778298604       -0.58154979433720
C            1.05631968194932        0.21086717231675       -0.40222241835963
C            0.19513817775390        1.38059793514869       -0.36457755076931
O            0.58887908932228        2.52583528898808       -0.38769764657123
N           -1.14656208427481        1.03906140024016       -0.25971989540066
C           -2.11459070491840        2.11844440410735       -0.21214233877433
C           -1.64376608152464       -0.22102543683719        0.11842808494729
O           -2.77069911575160       -0.34098322297247        0.51919350590763
N           -0.79792063743064       -1.29584750565181       -0.00740720512061
C           -1.26631592477033       -2.63120338332858        0.26943828456603
H            3.38778840474436        0.97595619057983        1.61261148651142
H            4.07194559921840        1.13085012910216       -0.00602348434992
H            2.63735308292880        2.09749678180439        0.43239343981366
H            0.36538387492642       -1.35329776787855       -1.57972745484284
H           -1.60108740858213        3.05356840402272       -0.42499504466400
H           -2.89625592681949        1.93594202545126       -0.95224132294127
H           -2.58760687200911        2.16212169326917        0.76983773641474
H           -0.65933185152594       -3.08593716983484        1.05396226071055
H           -1.22294103285188       -3.24591500879817       -0.63261935584193
H           -2.29780482797771       -2.55725041110255        0.60731660797915
H            1.65178098463407       -2.96965385275145       -0.24149355804665
25
 energy: -42.136189004472 gnorm: 0.062505677983 xtb: 6.6.1 (8d0f1dd)
C            3.15353676713878        1.14726537759119        0.55443436273987
N            2.29838004315685        0.08596499401755        0.12207594665467
C            2.65281889477221       -1.23420519490937        0.20864186779307
N            1.61251000360136       -1.95753093421320       -0.14510751053254
C            0.50097033650942       -1.14792634395964       -0.63564827248200
C            1.05458322506002        0.21385861351308       -0.37595070162645
C            0.19578927333422        1.38390050362610       -0.34700727177332
O            0.58558920294570        2.53047794831624       -0.37346966559794
N           -1.14572537528122        1.03856247760080       -0.24865529323140
C           -2.11531628775126        2.11745190592904       -0.20794143688942
C           -1.64538317490942       -0.22265780284689        0.11970379383742
O           -2.77652351767997       -0.34473352848318        0.50932965257340
N           -0.79975541673945       -1.29867609062048       -0.01211947796266
C           -1.27072171621120       -2.63385217377924        0.26824380913864
H            3.40665396186472        0.98764294824932        1.60566199070174
H            4.08207333573478        1.13552456665223       -0.01548834291606
H            2.65106248544753        2.10547344133696        0.42712192957450
H            0.36628607680946       -1.36969845241486       -1.64290570487528
H           -1.60219212922944        3.05227604963509       -0.42282734711000
H           -2.89400415020248        1.93144707636026       -0.95001242283737
H           -2.59202249829729        2.16379642426769        0.77215269807321
H           -0.66525641881848       -3.09197192595919        1.05145502998739
H           -1.22917675534300       -3.24867459533557       -0.63392167829438
H           -2.30249348903768       -2.56112384992963        0.60618279578508
H            1.63874883722537       -2.96435289304437       -0.20277713283056
25
 energy: -42.137174457458 gnorm: 0.058595889553 xtb: 6.6.1 (8d0f1dd)
C            3.15683736298832        1.14858574452676        0.54945567001323
N            2.29653686257898        0.08686691528257        0.12386064133991
C            2.63988305329031       -1.23660585211587        0.23102236380995
N            1.60532499286265       -1.95651896188442       -0.13291030903501
C            0.50243393521284       -1.14827071291051       -0.65680196259481
C            1.05333725169020        0.21675079350666       -0.36576816823802
C            0.19572674920100        1.38544179570446       -0.33795536427398
O            0.58405144860471        2.53255034667055       -0.36049053457713
N           -1.14534756874256        1.03864455695510       -0.24242701099741
C           -2.11732383443005        2.11551156147152       -0.20506142720102
C           -1.64235467981303       -0.22583980281292        0.11567083140953
O           -2.77412407684838       -0.35179793171739        0.50189384294410
N           -0.79090968264398       -1.29779300415981       -0.01141191224412
C           -1.26959424452141       -2.63234182466609        0.26559629502314
H            3.41882302178757        0.99791031470180        1.59939071007672
H            4.08338085249439        1.12924016044530       -0.02573665473800
H            2.66130264357439        2.10947781901748        0.41716318902426
H            0.37084383924795       -1.36971625329376       -1.67194553690760
H           -1.60521344522437        3.05078747850972       -0.42093638501116
H           -2.89438295338102        1.92650084756314       -0.94758220459611
H           -2.59611275457075        2.16390695947360        0.77468181785819
H           -0.67058713393388       -3.09484529479842        1.05150076902307
H           -1.22937214655354       -3.24847852135415       -0.63544605424090
H           -2.30263756468430       -2.55767850500133        0.60128103364097
H            1.62990958591346       -2.96405008751403       -0.18587202160818
25
 energy: -42.137952057310 gnorm: 0.049787667776 xtb: 6.6.1 (8d0f1dd)
C            3.15971238253588        1.14859974239111        0.54344050271777
N            2.29385666104952        0.08714340251517        0.12506887716743
C            2.62540924457158       -1.24006673051441        0.25744148266345
N            1.59968291298564       -1.95587201420700       -0.12454030487432
C            0.50489755505495       -1.14424713899647       -0.66563321040705
C            1.05285957043044        0.21900948728790       -0.35953285586353
C            0.19515235554099        1.38604817711510       -0.32955803672086
O            0.58298061083259        2.53371070541693       -0.34451084289156
N           -1.14565972244239        1.03901527683910       -0.23657215815148
C           -2.12041257640573        2.11289944424536       -0.20274781689933
C           -1.63903550308992       -0.22917813202773        0.11080239982732
O           -2.77272828149226       -0.35973364271370        0.49027949047853
N           -0.77823648257357       -1.29508488733627       -0.00379741973683
C           -1.26748524170928       -2.62966776075045        0.26180571506439
H            3.43304194334372        1.00716223692586        1.59103972973385
H            4.08233505633657        1.11958600058039       -0.04055365501193
H            2.67081495061145        2.11187059325650        0.40532582030857
H            0.37529021926363       -1.36558555562428       -1.69190528337548
H           -1.61004839882245        3.04886594182752       -0.41975173400267
H           -2.89633612669383        1.91979547995816       -0.94473260678995
H           -2.60030325149545        2.16351196311856        0.77701367825064
H           -0.67852988529681       -3.09865448129576        1.05214132867783
H           -1.22548846442772       -3.24482972997658       -0.63964175017765
H           -2.30299894252894       -2.55180089629701        0.59158807028014
H            1.62166092852092       -2.96425894013801       -0.17129780236770
25
 energy: -42.138674500464 gnorm: 0.036258245535 xtb: 6.6.1 (8d0f1dd)
C            3.16347383871020        1.14805023700619        0.53613216763076
N            2.29156944870134        0.08740574102886        0.12777830996288
C            2.61518642140596       -1.24274847959303        0.28103754537694
N            1.59729168372074       -1.95504661465084       -0.11922997280038
C            0.50679734954784       -1.13863272554208       -0.66106220639064
C            1.05325402350677        0.22018282123807       -0.35582283629930
C            0.19411250943677        1.38584991454647       -0.32098494521902
O            0.58207775252499        2.53406120401488       -0.32631353446774
N           -1.14666566720596        1.03945734604686       -0.23131545274144
C           -2.12389028110769        2.11022698931059       -0.20140454668174
C           -1.63714100073098       -0.23175663484666        0.10674660101574
O           -2.77500799354691       -0.36663842847413        0.47309834222198
N           -0.76546892671942       -1.29149221363722        0.01188637538743
C           -1.26590489595731       -2.62714878286337        0.25781267559075
H            3.45061079776964        1.01289222792037        1.58019110720580
H            4.07931115108566        1.11034150916904       -0.06056970505195
H            2.67798346850582        2.11263537613965        0.39504860952122
H            0.37810704926581       -1.36046326582911       -1.70255153420097
H           -1.61564780846660        3.04674613668738       -0.42093275424714
H           -2.89972131080045        1.91180668159145       -0.94170010902758
H           -2.60345102550658        2.16370571144597        0.77876524104929
H           -0.69021532049440       -3.10455261125459        1.05353099918917
H           -1.21653585418873       -3.23682363405877       -0.64685495806747
H           -2.30515036374570       -2.54581117172799        0.57640971344326
H            1.61545646838869       -2.96400879206797       -0.15852351450025
25
 energy: -42.139255777690 gnorm: 0.021796315161 xtb: 6.6.1 (8d0f1dd)
C            3.16832000048361        1.14834469036848        0.52843517653522
N            2.29091872259351        0.08811135434958        0.13321874495530
C            2.61457887775383       -1.24277432412202        0.29268324798967
N            1.59934653146563       -1.95433444937382       -0.11563062222127
C            0.50713994286058       -1.13512100945711       -0.64441674992212
C            1.05421032355788        0.21990854257552       -0.35312921328419
C            0.19305942064274        1.38520814897729       -0.31312882363741
O            0.58155760931413        2.53367137498068       -0.31009657189974
N           -1.14795258702201        1.03968965532873       -0.22774956085592
C           -2.12611043380913        2.10874560288614       -0.20101648083708
C           -1.63882306682955       -0.23289449176606        0.10348909666152
O           -2.78214831374000       -0.37023722986430        0.45257522878321
N           -0.75862625137159       -1.28907435311127        0.03094986466797
C           -1.26703864651250       -2.62658874112271        0.25470102615512
H            3.47120867492967        1.01380053092661        1.56798360321616
H            4.07449691753962        1.10781983689472       -0.08341431801672
H            2.68043805679897        2.11249029444625        0.39165631073540
H            0.37875111083700       -1.35814541337397       -1.70283067037717
H           -1.61947836160718        3.04504029532970       -0.42441960048298
H           -2.90325782106603        1.90557906853138       -0.93865398935076
H           -2.60368978893971        2.16553336013979        0.77969968461956
H           -0.70435013581971       -3.11231465735707        1.05490142476335
H           -1.20521589906662       -3.22691773590621       -0.65553082060572
H           -2.31062066950324       -2.54389254611608        0.55874969253717
H            1.61371730060956       -2.96340926256422       -0.14785406222896
25
 energy: -42.139637413705 gnorm: 0.010710313913 xtb: 6.6.1 (8d0f1dd)
C            3.17383304092662        1.14999722432104        0.52131194440773
N            2.29242217752561        0.08929445876316        0.13993379290187
C            2.62294951091854       -1.24005532083448        0.28990381850940
N            1.60345507342674       -1.95402367847202       -0.10999773550247
C            0.50646382743664       -1.13575743935490       -0.62279335968288
C            1.05484084103954        0.21886324391575       -0.34917135402126
C            0.19263773783942        1.38485935528169       -0.30670753821549
O            0.58162110631203        2.53305447856973       -0.30009702536456
N           -1.14876568234019        1.03963915890344       -0.22630450348315
C           -2.12644248306073        2.10912870317964       -0.20069152750299
C           -1.64355150949169       -0.23252554828700        0.10073904417392
O           -2.79174849130493       -0.37010385974888        0.43271148779568
N           -0.76081432744259       -1.28928249483206        0.04516428040043
C           -1.27132104613466       -2.62863851972353        0.25215669123695
H            3.49163466823907        1.01058596601239        1.55613906320380
H            4.06982596373702        1.11444392011168       -0.10444733092196
H            2.67899797462486        2.11252570553709        0.39608521250370
H            0.37884179109599       -1.36022077879124       -1.69540942214179
H           -1.62103697964818        3.04488629388139       -0.42897326001423
H           -2.90602513928344        1.90283866966487       -0.93535212313194
H           -2.60131292246203        2.16913297681162        0.78075350518717
H           -0.71712287069510       -3.11972505018143        1.05408114786538
H           -1.19627176282361       -3.21957957151686       -0.66341443189813
H           -2.31815375401889       -2.54832761451862        0.54357524108321
H            1.61547476968341       -2.96277173709238       -0.13802399948877
25
 energy: -42.139820603963 gnorm: 0.005379792665 xtb: 6.6.1 (8d0f1dd)
C            3.17901790890410        1.15306012840783        0.51574405103581
N            2.29584458553477        0.09114629300036        0.14346386517163
C            2.63272845842946       -1.23600886761029        0.28112083830460
N            1.60591993536684       -1.95365226763272       -0.10073756484951
C            0.50602094700410       -1.13877480406250       -0.60591693795329
C            1.05502149939677        0.21842160589535       -0.34435224221970
C            0.19288090872483        1.38494552818044       -0.30227886605931
O            0.58157056822577        2.53278166266434       -0.29611452006903
N           -1.14877493376728        1.03880541014045       -0.22584329207845
C           -2.12523284056241        2.11012747289023       -0.19947896766779
C           -1.64885881673952       -0.23246158970564        0.09727163313895
O           -2.79942748869408       -0.36940756248398        0.41829462359778
N           -0.76874972275978       -1.29215047036623        0.04825018128158
C           -1.27748621688634       -2.63222840515269        0.24884686825389
H            3.50862973619198        1.00736788578921        1.54641055911784
H            4.06727292963953        1.12685164365423       -0.11975901623747
H            2.67762867276367        2.11422982979548        0.40426252284623
H            0.38055283739517       -1.36434700099353       -1.68690753524288
H           -1.61988153626597        3.04495296070870       -0.43204040417915
H           -2.90723134237506        1.90299086006749       -0.93166852520372
H           -2.59757066900467        2.17297601284734        0.78292889574957
H           -0.72591470363287       -3.12508453664204        1.05038522258488
H           -1.19521469566837       -3.21856563294251       -0.66884967173592
H           -2.32553727726258       -2.55551784696511        0.53426590312584
H            1.61722277014136       -2.96221976788411       -0.12612600281275
