25
 energy: 0.000000000000 xtb: 6.6.1 (8d0f1dd)
C            3.23720132972391        1.16630909158653        0.08434468864950
N            2.29877796055224        0.07527476373246        0.03981602671198
C            2.58028186251803       -1.21425391179017        0.03006175752192
N            1.43813944744728       -1.93419254010258        0.00098261751768
C            0.39035684826767       -1.05887462812143       -0.00790371763344
C            0.93510047688824        0.21347817468824        0.01709077332874
C            0.09450143016486        1.40504290868848       -0.00410946993748
O            0.49712746915594        2.54126690785742       -0.00342325656480
N           -1.25076628431515        1.06271869620815       -0.03085477937476
C           -2.21907191394203        2.15522079838987       -0.05001256521996
C           -1.81739470187490       -0.20012724136556       -0.04692818139228
O           -2.99983858926755       -0.37846413507442       -0.07008877579474
N           -0.92618577614240       -1.30210203518959       -0.03682761236648
C           -1.46982251276835       -2.64643077634382       -0.06029819901142
H            3.71247229913541        1.21471443890471        1.06488839270555
H            4.00791460421487        1.03430799217987       -0.67357688121503
H            2.69909982127087        2.09770098766290       -0.09130154035862
H            3.56654087521359       -1.63682977417947        0.04233139674524
H           -1.67107945562430        3.09322822573871       -0.02552706696334
H           -2.82428927394145        2.09428605349656       -0.95318074103337
H           -2.87644002486466        2.07745706351925        0.81450059976605
H           -1.17061985538665       -3.19584861009707        0.83242224714061
H           -1.14560246782873       -3.17511580834413       -0.95688266944647
H           -2.55549768731684       -2.55659960601237       -0.07459039105944
H            1.38130842369251       -2.94313824728853       -0.01389874052104
25
 energy: -5.415701451286 xtb: 6.6.1 (8d0f1dd)
C            3.24361487813970        1.18009969025172        0.08794103423102
N            2.30701992929967        0.10600552359099        0.03609070779904
C            2.60582616597033       -1.23663220525683        0.03477044159666
N            1.42338968708449       -1.93294778811032        0.01378617215027
C            0.39233498222568       -1.06490807177852        0.00085116888465
C            0.91869322100881        0.22556955738931        0.01730155551289
C            0.11942600695348        1.38687073853666       -0.00443563080853
O            0.49776492871725        2.56178154757685       -0.00382007980335
N           -1.26539963276248        1.05012105168124       -0.03366914345620
C           -2.21262879257877        2.15172096875154       -0.05614234611912
C           -1.82205394804687       -0.19191541808975       -0.04623073884376
O           -3.02219771777404       -0.37213439936641       -0.07395549334347
N           -0.95763179695917       -1.30532993018081       -0.02611384264336
C           -1.50900852824978       -2.64857713900050       -0.05480230182498
H            3.73171413485077        1.22379729262431        1.06666327229746
H            4.00977650184771        1.05659706580423       -0.68113669532779
H            2.69907280328748        2.10861988916170       -0.07783615872235
H            3.58450657593152       -1.64917452168961        0.04829566589993
H           -1.65029622928471        3.08273816404921       -0.03068883602929
H           -2.81596019736564        2.09879279210442       -0.96188332362882
H           -2.87159683617807        2.08572181885971        0.80851985028672
H           -1.12189218805756       -3.22996505597332        0.78312167444776
H           -1.24352884622975       -3.15037527141756       -0.97921304229902
H           -2.60481979522903       -2.65116296967195       -0.02874770595798
H            1.37874518555972       -2.93622574721257        0.00149616283958
25
 energy: -2.915550940214 xtb: 6.6.1 (8d0f1dd)
C            3.24661738193073        1.18818112321413        0.09006663345371
N            2.30984206451912        0.11128247390363        0.03734652225492
C            2.61260750319477       -1.23243549516536        0.03802804269571
N            1.43016841154210       -1.92895850243387        0.02689902772440
C            0.38729659375640       -1.07240189714209        0.01396143901062
C            0.91624636268663        0.22388031463544        0.02202474493476
C            0.12413810072709        1.38649162652527       -0.00399489810780
O            0.50147894142425        2.56277840288271       -0.00384018475077
N           -1.26139515741666        1.04817673314972       -0.03852427084184
C           -2.20451863262081        2.15298786159630       -0.06301200838290
C           -1.82302916317460       -0.19207997329103       -0.04387040230381
O           -3.02548671447316       -0.36098260942752       -0.08050599601711
N           -0.97410304691146       -1.31546769598717       -0.00653425652539
C           -1.54490258237445       -2.66190626831273       -0.04992471936184
H            3.74606744703919        1.22866378149688        1.06446928986248
H            4.00790352712467        1.07629287015747       -0.68670688655552
H            2.70098667189268        2.11826768346981       -0.06455683037005
H            3.59282016712092       -1.64631572945133        0.05562802669399
H           -1.63629357328713        3.08023586338984       -0.03658705085145
H           -2.80598797034665        2.10278740522598       -0.96999302766376
H           -2.86514022646126        2.09310152128265        0.80077062783223
H           -1.07182296144222       -3.26839288436781        0.72591982601986
H           -1.35097205895583       -3.12026091057696       -1.01244783421976
H           -2.64498144110717       -2.74861608391822        0.03335096641307
H            1.39488973965699       -2.93224940518219        0.01510926356654
25
 energy: 0.682696736924 xtb: 6.6.1 (8d0f1dd)
C            3.24985183720626        1.19619979989141        0.09239778068101
N            2.31353854954593        0.11649157965799        0.03982241781321
C            2.62098321797817       -1.22775337284670        0.04392406774575
N            1.43971276060663       -1.92650740704439        0.03985271305271
C            0.38560483774027       -1.08100599953059        0.02943787939409
C            0.91603745239555        0.22000124883804        0.03260019475857
C            0.13004704125887        1.38487795516647       -0.00239746853064
O            0.50692941558047        2.56258867199494       -0.00327099476384
N           -1.25509427096357        1.04652524073840       -0.04294809548181
C           -2.19573228028645        2.15427859194512       -0.06990637162415
C           -1.81964322208341       -0.19479531357851       -0.04312639241702
O           -3.02402122565514       -0.35134411022510       -0.09200006382073
N           -0.98583277390793       -1.32821817750294        0.02045766036622
C           -1.57921797572221       -2.67868029754705       -0.04371225981827
H            3.76151393010839        1.23259123596397        1.06152637902904
H            4.00503773509872        1.09534359108268       -0.69273823111430
H            2.70282945507319        2.12744012669534       -0.05060740771943
H            3.60295999670034       -1.64004947712654        0.06531651682752
H           -1.62196989373727        3.07808701394487       -0.04288678321956
H           -2.79588203895536        2.10688967969615       -0.97781900955973
H           -2.85846305748078        2.10056117363095        0.79285519696079
H           -1.02557196027896       -3.30770066044290        0.66176501195896
H           -1.46172127715847       -3.08476689288577       -1.04328202635678
H           -2.67719590002163       -2.84342542533660        0.10569574827532
H            1.41368761838823       -2.93000078226384        0.02768039943185
25
 energy: 5.137313134191 xtb: 6.6.1 (8d0f1dd)
C            3.25301764765039        1.20476987282401        0.09425989128694
N            2.31803787906367        0.12188109886858        0.04247320576902
C            2.63019828629681       -1.22227368217881        0.05207963350166
N            1.45102032997007       -1.92460210855357        0.05281946764000
C            0.38620810505732       -1.09008037452781        0.04523885393106
C            0.91790068086295        0.21509188860030        0.04127862487133
C            0.13714673013640        1.38264641165165       -0.00152784393024
O            0.51435906485524        2.56156028893952       -0.00504116450985
N           -1.24790262535344        1.04493665055489       -0.04565860028478
C           -2.18633858250995        2.15552815221719       -0.07592545394361
C           -1.81376893538466       -0.19913856839872       -0.04323741156791
O           -3.01881139998977       -0.34730547501347       -0.10519071193120
N           -0.99403403865163       -1.34261438947646        0.04930175353277
C           -1.61386009465347       -2.69869002948384       -0.03657462895641
H            3.77540460932983        1.23803821657427        1.05841883274495
H            4.00258017882582        1.11419358305505       -0.69847029799907
H            2.70374642734668        2.13624765700547       -0.03882932080327
H            3.61368763500804       -1.63248285130013        0.07537862844477
H           -1.60724298037877        3.07615188824918       -0.04633430805715
H           -2.78384473209747        2.11233272670528       -0.98575139423008
H           -2.85255480283273        2.10725111433858        0.78468166905299
H           -0.98668022316660       -3.34591357638428        0.59202774650291
H           -1.57378601268301       -3.04822079623443       -1.06677958823974
H           -2.70435908419359       -2.93645380000725        0.18586000429761
H            1.43394799788287       -2.92822188215410        0.03944911221355
25
 energy: 10.762929092170 xtb: 6.6.1 (8d0f1dd)
C            3.25612774502544        1.21363066056489        0.09693266264762
N            2.32283697102818        0.12775483554198        0.04509158717312
C            2.63971392682344       -1.21545565083032        0.05986693762676
N            1.46355693479262       -1.92272439075508        0.06442715292137
C            0.38848367068310       -1.09965886570512        0.06219856717672
C            0.92088377169717        0.20982041544887        0.04880475801804
C            0.14435937582300        1.37866544706559       -0.00097600411720
O            0.52289262448617        2.55747878876093       -0.01006635362658
N           -1.24063989148903        1.04188708737369       -0.04410486798427
C           -2.17720427136408        2.15590081000649       -0.08259408468601
C           -1.80647864945271       -0.20495375307538       -0.03422949976157
O           -3.01065073063846       -0.34836566926895       -0.11284717536356
N           -0.99881442577513       -1.35845393493574        0.08265396730750
C           -1.64983563842720       -2.72054963365853       -0.02764454816729
H            3.78927543113477        1.24183146674156        1.05597544285714
H            3.99917883451253        1.13401959211418       -0.70381084841375
H            2.70433423432981        2.14523461328729       -0.02482419818969
H            3.62455707161076       -1.62303651006206        0.08353161474820
H           -1.59373091116172        3.07418087002025       -0.05244557483438
H           -2.77232178694597        2.11575086757954       -0.99432636967422
H           -2.84706972499515        2.11461900701681        0.77563298441856
H           -0.96124785401378       -3.38698688903780        0.51451274944680
H           -1.68515367564261       -3.00524375499608       -1.08087865890004
H           -2.73211655351085       -3.03149333566896        0.25452893725619
H            1.45503859626413       -2.92651048352979        0.04995920501333
25
 energy: 17.728729866527 xtb: 6.6.1 (8d0f1dd)
C            3.26001353235341        1.22265022026643        0.09859934800677
N            2.32778732155771        0.13483544481570        0.04941534310576
C            2.64887122838202       -1.20723050861776        0.06834344813703
N            1.47588682446488       -1.91937426638113        0.07584630323595
C            0.39169461205829       -1.10667817869305        0.07819078544819
C            0.92448762231782        0.20691781056721        0.05789884800879
C            0.15034092823017        1.37547857004056        0.00257438151398
O            0.52815047881665        2.55357326788188       -0.00896191736566
N           -1.23425395968793        1.03857904080708       -0.04161514949243
C           -2.16882821097057        2.15622662913097       -0.08957825208944
C           -1.79901963293826       -0.21146969025724       -0.02905260584411
O           -3.00198491714481       -0.35180846682841       -0.12390986882703
N           -1.00175175439616       -1.37222490304089        0.11301541280889
C           -1.68172405359116       -2.74573064080462       -0.02226745979965
H            3.80718813336039        1.24443964742538        1.05030015753326
H            3.99349227126489        1.15273189275390       -0.71236709460338
H            2.70654784249060        2.15483039280541       -0.00997549004459
H            3.63463330646739       -1.61292809257639        0.09219748341363
H           -1.58076287043016        3.07219269301490       -0.06015568160712
H           -2.76152681371256        2.11847089776900       -1.00324194721097
H           -2.84196338339206        2.12233751511109        0.76649334687176
H           -0.94498316727346       -3.42733711082007        0.43260324518361
H           -1.79647903313868       -2.96018151626794       -1.08766882623724
H           -2.75066553761899       -3.14086803166130        0.30702569653530
H            1.47533707445249       -2.92342810440193        0.06023943309178
25
 energy: 25.846014338409 xtb: 6.6.1 (8d0f1dd)
C            3.26427187361506        1.23220244226195        0.10200590675370
N            2.33272485833407        0.14334705901400        0.05399519926800
C            2.65613629483012       -1.19703048736433        0.07364021099734
N            1.48729269582854       -1.91505801371636        0.08666524549560
C            0.39581611720129       -1.11060325624757        0.09461334894218
C            0.92875084883046        0.20676757473482        0.06564776477268
C            0.15623014459474        1.37446537721626        0.00421872524995
O            0.53493221257855        2.55189016598120       -0.01555150038844
N           -1.22825675143707        1.03584158573369       -0.03788742856502
C           -2.16013303330837        2.15728182581898       -0.09699735296807
C           -1.79160108073207       -0.21722597314911       -0.02353506964388
O           -2.99322288548477       -0.35628207429905       -0.13397820899344
N           -1.00189474867543       -1.38164929920868        0.14417000850229
C           -1.71587711320947       -2.76889386654563       -0.01027513910248
H            3.82502842931281        1.24547862256757        1.04613573446543
H            3.98838083258936        1.17216219210342       -0.71870016045798
H            2.70966963616106        2.16512351741129        0.00787890620016
H            3.64352058840095       -1.60074180459932        0.09755984228798
H           -1.56688208125668        3.07061135230406       -0.07035845091240
H           -2.75063205092661        2.12087421550153       -1.01234171488454
H           -2.83612457818681        2.13257278831916        0.75718067651595
H           -0.93983944510242       -3.45115582327886        0.35170370330637
H           -1.90851904789970       -2.91295757720986       -1.07361855716879
H           -2.76329063788571       -3.25629527747243        0.36606928755204
H            1.49579463207926       -2.91940121388922        0.06648057286008
25
 energy: 34.151937800169 xtb: 6.6.1 (8d0f1dd)
C            3.26795966556544        1.24304499538340        0.10157249656668
N            2.34004431841355        0.15112678670194        0.05889565375326
C            2.66518275071769       -1.18677926963752        0.08319268310809
N            1.50092326024593       -1.91108501032079        0.09865756876476
C            0.40610178352103       -1.11049802176240        0.10831515109034
C            0.93637222293713        0.20935584821374        0.07352191397108
C            0.16377157601684        1.37658459019512        0.00697259542614
O            0.54374676199623        2.55319303979646       -0.01862562030477
N           -1.21995955354882        1.03444464036501       -0.03440564801641
C           -2.15138444420991        2.15639332031862       -0.10351670902903
C           -1.78046315921166       -0.22078167349771       -0.01882979831519
O           -2.98015109343969       -0.36235690241886       -0.14420481296783
N           -0.99039986151633       -1.38391499207589        0.16702229738201
C           -1.72038792050815       -2.77215150936399       -0.00418371946679
H            3.84221005777531        1.25055402196782        1.03744681319609
H            3.98049348204657        1.19355781954489       -0.73029855950168
H            2.70804720714065        2.17399778191791        0.02115115511168
H            3.65410439054737       -1.58789417340436        0.11237282767322
H           -1.55394597645401        3.06742798378193       -0.07810723661189
H           -2.73893566730805        2.12010551437253       -1.02094816588704
H           -2.83019657536230        2.13698948544836        0.74858583353614
H           -0.92862916574859       -3.46292468003649        0.26446780913198
H           -2.00952273097108       -2.84296366094485       -1.05213064792425
H           -2.75683052231353       -3.37154028272533        0.39429010879884
H            1.51782990511271       -2.91559585718636        0.07371058504114
25
 energy: 44.914961136295 xtb: 6.6.1 (8d0f1dd)
C            3.27237281161324        1.25097203658455        0.10110256202187
N            2.34699165906673        0.15679063824761        0.06538574661790
C            2.67088875722246       -1.17795770349870        0.08706879949985
N            1.51152025328050       -1.90550023583731        0.11351438524833
C            0.41782708733280       -1.10382027531937        0.12384249278922
C            0.94364245924650        0.21704952537819        0.08080757352072
C            0.16980134309062        1.38308617437547        0.00977668998219
O            0.54999811276144        2.55911707295352       -0.02683016895907
N           -1.21299806675251        1.03709600213642       -0.03146096232207
C           -2.14444131370349        2.15959404027656       -0.11015851615139
C           -1.76898149391457       -0.21894577939999       -0.01470587234439
O           -2.96669378691982       -0.36854577405917       -0.15273651622606
N           -0.97425413729086       -1.37931542025632        0.19171557393209
C           -1.70886471983441       -2.76409932915251       -0.00141938806897
H            3.85905072695992        1.25370804874839        1.02917614308035
H            3.97418274059654        1.20957185150230       -0.74054307071430
H            2.70941037516148        2.18119970995275        0.03283761851342
H            3.66118172263936       -1.57660747362913        0.11185400573184
H           -1.54370509959094        3.06873598922898       -0.08561925202373
H           -2.72913276720191        2.12353349869962       -1.02955555132963
H           -2.82601838757513        2.14540287549846        0.73977858550135
H           -0.90654102051802       -3.47006809744677        0.17565560971804
H           -2.08439560750264       -2.75674215581022       -1.02646460524227
H           -2.76186261704004       -3.50223948194142        0.40884095825058
H            1.53352509011256       -2.91045074369605        0.08780074797039
25
 energy: 69.483168838916 xtb: 6.6.1 (8d0f1dd)
C            3.27608295494890        1.25957475277460        0.10253341244562
N            2.35405424059659        0.15723356129460        0.06703071640338
C            2.67409711311566       -1.16300726391967        0.08819190717317
N            1.52599904543776       -1.89811660346756        0.12125121008829
C            0.43140060788349       -1.08840880941698        0.12667768650161
C            0.95646727852790        0.22738175889280        0.08265674965144
C            0.17154737407708        1.39400418529412        0.01030480383917
O            0.56063435698400        2.56368678438610       -0.03105798715649
N           -1.19873308358005        1.04825999954385       -0.02893955342690
C           -2.13490994681679        2.16623404695539       -0.11600224206046
C           -1.75287100236989       -0.21342459695125       -0.02126166611632
O           -2.94579116286298       -0.36658055248866       -0.16382512750695
N           -0.93656639896173       -1.36411592303717        0.17405494663393
C           -1.64301956294647       -2.69658394400143       -0.00562289095708
H            3.87254777531390        1.25559465088059        1.02274735832950
H            3.96641864273246        1.23029098045311       -0.74811135069164
H            2.70744310765252        2.18798364633922        0.04833895159086
H            3.66735918010902       -1.56007293613837        0.11520953526506
H           -1.53444871437158        3.07470432704601       -0.09268973548105
H           -2.71727459639411        2.12719294849902       -1.03662067801433
H           -2.81822273693366        2.15212006549166        0.73212071398563
H           -0.88903537076364       -3.46300829762347        0.10320920201347
H           -2.16137259038738       -2.67621311782855       -0.95707551075584
H           -2.88818834458278       -3.75220923135287        0.43365149302725
H            1.54915887899610       -2.90395872070507        0.09815915523164
25
 energy: 80.198427259381 xtb: 6.6.1 (8d0f1dd)
C            3.28093970728646        1.26884302255198        0.10199915334715
N            2.36099994076606        0.16068127276741        0.07241530198696
C            2.67646763973779       -1.14546622183145        0.09772637255659
N            1.54080859861820       -1.88939058950479        0.13055518749537
C            0.44118340503664       -1.07315497024607        0.11674131004681
C            0.96757213944741        0.23997047603263        0.07933098813338
C            0.17035586080929        1.40175973123344        0.00561675500944
O            0.56467991100480        2.56843255958945       -0.03464508054428
N           -1.18999396877479        1.05828597081448       -0.03089021556228
C           -2.12648183249485        2.17279302871394       -0.12268318500384
C           -1.74183920730924       -0.20554424706487       -0.02678742532622
O           -2.93084787717289       -0.36595927297323       -0.16994364443115
N           -0.90570630327773       -1.34722557024781        0.14505485052507
C           -1.59022570100983       -2.63285829282292       -0.01242672937894
H            3.88931234658671        1.25621072541247        1.01271033491566
H            3.95950157772938        1.24954086952152       -0.75731381526895
H            2.71000434928274        2.19709309211940        0.06282781178296
H            3.67091845315275       -1.54314454991407        0.12345937286151
H           -1.51939600675151        3.07662709970487       -0.10084537411169
H           -2.70495596173179        2.13009332852605       -1.04540503181124
H           -2.81159758690643        2.15937878986420        0.72360855688209
H           -0.89009507507611       -3.44869613487997        0.02756189642282
H           -2.24397454050708       -2.59938926293710       -0.86752711844512
H           -3.00422299021057       -3.96949132394338        0.39840965532336
H            1.56453896809426       -2.89626689180832        0.11172231353292
25
 energy: 84.281666097189 xtb: 6.6.1 (8d0f1dd)
C            3.28396363579880        1.27687537219857        0.09963062908681
N            2.36561890013627        0.16541011474246        0.07489517190694
C            2.67957347895004       -1.13672796360484        0.10256828583372
N            1.54862784145899       -1.88626659905509        0.12739040870884
C            0.44800546828279       -1.06132858466832        0.10564504534093
C            0.97558705703086        0.25176522371286        0.07539938925691
C            0.17228111869248        1.40918521101839        0.00141388981142
O            0.57033791597098        2.57552473762154       -0.03464810294699
N           -1.18384841121649        1.06823218750944       -0.03397240610015
C           -2.12338851154417        2.17651369539412       -0.13310219413404
C           -1.73326655681024       -0.19311839706194       -0.03264266487894
O           -2.92237806446878       -0.35544644528969       -0.16768977512624
N           -0.88781040769063       -1.33356103888097        0.11513766409290
C           -1.56479508589507       -2.58441978155325       -0.02569041338933
H            3.90377488789057        1.25521483506428        1.00127326341450
H            3.94949793507123        1.26531845545404       -0.76863141905450
H            2.71042534288435        2.20454786454231        0.07772502188311
H            3.67541186677945       -1.52971926729401        0.13041413480948
H           -1.51877999641548        3.08114319101431       -0.11569453322958
H           -2.69938076675755        2.12597949958932       -1.05693553116894
H           -2.81032856835753        2.16496651465839        0.71117611671972
H           -0.89884588848460       -3.42411369771528       -0.04747200600089
H           -2.32649354193272       -2.52946767082324       -0.79108919981412
H           -3.10886094382950       -4.12161755018087        0.33343720223576
H            1.57576309401520       -2.89253476304365        0.13001931446404
25
 energy: 85.846475439945 xtb: 6.6.1 (8d0f1dd)
C            3.28468228507497        1.27708577217496        0.09695041349608
N            2.36772083720412        0.16647208464417        0.07665325063953
C            2.67945481761045       -1.13265032157261        0.10289393010434
N            1.55204376654024       -1.88543546356618        0.11687598716849
C            0.45240381959682       -1.05056472474885        0.09368739354794
C            0.98231430378154        0.26378012037980        0.07151159406846
C            0.17745216429415        1.41852948386244       -0.00129648549863
O            0.57575099148855        2.58579641468240       -0.03358356504363
N           -1.17729830802133        1.07584307660821       -0.03829622997532
C           -2.12329950293808        2.17497603459328       -0.13907738488589
C           -1.72602296280381       -0.18167723732069       -0.03886493933877
O           -2.91783502205850       -0.34177491868818       -0.15949366984728
N           -0.87501114800760       -1.32376746344823        0.08609046356893
C           -1.54595168717852       -2.55095952920103       -0.03863845507368
H            3.91354669118854        1.24919559041769        0.99002677005602
H            3.93498953079313        1.27077635102023       -0.77955879167510
H            2.71332897456743        2.20841565455034        0.09231380926689
H            3.67554310469844       -1.51917005030333        0.13218512704510
H           -1.52713540657193        3.08445770264791       -0.12505729259781
H           -2.69798659079648        2.11538442553451       -1.06299833422855
H           -2.81128309413052        2.15739817339071        0.70432172484781
H           -0.90378457288727       -3.40901069148498       -0.12591874613774
H           -2.39754425945384       -2.46522652269885       -0.71673187506328
H           -3.21301362959080       -4.24805476805198        0.25279344606101
H            1.57094872535929       -2.89182216970779        0.13104170971695
25
 energy: 86.026316204278 xtb: 6.6.1 (8d0f1dd)
C            3.28835951585167        1.27452873626486        0.09678904755477
N            2.37110453801404        0.16582319669435        0.07902985968219
C            2.68145647054259       -1.13199747445531        0.10317855000669
N            1.55506992109767       -1.88387836013963        0.10378060902054
C            0.45785677085737       -1.03974601601095        0.08159565937466
C            0.99047256642185        0.27497287007805        0.06771746464651
C            0.18538369513132        1.42821571603665       -0.00128351789038
O            0.58187418045326        2.59681467858262       -0.02920409282208
N           -1.17139046122252        1.08306932731080       -0.04197125376350
C           -2.12263804078552        2.17316750654077       -0.14658484385344
C           -1.72135883150355       -0.17055283838274       -0.04464847147960
O           -2.91527183180231       -0.32987662053325       -0.14912216695320
N           -0.86322529752593       -1.31352291598230        0.05841760939133
C           -1.52287305290244       -2.52898571457516       -0.04208387348797
H            3.91910224966204        1.23722769950879        0.98346320583400
H            3.92522726928892        1.25825528429210       -0.78691528470703
H            2.71793384085234        2.20541516474086        0.10207007586154
H            3.67921706922848       -1.51426221075655        0.13999606696519
H           -1.53788019119320        3.08917159317728       -0.13427316677017
H           -2.69583622761759        2.10390927597862       -1.07030068592367
H           -2.81244257385233        2.15124877959920        0.69432437774502
H           -0.89481802472513       -3.39332069890787       -0.20564472843472
H           -2.44642168407971       -2.42148932963266       -0.62537298696258
H           -3.30464585170094       -4.38059621360794        0.18371769466031
H            1.55043264337132       -2.89156914671132        0.12352095772368
25