      -----------------------------------------------------------      
     |                   =====================                   |     
     |                           x T B                           |     
     |                   =====================                   |     
     |                         S. Grimme                         |     
     |          Mulliken Center for Theoretical Chemistry        |     
     |                    University of Bonn                     |     
      -----------------------------------------------------------      

   * xtb version 6.6.1 (8d0f1dd) compiled by 'conda@1efc2f54142f' on 2023-08-01

   xtb is free software: you can redistribute it and/or modify it under
   the terms of the GNU Lesser General Public License as published by
   the Free Software Foundation, either version 3 of the License, or
   (at your option) any later version.
   
   xtb is distributed in the hope that it will be useful,
   but WITHOUT ANY WARRANTY; without even the implied warranty of
   MERCHANTABILITY or FITNESS FOR A PARTICULAR PURPOSE.  See the
   GNU Lesser General Public License for more details.
   
   Cite this work as:
   * C. Bannwarth, E. Caldeweyher, S. Ehlert, A. Hansen, P. Pracht,
     J. Seibert, S. Spicher, S. Grimme, WIREs Comput. Mol. Sci., 2020, 11,
     e01493. DOI: 10.1002/wcms.1493
   
   for GFN2-xTB:
   * C. Bannwarth, S. Ehlert and S. Grimme., J. Chem. Theory Comput., 2019,
     15, 1652-1671. DOI: 10.1021/acs.jctc.8b01176
   for GFN1-xTB:
   * S. Grimme, C. Bannwarth, P. Shushkov, J. Chem. Theory Comput., 2017,
     13, 1989-2009. DOI: 10.1021/acs.jctc.7b00118
   for GFN0-xTB:
   * P. Pracht, E. Caldeweyher, S. Ehlert, S. Grimme, ChemRxiv, 2019, preprint.
     DOI: 10.26434/chemrxiv.8326202.v1
   for GFN-FF:
   * S. Spicher and S. Grimme, Angew. Chem. Int. Ed., 2020, 59, 15665-15673.
     DOI: 10.1002/anie.202004239
   
   for ALPB and GBSA implicit solvation:
   * S. Ehlert, M. Stahn, S. Spicher, S. Grimme, J. Chem. Theory Comput.,
     2021, 17, 4250-4261. DOI: 10.1021/acs.jctc.1c00471
   
   for DFT-D4:
   * E. Caldeweyher, C. Bannwarth and S. Grimme, J. Chem. Phys., 2017,
     147, 034112. DOI: 10.1063/1.4993215
   * E. Caldeweyher, S. Ehlert, A. Hansen, H. Neugebauer, S. Spicher,
     C. Bannwarth and S. Grimme, J. Chem. Phys., 2019, 150, 154122.
     DOI: 10.1063/1.5090222
   * E. Caldeweyher, J.-M. Mewes, S. Ehlert and S. Grimme, Phys. Chem. Chem. Phys.
     2020, 22, 8499-8512. DOI: 10.1039/D0CP00502A
   
   for sTDA-xTB:
   * S. Grimme and C. Bannwarth, J. Chem. Phys., 2016, 145, 054103.
     DOI: 10.1063/1.4959605
   
   in the mass-spec context:
   * V. Asgeirsson, C. Bauer and S. Grimme, Chem. Sci., 2017, 8, 4879.
     DOI: 10.1039/c7sc00601b
   * J. Koopman and S. Grimme, ACS Omega 2019, 4, 12, 15120-15133.
     DOI: 10.1021/acsomega.9b02011
   
   for metadynamics refer to:
   * S. Grimme, J. Chem. Theory Comput., 2019, 155, 2847-2862
     DOI: 10.1021/acs.jctc.9b00143
   
   for SPH calculations refer to:
   * S. Spicher and S. Grimme, J. Chem. Theory Comput., 2021, 17, 1701-1714
     DOI: 10.1021/acs.jctc.0c01306
   
   with help from (in alphabetical order)
   P. Atkinson, C. Bannwarth, F. Bohle, G. Brandenburg, E. Caldeweyher
   M. Checinski, S. Dohm, S. Ehlert, S. Ehrlich, I. Gerasimov, C. Hölzer
   A. Katbashev, J. Koopman, C. Lavigne, S. Lehtola, F. März, M. Müller,
   F. Musil, H. Neugebauer, J. Pisarek, C. Plett, P. Pracht, F. Pultar,
   J. Seibert, P. Shushkov, S. Spicher, M. Stahn, M. Steiner, T. Strunk,
   J. Stückrath, T. Rose, and J. Unsleber
   
 * started run on 2024/06/05 at 19:58:45.884     

           -------------------------------------------------
          |                Calculation Setup                |
           -------------------------------------------------

          program call               : xtb struc.xyz --opt loose --input .xc1 --gfn2
          hostname                   : n-62-29-9
          coordinate file            : struc.xyz
          omp threads                :                     1

   ID    Z sym.   atoms
    1    6 C      1, 3, 5-7, 10, 11, 14
    2    7 N      2, 4, 9, 13
    3    8 O      8, 12
    4    1 H      15-25
constraining bond 5 22 to    5.1400000 Å, actual value:    2.7765911 Å

           -------------------------------------------------
          |                 G F N 2 - x T B                 |
           -------------------------------------------------

        Reference                      10.1021/acs.jctc.8b01176
      * Hamiltonian:
        H0-scaling (s, p, d)           1.850000    2.230000    2.230000
        zeta-weighting                 0.500000
      * Dispersion:
        s8                             2.700000
        a1                             0.520000
        a2                             5.000000
        s9                             5.000000
      * Repulsion:
        kExp                           1.500000    1.000000
        rExp                           1.000000
      * Coulomb:
        alpha                          2.000000
        third order                    shell-resolved
        anisotropic                    true
        a3                             3.000000
        a5                             4.000000
        cn-shift                       1.200000
        cn-exp                         4.000000
        max-rad                        5.000000


          ...................................................
          :                      SETUP                      :
          :.................................................:
          :  # basis functions                  67          :
          :  # atomic orbitals                  67          :
          :  # shells                           39          :
          :  # electrons                        74          :
          :  max. iterations                   250          :
          :  Hamiltonian                  GFN2-xTB          :
          :  restarted?                      false          :
          :  GBSA solvation                  false          :
          :  PC potential                    false          :
          :  electronic temp.         7500.0000000     K    :
          :  accuracy                    1.0000000          :
          :  -> integral cutoff          0.2500000E+02      :
          :  -> integral neglect         0.1000000E-07      :
          :  -> SCF convergence          0.1000000E-05 Eh   :
          :  -> wf. convergence          0.1000000E-03 e    :
          :  Broyden damping             0.4000000          :
          ...................................................

 iter      E             dE          RMSdq      gap      omega  full diag
   1    -42.5960780 -0.425961E+02  0.440E+00    3.52       0.0  T
   2    -42.7780033 -0.181925E+00  0.248E+00    3.37       1.0  T
   3    -42.7871777 -0.917437E-02  0.149E+00    3.50       1.0  T
   4    -42.7817164  0.546128E-02  0.642E-01    3.42       1.0  T
   5    -42.7911189 -0.940247E-02  0.115E-01    3.49       1.0  T
   6    -42.7912109 -0.920486E-04  0.685E-02    3.46       1.0  T
   7    -42.7912647 -0.537856E-04  0.265E-02    3.48       1.0  T
   8    -42.7912686 -0.385526E-05  0.113E-02    3.47       1.8  T
   9    -42.7912697 -0.111307E-05  0.441E-03    3.47       4.5  T
  10    -42.7912698 -0.733569E-07  0.139E-03    3.47      14.4  T
  11    -42.7912698 -0.243437E-08  0.602E-04    3.47      33.2  T
  12    -42.7912698 -0.222032E-08  0.181E-04    3.47     110.6  T

   *** convergence criteria satisfied after 12 iterations ***

         #    Occupation            Energy/Eh            Energy/eV
      -------------------------------------------------------------
         1        2.0000           -0.9116047             -24.8060
       ...           ...                  ...                  ...
        31        1.9942           -0.6212459             -16.9050
        32        1.9930           -0.6166804             -16.7807
        33        1.9876           -0.6031136             -16.4116
        34        1.9710           -0.5827317             -15.8569
        35        1.9403           -0.5651917             -15.3796
        36        1.9387           -0.5645672             -15.3627
        37        1.9155           -0.5566412             -15.1470 (HOMO)
        38        0.1907           -0.4290919             -11.6762 (LUMO)
        39        0.0640           -0.4015676             -10.9272
        40        0.0206           -0.3740689             -10.1789
        41        0.0006           -0.2879107              -7.8344
        42        0.0000           -0.2065811              -5.6214
       ...           ...                  ...                  ...
        67                          0.5613577              15.2753
      -------------------------------------------------------------
                  HL-Gap            0.1275493 Eh            3.4708 eV
             Fermi-level           -0.4825284 Eh          -13.1303 eV

 SCC (total)                   0 d,  0 h,  0 min,  0.036 sec
 SCC setup                      ...        0 min,  0.000 sec (  0.702%)
 Dispersion                     ...        0 min,  0.000 sec (  0.954%)
 classical contributions        ...        0 min,  0.000 sec (  0.252%)
 integral evaluation            ...        0 min,  0.006 sec ( 15.689%)
 iterations                     ...        0 min,  0.018 sec ( 50.190%)
 molecular gradient             ...        0 min,  0.012 sec ( 31.792%)
 printout                       ...        0 min,  0.000 sec (  0.385%)

         :::::::::::::::::::::::::::::::::::::::::::::::::::::
         ::                     SUMMARY                     ::
         :::::::::::::::::::::::::::::::::::::::::::::::::::::
         :: total energy             -32.286600809884 Eh    ::
         :: gradient norm              6.317052443979 Eh/a0 ::
         :: HOMO-LUMO gap              3.470793873671 eV    ::
         ::.................................................::
         :: SCC energy               -42.791269777655 Eh    ::
         :: -> isotropic ES            0.136760385929 Eh    ::
         :: -> anisotropic ES         -0.005341405309 Eh    ::
         :: -> anisotropic XC          0.011501049227 Eh    ::
         :: -> dispersion             -0.022650340738 Eh    ::
         :: repulsion energy           0.531105277918 Eh    ::
         :: add. restraining           9.973449530845 Eh    ::
         :: total charge               1.000000000010 e     ::
         :::::::::::::::::::::::::::::::::::::::::::::::::::::

      ----------------------------------------------------------- 
     |                   =====================                   |
     |                        A N C O P T                        |
     |                   =====================                   |
     |               Approximate Normal Coordinate               |
     |                Rational Function Optimizer                |
      ----------------------------------------------------------- 

          ...................................................
          :                      SETUP                      :
          :.................................................:
          :   optimization level             loose          :
          :   max. optcycles                   200          :
          :   ANC micro-cycles                  20          :
          :   degrees of freedom                69          :
          :.................................................:
          :   RF solver                   davidson          :
          :   write xtbopt.log                true          :
          :   linear?                        false          :
          :   energy convergence         0.5000000E-04 Eh   :
          :   grad. convergence          0.4000000E-02 Eh/α :
          :   maxmium RF displ.          1.0000000          :
          :   Hlow (freq-cutoff)         0.1000000E-01      :
          :   Hmax (freq-cutoff)         5.0000000          :
          :   S6 in model hess.         20.0000000          :
          ...................................................

generating ANC from model Hessian ...
Using Lindh-Hessian (1995)
 Shifting diagonal of input Hessian by    1.4257946076949211     
 Lowest  eigenvalues of input Hessian
    0.010000    0.252740    0.000000    0.000000    0.000000    0.000000
    0.000000    0.000000    1.429276    1.430744    1.434380    1.436039
    1.437157    1.439273    1.441758    1.446727    1.449005    1.463996
 Highest eigenvalues
    3.496503    3.571952    3.633988    3.824222    3.913543    4.608829


........................................................................
.............................. CYCLE    1 ..............................
........................................................................

 iter      E             dE          RMSdq      gap      omega  full diag
   1    -42.7912698 -0.427913E+02  0.838E-05    3.47       0.0  T
   2    -42.7912698 -0.247127E-10  0.452E-05    3.47     442.9  T
   3    -42.7912698 -0.149214E-11  0.279E-05    3.47     715.8  T
     SCC iter.                  ...        0 min,  0.005 sec
     gradient                   ...        0 min,  0.012 sec
 * total energy  :   -32.2866008 Eh     change       -0.2401919E-09 Eh
   gradient norm :     6.3170530 Eh/α   predicted     0.0000000E+00 (-100.00%)
   displ. norm   :     0.7354056 α      lambda       -0.4615829E+01
   maximum displ.:     0.5882057 α      in ANC's #69, #60, #50, ...

........................................................................
.............................. CYCLE    2 ..............................
........................................................................

 iter      E             dE          RMSdq      gap      omega  full diag
   1    -42.7459683 -0.427460E+02  0.970E-01    3.64       0.0  T
   2    -42.7519336 -0.596535E-02  0.592E-01    3.30       1.0  T
   3    -42.7529974 -0.106371E-02  0.304E-01    3.52       1.0  T
   4    -42.7532772 -0.279895E-03  0.744E-02    3.39       1.0  T
   5    -42.7533947 -0.117405E-03  0.234E-02    3.43       1.0  T
   6    -42.7533997 -0.506959E-05  0.125E-02    3.43       1.6  T
   7    -42.7534006 -0.868511E-06  0.279E-03    3.44       7.2  T
   8    -42.7534008 -0.160132E-06  0.867E-04    3.43      23.1  T
   9    -42.7534008 -0.175081E-08  0.403E-04    3.43      49.7  T
     SCC iter.                  ...        0 min,  0.013 sec
     gradient                   ...        0 min,  0.012 sec
 * total energy  :   -36.2737325 Eh     change       -0.3987132E+01 Eh
   gradient norm :     4.5514069 Eh/α   predicted    -0.3556367E+01 ( -10.80%)
   displ. norm   :     0.7865977 α      lambda       -0.3551045E+01
   maximum displ.:     0.5895420 α      in ANC's #69, #60, #50, ...

........................................................................
.............................. CYCLE    3 ..............................
........................................................................

 iter      E             dE          RMSdq      gap      omega  full diag
   1    -42.6337999 -0.426338E+02  0.944E-01    3.26       0.0  T
   2    -42.6389365 -0.513663E-02  0.671E-01    2.85       1.0  T
   3    -42.6416395 -0.270291E-02  0.328E-01    3.14       1.0  T
   4    -42.6419403 -0.300857E-03  0.123E-01    2.97       1.0  T
   5    -42.6422610 -0.320687E-03  0.295E-02    3.05       1.0  T
   6    -42.6422714 -0.103752E-04  0.163E-02    3.04       1.2  T
   7    -42.6422737 -0.235618E-05  0.473E-03    3.05       4.2  T
   8    -42.6422740 -0.321011E-06  0.993E-04    3.05      20.2  T
   9    -42.6422741 -0.357812E-08  0.492E-04    3.05      40.7  T
     SCC iter.                  ...        0 min,  0.013 sec
     gradient                   ...        0 min,  0.011 sec
 * total energy  :   -39.1453300 Eh     change       -0.2871598E+01 Eh
   gradient norm :     2.8419564 Eh/α   predicted    -0.2874106E+01 (   0.09%)
   displ. norm   :     0.7805083 α      lambda       -0.2170287E+01
   maximum displ.:     0.4198527 α      in ANC's #69, #50, #57, ...

........................................................................
.............................. CYCLE    4 ..............................
........................................................................

 iter      E             dE          RMSdq      gap      omega  full diag
   1    -42.4918444 -0.424918E+02  0.831E-01    2.26       0.0  T
   2    -42.4938923 -0.204790E-02  0.553E-01    2.32       1.0  T
   3    -42.4952982 -0.140581E-02  0.311E-01    2.28       1.0  T
   4    -42.4961263 -0.828186E-03  0.792E-02    2.33       1.0  T
   5    -42.4962558 -0.129487E-03  0.229E-02    2.31       1.0  T
   6    -42.4962613 -0.547807E-05  0.116E-02    2.32       1.7  T
   7    -42.4962619 -0.634128E-06  0.694E-03    2.31       2.9  T
   8    -42.4962631 -0.117512E-05  0.211E-03    2.31       9.5  T
   9    -42.4962632 -0.880698E-07  0.951E-04    2.31      21.0  T
  10    -42.4962632 -0.122696E-07  0.462E-04    2.31      43.2  T
     SCC iter.                  ...        0 min,  0.014 sec
     gradient                   ...        0 min,  0.011 sec
 * total energy  :   -40.8733227 Eh     change       -0.1727993E+01 Eh
   gradient norm :     1.6827614 Eh/α   predicted    -0.1746228E+01 (   1.06%)
   displ. norm   :     0.6696013 α      lambda       -0.1094463E+01
   maximum displ.:     0.3767336 α      in ANC's #69, #1, #50, ...

........................................................................
.............................. CYCLE    5 ..............................
........................................................................

 iter      E             dE          RMSdq      gap      omega  full diag
   1    -42.3762160 -0.423762E+02  0.974E-01    1.02       0.0  T
   2    -42.3654492  0.107668E-01  0.788E-01    1.54       1.0  T
   3    -42.3771689 -0.117197E-01  0.592E-01    0.98       1.0  T
   4    -42.3811672 -0.399825E-02  0.349E-01    1.39       1.0  T
   5    -42.3871090 -0.594180E-02  0.701E-02    1.24       1.0  T
   6    -42.3872039 -0.949886E-04  0.222E-02    1.24       1.0  T
   7    -42.3872077 -0.375179E-05  0.130E-02    1.24       1.5  T
   8    -42.3872090 -0.134040E-05  0.428E-03    1.24       4.7  T
   9    -42.3872095 -0.463850E-06  0.172E-03    1.24      11.6  T
  10    -42.3872095 -0.420803E-07  0.904E-04    1.24      22.1  T
  11    -42.3872096 -0.217036E-07  0.330E-04    1.24      60.7  T
     SCC iter.                  ...        0 min,  0.016 sec
     gradient                   ...        0 min,  0.011 sec
 * total energy  :   -41.6534347 Eh     change       -0.7801120E+00 Eh
   gradient norm :     0.6959362 Eh/α   predicted    -0.7925911E+00 (   1.60%)
   displ. norm   :     0.5373614 α      lambda       -0.3120923E+00
   maximum displ.:     0.3969879 α      in ANC's #1, #69, #40, ...

........................................................................
.............................. CYCLE    6 ..............................
........................................................................

 iter      E             dE          RMSdq      gap      omega  full diag
   1    -42.3078252 -0.423078E+02  0.938E-01    0.29       0.0  T
   2    -42.2179177  0.899075E-01  0.147E+00    1.32       1.0  T
   3    -42.3293422 -0.111424E+00  0.451E-01    0.51       1.0  T
   4    -42.3276163  0.172589E-02  0.347E-01    0.70       1.0  T
   5    -42.3317741 -0.415777E-02  0.124E-01    0.62       1.0  T
   6    -42.3321538 -0.379672E-03  0.385E-02    0.62       1.0  T
   7    -42.3321617 -0.792538E-05  0.247E-02    0.62       1.0  T
   8    -42.3321712 -0.954388E-05  0.119E-02    0.61       1.7  T
   9    -42.3321735 -0.233024E-05  0.422E-03    0.61       4.7  T
  10    -42.3321739 -0.398199E-06  0.183E-03    0.61      11.0  T
  11    -42.3321740 -0.442093E-07  0.938E-04    0.61      21.3  T
  12    -42.3321740 -0.159466E-07  0.181E-04    0.61     110.6  T
     SCC iter.                  ...        0 min,  0.017 sec
     gradient                   ...        0 min,  0.011 sec
 * total energy  :   -41.8388425 Eh     change       -0.1854078E+00 Eh
   gradient norm :     0.1978259 Eh/α   predicted    -0.2011069E+00 (   8.47%)
   displ. norm   :     0.4630924 α      lambda       -0.3555919E-01
   maximum displ.:     0.4523179 α      in ANC's #1, #50, #40, ...

........................................................................
.............................. CYCLE    7 ..............................
........................................................................

 iter      E             dE          RMSdq      gap      omega  full diag
   1    -42.3075063 -0.423075E+02  0.522E-01    0.22       0.0  T
   2    -42.2530260  0.544803E-01  0.115E+00    0.98       1.0  T
   3    -42.3170600 -0.640340E-01  0.350E-01    0.51       1.0  T
   4    -42.3153220  0.173804E-02  0.302E-01    0.55       1.0  T
   5    -42.3185164 -0.319439E-02  0.946E-02    0.43       1.0  T
   6    -42.3187399 -0.223485E-03  0.366E-02    0.44       1.0  T
   7    -42.3187546 -0.147617E-04  0.277E-02    0.43       1.0  T
   8    -42.3187663 -0.116677E-04  0.113E-02    0.43       1.8  T
   9    -42.3187683 -0.206507E-05  0.538E-03    0.43       3.7  T
  10    -42.3187691 -0.710009E-06  0.233E-03    0.43       8.6  T
  11    -42.3187692 -0.135125E-06  0.107E-03    0.43      18.7  T
  12    -42.3187692 -0.167332E-07  0.245E-04    0.43      81.7  T
  13    -42.3187692 -0.123630E-08  0.731E-05    0.43     273.8  T
     SCC iter.                  ...        0 min,  0.018 sec
     gradient                   ...        0 min,  0.011 sec
 * total energy  :   -41.8609434 Eh     change       -0.2210088E-01 Eh
   gradient norm :     0.1885212 Eh/α   predicted    -0.2161386E-01 (  -2.20%)
   displ. norm   :     0.3960393 α      lambda       -0.4721382E-01
   maximum displ.:     0.1735735 α      in ANC's #40, #1, #48, ...

........................................................................
.............................. CYCLE    8 ..............................
........................................................................

 iter      E             dE          RMSdq      gap      omega  full diag
   1    -42.3540144 -0.423540E+02  0.616E-01    0.39       0.0  T
   2    -42.3447577  0.925671E-02  0.666E-01    0.56       1.0  T
   3    -42.3565096 -0.117520E-01  0.366E-01    0.30       1.0  T
   4    -42.3570445 -0.534901E-03  0.280E-01    0.56       1.0  T
   5    -42.3595428 -0.249827E-02  0.148E-01    0.37       1.0  T
   6    -42.3603810 -0.838161E-03  0.257E-02    0.42       1.0  T
   7    -42.3603833 -0.238705E-05  0.223E-02    0.43       1.0  T
   8    -42.3603901 -0.671011E-05  0.931E-03    0.43       2.1  T
   9    -42.3603928 -0.274280E-05  0.292E-03    0.43       6.8  T
  10    -42.3603929 -0.129644E-06  0.122E-03    0.43      16.4  T
  11    -42.3603930 -0.222759E-07  0.618E-04    0.43      32.4  T
  12    -42.3603930 -0.606099E-08  0.205E-04    0.43      97.5  T
     SCC iter.                  ...        0 min,  0.017 sec
     gradient                   ...        0 min,  0.011 sec
 * total energy  :   -41.8957770 Eh     change       -0.3483362E-01 Eh
   gradient norm :     0.2785753 Eh/α   predicted    -0.2731000E-01 ( -21.60%)
   displ. norm   :     0.4659331 α      lambda       -0.6565008E-01
   maximum displ.:     0.2082658 α      in ANC's #40, #50, #48, ...

........................................................................
.............................. CYCLE    9 ..............................
........................................................................

 iter      E             dE          RMSdq      gap      omega  full diag
   1    -42.3981820 -0.423982E+02  0.924E-01    0.38       0.0  T
   2    -42.3734534  0.247286E-01  0.111E+00    0.57       1.0  T
   3    -42.4116111 -0.381577E-01  0.459E-01    0.22       1.0  T
   4    -42.4107082  0.902916E-03  0.404E-01    0.58       1.0  T
   5    -42.4155055 -0.479732E-02  0.195E-01    0.29       1.0  T
   6    -42.4167960 -0.129047E-02  0.236E-02    0.38       1.0  T
   7    -42.4167982 -0.220405E-05  0.168E-02    0.38       1.2  T
   8    -42.4168004 -0.228286E-05  0.776E-03    0.38       2.6  T
   9    -42.4168019 -0.143303E-05  0.422E-03    0.38       4.7  T
  10    -42.4168023 -0.458598E-06  0.128E-03    0.38      15.6  T
  11    -42.4168023 -0.103983E-07  0.889E-04    0.38      22.5  T
  12    -42.4168024 -0.124523E-07  0.215E-04    0.38      92.9  T
     SCC iter.                  ...        0 min,  0.017 sec
     gradient                   ...        0 min,  0.011 sec
 * total energy  :   -41.9446235 Eh     change       -0.4884650E-01 Eh
   gradient norm :     0.2567981 Eh/α   predicted    -0.3995125E-01 ( -18.21%)
   displ. norm   :     0.4149223 α      lambda       -0.4665511E-01
   maximum displ.:     0.1919568 α      in ANC's #1, #40, #50, ...

........................................................................
.............................. CYCLE   10 ..............................
........................................................................

 iter      E             dE          RMSdq      gap      omega  full diag
   1    -42.4632805 -0.424633E+02  0.781E-01    0.63       0.0  T
   2    -42.4591511  0.412940E-02  0.723E-01    0.30       1.0  T
   3    -42.4710815 -0.119304E-01  0.346E-01    0.56       1.0  T
   4    -42.4710062  0.752575E-04  0.214E-01    0.36       1.0  T
   5    -42.4709640  0.422372E-04  0.179E-01    0.54       1.0  T
   6    -42.4725135 -0.154948E-02  0.235E-02    0.45       1.0  T
   7    -42.4725204 -0.691275E-05  0.136E-02    0.46       1.5  T
   8    -42.4725226 -0.223833E-05  0.500E-03    0.46       4.0  T
   9    -42.4725230 -0.387509E-06  0.159E-03    0.46      12.6  T
  10    -42.4725231 -0.469374E-07  0.879E-04    0.46      22.8  T
  11    -42.4725231 -0.124581E-07  0.336E-04    0.46      59.6  T
     SCC iter.                  ...        0 min,  0.016 sec
     gradient                   ...        0 min,  0.011 sec
 * total energy  :   -41.9764101 Eh     change       -0.3178663E-01 Eh
   gradient norm :     0.2369713 Eh/α   predicted    -0.2734387E-01 ( -13.98%)
   displ. norm   :     0.2875762 α      lambda       -0.3235139E-01
   maximum displ.:     0.1645464 α      in ANC's #1, #69, #40, ...

........................................................................
.............................. CYCLE   11 ..............................
........................................................................

 iter      E             dE          RMSdq      gap      omega  full diag
   1    -42.5077475 -0.425077E+02  0.504E-01    0.64       0.0  T
   2    -42.5031694  0.457811E-02  0.466E-01    0.36       1.0  T
   3    -42.5084608 -0.529143E-02  0.291E-01    0.65       1.0  T
   4    -42.5101981 -0.173724E-02  0.147E-01    0.51       1.0  T
   5    -42.5107829 -0.584807E-03  0.507E-02    0.54       1.0  T
   6    -42.5108502 -0.673002E-04  0.159E-02    0.54       1.3  T
   7    -42.5108534 -0.323562E-05  0.870E-03    0.54       2.3  T
   8    -42.5108542 -0.814692E-06  0.199E-03    0.54      10.0  T
   9    -42.5108543 -0.643508E-07  0.728E-04    0.54      27.5  T
  10    -42.5108543 -0.579285E-08  0.294E-04    0.54      68.0  T
     SCC iter.                  ...        0 min,  0.014 sec
     gradient                   ...        0 min,  0.011 sec
 * total energy  :   -42.0033911 Eh     change       -0.2698095E-01 Eh
   gradient norm :     0.2262145 Eh/α   predicted    -0.1751345E-01 ( -35.09%)
   displ. norm   :     0.5567136 α      lambda       -0.6129196E-01
   maximum displ.:     0.3327739 α      in ANC's #1, #47, #40, ...

........................................................................
.............................. CYCLE   12 ..............................
........................................................................

 iter      E             dE          RMSdq      gap      omega  full diag
   1    -42.5569928 -0.425570E+02  0.843E-01    0.51       0.0  T
   2    -42.5502509  0.674196E-02  0.679E-01    0.41       1.0  T
   3    -42.5574740 -0.722310E-02  0.477E-01    0.53       1.0  T
   4    -42.5617103 -0.423631E-02  0.239E-01    0.46       1.0  T
   5    -42.5633887 -0.167842E-02  0.459E-02    0.48       1.0  T
   6    -42.5634298 -0.410547E-04  0.170E-02    0.48       1.2  T
   7    -42.5634300 -0.267324E-06  0.115E-02    0.48       1.7  T
   8    -42.5634315 -0.141485E-05  0.542E-03    0.48       3.7  T
   9    -42.5634321 -0.654327E-06  0.202E-03    0.48       9.9  T
  10    -42.5634322 -0.756211E-07  0.840E-04    0.48      23.8  T
  11    -42.5634322 -0.631504E-08  0.271E-04    0.48      73.8  T
     SCC iter.                  ...        0 min,  0.016 sec
     gradient                   ...        0 min,  0.011 sec
 * total energy  :   -42.0549730 Eh     change       -0.5158193E-01 Eh
   gradient norm :     0.2061937 Eh/α   predicted    -0.4014458E-01 ( -22.17%)
   displ. norm   :     0.7046497 α      lambda       -0.6235337E-01
   maximum displ.:     0.4863873 α      in ANC's #1, #55, #58, ...

........................................................................
.............................. CYCLE   13 ..............................
........................................................................

 iter      E             dE          RMSdq      gap      omega  full diag
   1    -42.5848839 -0.425849E+02  0.737E-01    0.31       0.0  T
   2    -42.5800087  0.487514E-02  0.659E-01    0.45       1.0  T
   3    -42.5860725 -0.606376E-02  0.412E-01    0.31       1.0  T
   4    -42.5878838 -0.181131E-02  0.205E-01    0.35       1.0  T
   5    -42.5888580 -0.974269E-03  0.416E-02    0.32       1.0  T
   6    -42.5888915 -0.334074E-04  0.201E-02    0.32       1.0  T
   7    -42.5888928 -0.135120E-05  0.124E-02    0.32       1.6  T
   8    -42.5888959 -0.306501E-05  0.587E-03    0.32       3.4  T
   9    -42.5888970 -0.109660E-05  0.142E-03    0.32      14.1  T
  10    -42.5888970 -0.255362E-07  0.622E-04    0.32      32.2  T
  11    -42.5888970 -0.259783E-08  0.174E-04    0.32     114.8  T
     SCC iter.                  ...        0 min,  0.016 sec
     gradient                   ...        0 min,  0.011 sec
 * total energy  :   -42.0944214 Eh     change       -0.3944839E-01 Eh
   gradient norm :     0.1389675 Eh/α   predicted    -0.4665711E-01 (  18.27%)
   displ. norm   :     0.2162229 α      lambda       -0.1135963E-01
   maximum displ.:     0.1837824 α      in ANC's #1, #2, #55, ...

........................................................................
.............................. CYCLE   14 ..............................
........................................................................

 iter      E             dE          RMSdq      gap      omega  full diag
   1    -42.5944932 -0.425945E+02  0.176E-01    0.29       0.0  T
   2    -42.5944521  0.410270E-04  0.145E-01    0.31       1.0  T
   3    -42.5945926 -0.140453E-03  0.995E-02    0.29       1.0  T
   4    -42.5947406 -0.147986E-03  0.527E-02    0.30       1.0  T
   5    -42.5947873 -0.467517E-04  0.135E-02    0.29       1.5  T
   6    -42.5947916 -0.422862E-05  0.528E-03    0.29       3.8  T
   7    -42.5947919 -0.302553E-06  0.368E-03    0.29       5.4  T
   8    -42.5947921 -0.267798E-06  0.139E-03    0.29      14.4  T
   9    -42.5947922 -0.493805E-07  0.392E-04    0.29      51.0  T
  10    -42.5947922 -0.353051E-08  0.178E-04    0.29     112.2  T
     SCC iter.                  ...        0 min,  0.014 sec
     gradient                   ...        0 min,  0.011 sec
 * total energy  :   -42.1015398 Eh     change       -0.7118391E-02 Eh
   gradient norm :     0.1003680 Eh/α   predicted    -0.5945850E-02 ( -16.47%)
   displ. norm   :     0.1468295 α      lambda       -0.9107253E-02
   maximum displ.:     0.0863738 α      in ANC's #2, #1, #33, ...

........................................................................
.............................. CYCLE   15 ..............................
........................................................................

 iter      E             dE          RMSdq      gap      omega  full diag
   1    -42.5995468 -0.425995E+02  0.204E-01    0.28       0.0  T
   2    -42.6000262 -0.479426E-03  0.133E-01    0.29       1.0  T
   3    -42.6001876 -0.161466E-03  0.692E-02    0.28       1.0  T
   4    -42.6001904 -0.272632E-05  0.459E-02    0.29       1.0  T
   5    -42.6002153 -0.249012E-04  0.143E-02    0.28       1.4  T
   6    -42.6002203 -0.503031E-05  0.652E-03    0.28       3.1  T
   7    -42.6002212 -0.871316E-06  0.218E-03    0.28       9.2  T
   8    -42.6002212 -0.290880E-07  0.100E-03    0.28      20.0  T
   9    -42.6002212 -0.121760E-07  0.327E-04    0.28      61.2  T
  10    -42.6002212  0.578773E-09  0.257E-04    0.28      77.7  T
     SCC iter.                  ...        0 min,  0.014 sec
     gradient                   ...        0 min,  0.011 sec
 * total energy  :   -42.1083412 Eh     change       -0.6801427E-02 Eh
   gradient norm :     0.0791086 Eh/α   predicted    -0.4651815E-02 ( -31.61%)
   displ. norm   :     0.1764227 α      lambda       -0.9220460E-02
   maximum displ.:     0.0743015 α      in ANC's #2, #33, #48, ...

........................................................................
.............................. CYCLE   16 ..............................
........................................................................

 iter      E             dE          RMSdq      gap      omega  full diag
   1    -42.6059353 -0.426059E+02  0.208E-01    0.26       0.0  T
   2    -42.6061057 -0.170356E-03  0.188E-01    0.24       1.0  T
   3    -42.6066978 -0.592154E-03  0.104E-01    0.26       1.0  T
   4    -42.6067897 -0.918981E-04  0.680E-02    0.25       1.0  T
   5    -42.6068478 -0.580292E-04  0.302E-02    0.25       1.0  T
   6    -42.6068642 -0.163996E-04  0.832E-03    0.25       2.4  T
   7    -42.6068661 -0.188973E-05  0.377E-03    0.25       5.3  T
   8    -42.6068663 -0.276335E-06  0.198E-03    0.25      10.1  T
   9    -42.6068664 -0.690727E-07  0.635E-04    0.25      31.5  T
  10    -42.6068664 -0.633484E-08  0.175E-04    0.25     114.6  T
     SCC iter.                  ...        0 min,  0.014 sec
     gradient                   ...        0 min,  0.011 sec
 * total energy  :   -42.1145434 Eh     change       -0.6202219E-02 Eh
   gradient norm :     0.0721298 Eh/α   predicted    -0.4753754E-02 ( -23.35%)
   displ. norm   :     0.1420708 α      lambda       -0.5584452E-02
   maximum displ.:     0.0609479 α      in ANC's #33, #36, #31, ...

........................................................................
.............................. CYCLE   17 ..............................
........................................................................

 iter      E             dE          RMSdq      gap      omega  full diag
   1    -42.6168509 -0.426169E+02  0.159E-01    0.25       0.0  T
   2    -42.6168110  0.398511E-04  0.139E-01    0.23       1.0  T
   3    -42.6170261 -0.215021E-03  0.852E-02    0.26       1.0  T
   4    -42.6171117 -0.856832E-04  0.446E-02    0.23       1.0  T
   5    -42.6171403 -0.285519E-04  0.145E-02    0.24       1.4  T
   6    -42.6171449 -0.457537E-05  0.436E-03    0.24       4.6  T
   7    -42.6171451 -0.222458E-06  0.219E-03    0.24       9.1  T
   8    -42.6171451  0.197364E-07  0.150E-03    0.24      13.3  T
   9    -42.6171451 -0.776329E-07  0.380E-04    0.24      52.7  T
  10    -42.6171451 -0.520868E-08  0.126E-04    0.24     159.1  T
     SCC iter.                  ...        0 min,  0.014 sec
     gradient                   ...        0 min,  0.011 sec
 * total energy  :   -42.1187458 Eh     change       -0.4202331E-02 Eh
   gradient norm :     0.0722017 Eh/α   predicted    -0.2848688E-02 ( -32.21%)
   displ. norm   :     0.1882158 α      lambda       -0.6388366E-02
   maximum displ.:     0.0750998 α      in ANC's #33, #36, #18, ...

........................................................................
.............................. CYCLE   18 ..............................
........................................................................

 iter      E             dE          RMSdq      gap      omega  full diag
   1    -42.6311038 -0.426311E+02  0.177E-01    0.24       0.0  T
   2    -42.6311177 -0.138801E-04  0.136E-01    0.21       1.0  T
   3    -42.6311075  0.101743E-04  0.102E-01    0.25       1.0  T
   4    -42.6312911 -0.183623E-03  0.487E-02    0.22       1.0  T
   5    -42.6313256 -0.345119E-04  0.122E-02    0.22       1.6  T
   6    -42.6313291 -0.345640E-05  0.529E-03    0.22       3.8  T
   7    -42.6313294 -0.357801E-06  0.296E-03    0.22       6.8  T
   8    -42.6313296 -0.194071E-06  0.676E-04    0.22      29.6  T
   9    -42.6313297 -0.804555E-08  0.234E-04    0.22      85.5  T
     SCC iter.                  ...        0 min,  0.013 sec
     gradient                   ...        0 min,  0.012 sec
 * total energy  :   -42.1230665 Eh     change       -0.4320718E-02 Eh
   gradient norm :     0.0673259 Eh/α   predicted    -0.3307422E-02 ( -23.45%)
   displ. norm   :     0.1363744 α      lambda       -0.3661399E-02
   maximum displ.:     0.0564724 α      in ANC's #1, #33, #18, ...

........................................................................
.............................. CYCLE   19 ..............................
........................................................................

 iter      E             dE          RMSdq      gap      omega  full diag
   1    -42.6418224 -0.426418E+02  0.132E-01    0.23       0.0  T
   2    -42.6417762  0.462445E-04  0.986E-02    0.21       1.0  T
   3    -42.6418220 -0.458388E-04  0.731E-02    0.24       1.0  T
   4    -42.6419445 -0.122480E-03  0.294E-02    0.22       1.0  T
   5    -42.6419646 -0.200610E-04  0.117E-02    0.23       1.7  T
   6    -42.6419679 -0.331254E-05  0.530E-03    0.22       3.8  T
   7    -42.6419683 -0.470771E-06  0.183E-03    0.23      11.0  T
   8    -42.6419683 -0.492296E-08  0.989E-04    0.23      20.2  T
   9    -42.6419684 -0.159204E-07  0.137E-04    0.23     146.0  T
     SCC iter.                  ...        0 min,  0.023 sec
     gradient                   ...        0 min,  0.011 sec
 * total energy  :   -42.1256121 Eh     change       -0.2545655E-02 Eh
   gradient norm :     0.0508973 Eh/α   predicted    -0.1864816E-02 ( -26.75%)
   displ. norm   :     0.1245752 α      lambda       -0.2692075E-02
   maximum displ.:     0.0827032 α      in ANC's #1, #18, #33, ...

........................................................................
.............................. CYCLE   20 ..............................
........................................................................

 iter      E             dE          RMSdq      gap      omega  full diag
   1    -42.6495233 -0.426495E+02  0.134E-01    0.21       0.0  T
   2    -42.6494357  0.875920E-04  0.119E-01    0.23       1.0  T
   3    -42.6497440 -0.308301E-03  0.674E-02    0.21       1.0  T
   4    -42.6498063 -0.623495E-04  0.275E-02    0.22       1.0  T
   5    -42.6498029  0.342981E-05  0.190E-02    0.21       1.1  T
   6    -42.6498148 -0.118744E-04  0.583E-03    0.22       3.4  T
   7    -42.6498158 -0.106068E-05  0.176E-03    0.22      11.4  T
   8    -42.6498158 -0.242700E-07  0.839E-04    0.22      23.8  T
   9    -42.6498159 -0.618603E-08  0.192E-04    0.22     104.2  T
     SCC iter.                  ...        0 min,  0.013 sec
     gradient                   ...        0 min,  0.011 sec
 * total energy  :   -42.1273674 Eh     change       -0.1755238E-02 Eh
   gradient norm :     0.0374492 Eh/α   predicted    -0.1366959E-02 ( -22.12%)
   displ. norm   :     0.0678217 α      lambda       -0.1406509E-02
   maximum displ.:     0.0265611 α      in ANC's #1, #2, #18, ...
 * RMSD in coord.:     0.8767672 α      energy gain  -0.9840767E+01 Eh

generating ANC from model Hessian ...
Using Lindh-Hessian (1995)
 Shifting diagonal of input Hessian by    1.0344742633640300E-002
 Lowest  eigenvalues of input Hessian
    0.010000    0.010113    0.000000    0.000000    0.000000    0.000000
    0.000000    0.000000    0.013231    0.014377    0.016982    0.019300
    0.020992    0.023626    0.024479    0.026338    0.028724    0.034951
 Highest eigenvalues
    2.104502    2.148977    2.187866    2.419535    2.499553    3.147704


........................................................................
.............................. CYCLE   21 ..............................
........................................................................

 iter      E             dE          RMSdq      gap      omega  full diag
   1    -42.6525375 -0.426525E+02  0.919E-02    0.22       0.0  T
   2    -42.6525059  0.315602E-04  0.748E-02    0.23       1.0  T
   3    -42.6525802 -0.742657E-04  0.505E-02    0.21       1.0  T
   4    -42.6526239 -0.437185E-04  0.190E-02    0.22       1.1  T
   5    -42.6526217  0.224458E-05  0.131E-02    0.22       1.5  T
   6    -42.6526284 -0.667614E-05  0.216E-03    0.22       9.2  T
   7    -42.6526284 -0.960470E-07  0.107E-03    0.22      18.8  T
   8    -42.6526285 -0.478792E-08  0.457E-04    0.22      43.8  T
   9    -42.6526285 -0.394939E-08  0.114E-04    0.22     175.4  T
     SCC iter.                  ...        0 min,  0.013 sec
     gradient                   ...        0 min,  0.011 sec
 * total energy  :   -42.1283513 Eh     change       -0.9839764E-03 Eh
   gradient norm :     0.0315669 Eh/α   predicted     0.0000000E+00 (-100.00%)
   displ. norm   :     0.3004457 α      lambda       -0.4268527E-02
   maximum displ.:     0.1743822 α      in ANC's #10, #6, #8, ...

........................................................................
.............................. CYCLE   22 ..............................
........................................................................

 iter      E             dE          RMSdq      gap      omega  full diag
   1    -42.6477565 -0.426478E+02  0.232E-01    0.22       0.0  T
   2    -42.6477535  0.294831E-05  0.136E-01    0.22       1.0  T
   3    -42.6472348  0.518691E-03  0.137E-01    0.21       1.0  T
   4    -42.6478154 -0.580534E-03  0.268E-02    0.22       1.0  T
   5    -42.6478373 -0.219530E-04  0.987E-03    0.22       2.0  T
   6    -42.6478389 -0.161244E-05  0.384E-03    0.22       5.2  T
   7    -42.6478391 -0.209477E-06  0.336E-03    0.22       6.0  T
   8    -42.6478393 -0.189873E-06  0.631E-04    0.22      31.7  T
   9    -42.6478393 -0.621947E-08  0.166E-04    0.22     120.7  T
     SCC iter.                  ...        0 min,  0.013 sec
     gradient                   ...        0 min,  0.011 sec
 * total energy  :   -42.1316993 Eh     change       -0.3348009E-02 Eh
   gradient norm :     0.0159326 Eh/α   predicted    -0.2327430E-02 ( -30.48%)
   displ. norm   :     0.4564780 α      lambda       -0.3643501E-02
   maximum displ.:     0.2682878 α      in ANC's #10, #6, #8, ...

........................................................................
.............................. CYCLE   23 ..............................
........................................................................

 iter      E             dE          RMSdq      gap      omega  full diag
   1    -42.6416034 -0.426416E+02  0.349E-01    0.22       0.0  T
   2    -42.6415166  0.867828E-04  0.200E-01    0.21       1.0  T
   3    -42.6400618  0.145483E-02  0.250E-01    0.23       1.0  T
   4    -42.6417125 -0.165074E-02  0.277E-02    0.21       1.0  T
   5    -42.6417323 -0.198204E-04  0.167E-02    0.22       1.2  T
   6    -42.6417387 -0.638113E-05  0.593E-03    0.22       3.4  T
   7    -42.6417392 -0.494543E-06  0.398E-03    0.22       5.0  T
   8    -42.6417394 -0.221560E-06  0.719E-04    0.22      27.8  T
   9    -42.6417394 -0.847877E-08  0.214E-04    0.22      93.7  T
     SCC iter.                  ...        0 min,  0.013 sec
     gradient                   ...        0 min,  0.011 sec
 * total energy  :   -42.1337880 Eh     change       -0.2088616E-02 Eh
   gradient norm :     0.0197184 Eh/α   predicted    -0.2201353E-02 (   5.40%)
   displ. norm   :     0.1364163 α      lambda       -0.7937178E-03
   maximum displ.:     0.0848459 α      in ANC's #6, #10, #5, ...

........................................................................
.............................. CYCLE   24 ..............................
........................................................................

 iter      E             dE          RMSdq      gap      omega  full diag
   1    -42.6455158 -0.426455E+02  0.760E-02    0.21       0.0  T
   2    -42.6455163 -0.487622E-06  0.446E-02    0.22       1.0  T
   3    -42.6454650  0.513481E-04  0.371E-02    0.21       1.0  T
   4    -42.6455193 -0.543331E-04  0.659E-03    0.22       3.0  T
   5    -42.6455206 -0.133106E-05  0.268E-03    0.21       7.5  T
   6    -42.6455208 -0.128993E-06  0.105E-03    0.21      19.1  T
   7    -42.6455208 -0.834599E-08  0.815E-04    0.21      24.5  T
   8    -42.6455208 -0.892688E-08  0.185E-04    0.21     108.1  T
     SCC iter.                  ...        0 min,  0.011 sec
     gradient                   ...        0 min,  0.011 sec
 * total energy  :   -42.1344068 Eh     change       -0.6188350E-03 Eh
   gradient norm :     0.0120826 Eh/α   predicted    -0.4043146E-03 ( -34.67%)
   displ. norm   :     0.1985987 α      lambda       -0.7695141E-03
   maximum displ.:     0.1070324 α      in ANC's #6, #10, #5, ...

........................................................................
.............................. CYCLE   25 ..............................
........................................................................

 iter      E             dE          RMSdq      gap      omega  full diag
   1    -42.6510242 -0.426510E+02  0.133E-01    0.22       0.0  T
   2    -42.6510204  0.376685E-05  0.780E-02    0.21       1.0  T
   3    -42.6508554  0.165046E-03  0.799E-02    0.23       1.0  T
   4    -42.6510315 -0.176117E-03  0.838E-03    0.21       2.4  T
   5    -42.6510327 -0.117120E-05  0.389E-03    0.22       5.1  T
   6    -42.6510332 -0.493952E-06  0.158E-03    0.21      12.7  T
   7    -42.6510332 -0.454894E-07  0.667E-04    0.21      30.0  T
   8    -42.6510332 -0.369785E-08  0.182E-04    0.21     109.7  T
     SCC iter.                  ...        0 min,  0.011 sec
     gradient                   ...        0 min,  0.011 sec
 * total energy  :   -42.1348969 Eh     change       -0.4901125E-03 Eh
   gradient norm :     0.0053103 Eh/α   predicted    -0.3999476E-03 ( -18.40%)
   displ. norm   :     0.1269926 α      lambda       -0.2145213E-03
   maximum displ.:     0.0643883 α      in ANC's #5, #8, #9, ...

........................................................................
.............................. CYCLE   26 ..............................
........................................................................

 iter      E             dE          RMSdq      gap      omega  full diag
   1    -42.6523018 -0.426523E+02  0.988E-02    0.22       0.0  T
   2    -42.6522960  0.580048E-05  0.581E-02    0.21       1.0  T
   3    -42.6521841  0.111900E-03  0.716E-02    0.23       1.0  T
   4    -42.6523055 -0.121382E-03  0.434E-03    0.21       4.6  T
   5    -42.6523060 -0.445056E-06  0.233E-03    0.22       8.6  T
   6    -42.6523062 -0.205180E-06  0.571E-04    0.22      35.0  T
   7    -42.6523062 -0.298496E-08  0.287E-04    0.22      69.7  T
     SCC iter.                  ...        0 min,  0.010 sec
     gradient                   ...        0 min,  0.011 sec
 * total energy  :   -42.1350567 Eh     change       -0.1597727E-03 Eh
   gradient norm :     0.0049846 Eh/α   predicted    -0.1089910E-03 ( -31.78%)
   displ. norm   :     0.1514009 α      lambda       -0.2308010E-03
   maximum displ.:     0.0865012 α      in ANC's #5, #9, #8, ...

........................................................................
.............................. CYCLE   27 ..............................
........................................................................

 iter      E             dE          RMSdq      gap      omega  full diag
   1    -42.6538928 -0.426539E+02  0.112E-01    0.22       0.0  T
   2    -42.6538903  0.254751E-05  0.660E-02    0.21       1.0  T
   3    -42.6537830  0.107312E-03  0.672E-02    0.24       1.0  T
   4    -42.6538961 -0.113159E-03  0.361E-03    0.22       5.5  T
   5    -42.6538964 -0.239450E-06  0.152E-03    0.22      13.1  T
   6    -42.6538964 -0.286355E-07  0.910E-04    0.22      22.0  T
   7    -42.6538964 -0.949374E-08  0.454E-04    0.22      44.0  T
     SCC iter.                  ...        0 min,  0.010 sec
     gradient                   ...        0 min,  0.011 sec
 * total energy  :   -42.1352093 Eh     change       -0.1525952E-03 Eh
   gradient norm :     0.0038363 Eh/α   predicted    -0.1180509E-03 ( -22.64%)
   displ. norm   :     0.1363338 α      lambda       -0.1150707E-03
   maximum displ.:     0.0803111 α      in ANC's #5, #9, #8, ...

........................................................................
.............................. CYCLE   28 ..............................
........................................................................

 iter      E             dE          RMSdq      gap      omega  full diag
   1    -42.6522129 -0.426522E+02  0.987E-02    0.22       0.0  T
   2    -42.6522107  0.224050E-05  0.576E-02    0.22       1.0  T
   3    -42.6521330  0.777021E-04  0.589E-02    0.23       1.0  T
   4    -42.6522151 -0.820950E-04  0.335E-03    0.22       6.0  T
   5    -42.6522153 -0.240897E-06  0.200E-03    0.22      10.0  T
   6    -42.6522155 -0.116228E-06  0.896E-04    0.22      22.3  T
   7    -42.6522155 -0.126336E-07  0.383E-04    0.22      52.3  T
     SCC iter.                  ...        0 min,  0.010 sec
     gradient                   ...        0 min,  0.011 sec
 * total energy  :   -42.1352706 Eh     change       -0.6135517E-04 Eh
   gradient norm :     0.0055480 Eh/α   predicted    -0.5860769E-04 (  -4.48%)
   displ. norm   :     0.0761551 α      lambda       -0.8701394E-04
   maximum displ.:     0.0317931 α      in ANC's #1, #5, #6, ...

........................................................................
.............................. CYCLE   29 ..............................
........................................................................

 iter      E             dE          RMSdq      gap      omega  full diag
   1    -42.6525616 -0.426526E+02  0.369E-02    0.22       0.0  T
   2    -42.6525600  0.159240E-05  0.228E-02    0.22       1.0  T
   3    -42.6525450  0.150759E-04  0.282E-02    0.21       1.0  T
   4    -42.6525631 -0.181347E-04  0.318E-03    0.22       6.3  T
   5    -42.6525633 -0.176561E-06  0.228E-03    0.22       8.8  T
   6    -42.6525634 -0.123534E-06  0.959E-04    0.22      20.8  T
   7    -42.6525634 -0.122062E-07  0.373E-04    0.22      53.7  T
     SCC iter.                  ...        0 min,  0.010 sec
     gradient                   ...        0 min,  0.011 sec
 * total energy  :   -42.1353095 Eh     change       -0.3881940E-04 Eh
   gradient norm :     0.0033601 Eh/α   predicted    -0.4378028E-04 (  12.78%)
   displ. norm   :     0.0339271 α      lambda       -0.2583454E-04
   maximum displ.:     0.0191959 α      in ANC's #5, #1, #6, ...

   *** GEOMETRY OPTIMIZATION CONVERGED AFTER 29 ITERATIONS ***

------------------------------------------------------------------------
 total energy gain   :        -9.8487086 Eh    -6180.1580 kcal/mol
 total RMSD          :         0.9313464 a0        0.4928 Å
 total power (kW/mol):      -891.6476209 (step)********** (real)
------------------------------------------------------------------------

 ANCopt (total)                0 d,  0 h,  0 min,  0.896 sec
 optimizer setup                ...        0 min,  0.000 sec (  0.040%)
 model hessian                  ...        0 min,  0.013 sec (  1.413%)
 ANC generation                 ...        0 min,  0.002 sec (  0.215%)
 coordinate transformation      ...        0 min,  0.000 sec (  0.032%)
 single point calculation       ...        0 min,  0.874 sec ( 97.547%)
 optimization log               ...        0 min,  0.002 sec (  0.273%)
 hessian update                 ...        0 min,  0.000 sec (  0.040%)
 rational function              ...        0 min,  0.003 sec (  0.293%)

================
 final structure:
================
25
 xtb: 6.6.1 (8d0f1dd)
C            3.25304791321349        1.23989771252824        0.02179328271206
N            2.31839420532230        0.15143111481397       -0.05104015613083
C            2.60817411151868       -1.15307371005991       -0.09494595389931
N            1.46456980622767       -1.87867146605193       -0.13168621348166
C            0.40931464881284       -1.00234779265612       -0.10317527199347
C            0.94806426274555        0.27981919386649       -0.05219209232957
C            0.12381988960081        1.46008036693179       -0.03172877880772
O            0.51858197360981        2.60942459181827       -0.02236003080628
N           -1.23985188363951        1.13151944931821       -0.02522289255129
C           -2.18786693972237        2.23571981152072        0.01982281053514
C           -1.81152687580747       -0.11426231772179       -0.05592429242970
O           -2.99896250679247       -0.29706497213226       -0.03572641814120
N           -0.92386091133947       -1.25869076180383       -0.12134724070400
C           -1.48163411680768       -2.47907287961920       -0.19751056831856
H            3.74810379643922        1.25206595023927        0.99502243532811
H            4.01146667577113        1.14293576087986       -0.75452588335838
H            2.71041670822013        2.17616934643483       -0.10926668322246
H            3.59477569013386       -1.57119051362922       -0.10733087580951
H           -1.62203834501696        3.16503920727247        0.02502887497664
H           -2.84502568758509        2.19832430677285       -0.84909623649111
H           -2.80183850640021        2.16206556944663        0.91779788370553
H           -2.62806875171984       -4.85548895839169        1.42861036924419
H           -0.87635291250913       -3.35815544338356       -0.26070732458752
H           -2.55365181684382       -2.53196255168015       -0.21347919963238
H            1.42238108666870       -2.88627247311370       -0.15963792590669

 Bond Distances (Angstroems)
 ---------------------------
C1-N2=1.4365         C1-H15=1.0920        C1-H16=1.0896        C1-H17=1.0901        N2-C1=1.4365         N2-C3=1.3370         
N2-C6=1.3763         C3-N2=1.3370         C3-N4=1.3549         C3-H18=1.0716        N4-C3=1.3549         N4-C5=1.3720         
N4-H25=1.0089        C5-N4=1.3720         C5-C6=1.3917         C5-N13=1.3577        C6-N2=1.3763         C6-C5=1.3917         
C6-C7=1.4397         C7-C6=1.4397         C7-O8=1.2153         C7-N9=1.4027         O8-C7=1.2153         N9-C7=1.4027         
N9-C10=1.4560        N9-C11=1.3710        C10-N9=1.4560        C10-H19=1.0880       C10-H20=1.0901       C10-H21=1.0903       
C11-N9=1.3710        C11-O12=1.2016       C11-N13=1.4498       O12-C11=1.2016       N13-C5=1.3577        N13-C11=1.4498       
N13-C14=1.3440       C14-N13=1.3440       C14-H23=1.0692       C14-H24=1.0734       H15-C1=1.0920        H16-C1=1.0896        
H17-C1=1.0901        H18-C3=1.0716        H19-C10=1.0880       H20-C10=1.0901       H21-C10=1.0903       H23-C14=1.0692       
H24-C14=1.0734       H25-N4=1.0089        
 C  H  Rav=1.0838 sigma=0.0089  Rmin=1.0692  Rmax=1.0920     9
 C  C  Rav=1.4157 sigma=0.0240  Rmin=1.3917  Rmax=1.4397     2
 N  H  Rav=1.0089 sigma=0.0000  Rmin=1.0089  Rmax=1.0089     1
 N  C  Rav=1.3871 sigma=0.0407  Rmin=1.3370  Rmax=1.4560    11
 O  C  Rav=1.2084 sigma=0.0068  Rmin=1.2016  Rmax=1.2153     2

 selected bond angles (degree)
 --------------------
H15-C1-N2=110.40               H16-C1-N2=110.45               H16-C1-H15=108.69              H17-C1-N2=108.71               
H17-C1-H15=108.86              H17-C1-H16=109.71              C3-N2-C1=126.86                C6-N2-C1=125.25                
C6-N2-C3=107.87                N4-C3-N2=109.91                H18-C3-N2=125.49               H18-C3-N4=124.60               
C5-N4-C3=107.85                H25-N4-C3=124.81               H25-N4-C5=127.33               C6-C5-N4=106.95                
N13-C5-N4=129.37               N13-C5-C6=123.68               C5-C6-N2=107.43                C7-C6-N2=130.28                
C7-C6-C5=122.29                O8-C7-C6=126.12                N9-C7-C6=111.38                N9-C7-O8=122.50                
C10-N9-C7=117.10               C11-N9-C7=128.18               C11-N9-C10=114.73              H19-C10-N9=108.02              
H20-C10-N9=109.99              H20-C10-H19=110.28             H21-C10-N9=109.93              H21-C10-H19=110.28             
H21-C10-H20=108.34             

 selected dihedral angles (degree)
 ---------------------------------
C3-N2-C1-H15=290.88           C3-N2-C1-H16= 51.11           C3-N2-C1-H17=171.53           C6-N2-C1-H15=109.06           
C6-N2-C1-H16=229.29           C6-N2-C1-H17=349.71           N4-C3-N2-C1=178.75            N4-C3-N2-C6=  0.31            
H18-C3-N2-C1=358.31           H18-C3-N2-C6=179.87           C5-N4-C3-N2=359.69            C5-N4-C3-H18=180.13           
H25-N4-C3-N2=180.59           H25-N4-C3-H18=  1.02          C6-C5-N4-C3=  0.18            C6-C5-N4-H25=179.26           
N13-C5-N4-C3=180.05           N13-C5-N4-H25=359.12          C5-C6-N2-C1=181.34            C5-C6-N2-C3=359.81            
C7-C6-N2-C1=  2.42            C7-C6-N2-C3=180.88            N2-C6-C5-N4=  0.00            N2-C6-C5-N13=180.13           
C7-C6-C5-N4=179.03            C7-C6-C5-N13=359.16           O8-C7-C6-N2=  0.80            O8-C7-C6-C5=182.02            
N9-C7-C6-N2=180.72            N9-C7-C6-C5=  1.94            C10-N9-C7-C6=178.92           C10-N9-C7-O8=358.84           
C11-N9-C7-C6=358.93           C11-N9-C7-O8=178.85           H19-C10-N9-C7=  0.90          H19-C10-N9-C11=180.88         
H20-C10-N9-C7=121.31          H20-C10-N9-C11=301.29         H21-C10-N9-C7=240.52          H21-C10-N9-C11= 60.51         
           -------------------------------------------------
          |                Final Singlepoint                |
           -------------------------------------------------

          ...................................................
          :                      SETUP                      :
          :.................................................:
          :  # basis functions                  67          :
          :  # atomic orbitals                  67          :
          :  # shells                           39          :
          :  # electrons                        74          :
          :  max. iterations                   250          :
          :  Hamiltonian                  GFN2-xTB          :
          :  restarted?                      false          :
          :  GBSA solvation                  false          :
          :  PC potential                    false          :
          :  electronic temp.         7500.0000000     K    :
          :  accuracy                    1.0000000          :
          :  -> integral cutoff          0.2500000E+02      :
          :  -> integral neglect         0.1000000E-07      :
          :  -> SCF convergence          0.1000000E-05 Eh   :
          :  -> wf. convergence          0.1000000E-03 e    :
          :  Broyden damping             0.4000000          :
          ...................................................

 iter      E             dE          RMSdq      gap      omega  full diag
   1    -42.6525634 -0.426526E+02  0.939E-05    0.22       0.0  T
   2    -42.6525634 -0.195897E-10  0.691E-05    0.22     289.6  T
   3    -42.6525634 -0.705569E-10  0.414E-05    0.22     482.8  T

   *** convergence criteria satisfied after 3 iterations ***

         #    Occupation            Energy/Eh            Energy/eV
      -------------------------------------------------------------
         1        2.0000           -0.9118496             -24.8127
       ...           ...                  ...                  ...
        31        1.9923           -0.6177730             -16.8105
        32        1.9873           -0.6059188             -16.4879
        33        1.9742           -0.5889874             -16.0272
        34        1.9728           -0.5876608             -15.9911
        35        1.9398           -0.5683813             -15.4664
        36        1.9389           -0.5680398             -15.4571
        37        1.0495           -0.4882730             -13.2866 (HOMO)
        38        0.8810           -0.4802431             -13.0681 (LUMO)
        39        0.2056           -0.4344648             -11.8224
        40        0.0558           -0.4016031             -10.9282
        41        0.0191           -0.3756263             -10.2213
        42        0.0005           -0.2907588              -7.9119
       ...           ...                  ...                  ...
        67                          0.5393233              14.6757
      -------------------------------------------------------------
                  HL-Gap            0.0080298 Eh            0.2185 eV
             Fermi-level           -0.4859219 Eh          -13.2226 eV

 SCC (total)                   0 d,  0 h,  0 min,  0.021 sec
 SCC setup                      ...        0 min,  0.000 sec (  0.841%)
 Dispersion                     ...        0 min,  0.000 sec (  0.888%)
 classical contributions        ...        0 min,  0.000 sec (  0.318%)
 integral evaluation            ...        0 min,  0.004 sec ( 20.811%)
 iterations                     ...        0 min,  0.005 sec ( 22.433%)
 molecular gradient             ...        0 min,  0.011 sec ( 54.117%)
 printout                       ...        0 min,  0.000 sec (  0.536%)

         :::::::::::::::::::::::::::::::::::::::::::::::::::::
         ::                     SUMMARY                     ::
         :::::::::::::::::::::::::::::::::::::::::::::::::::::
         :: total energy             -42.135309457272 Eh    ::
         :: gradient norm              0.003359101031 Eh/a0 ::
         :: HOMO-LUMO gap              0.218503028754 eV    ::
         ::.................................................::
         :: SCC energy               -42.652563407920 Eh    ::
         :: -> isotropic ES            0.136492133831 Eh    ::
         :: -> anisotropic ES         -0.005352360352 Eh    ::
         :: -> anisotropic XC          0.012534875662 Eh    ::
         :: -> dispersion             -0.022625648190 Eh    ::
         :: repulsion energy           0.517169211322 Eh    ::
         :: add. restraining           0.000000011726 Eh    ::
         :: total charge               0.999999999849 e     ::
         :::::::::::::::::::::::::::::::::::::::::::::::::::::

           -------------------------------------------------
          |                Property Printout                |
           -------------------------------------------------

    * Orbital Energies and Occupations

         #    Occupation            Energy/Eh            Energy/eV
      -------------------------------------------------------------
         1        2.0000           -0.9118496             -24.8127
       ...           ...                  ...                  ...
        25        1.9993           -0.6734532             -18.3256
        26        1.9991           -0.6677321             -18.1699
        27        1.9989           -0.6640151             -18.0688
        28        1.9963           -0.6355856             -17.2952
        29        1.9960           -0.6332090             -17.2305
        30        1.9959           -0.6328035             -17.2195
        31        1.9923           -0.6177730             -16.8105
        32        1.9873           -0.6059188             -16.4879
        33        1.9742           -0.5889874             -16.0272
        34        1.9728           -0.5876608             -15.9911
        35        1.9398           -0.5683813             -15.4664
        36        1.9389           -0.5680398             -15.4571
        37        1.0495           -0.4882730             -13.2866 (HOMO)
        38        0.8810           -0.4802431             -13.0681 (LUMO)
        39        0.2056           -0.4344648             -11.8224
        40        0.0558           -0.4016031             -10.9282
        41        0.0191           -0.3756263             -10.2213
        42        0.0005           -0.2907588              -7.9119
        43        0.0000           -0.2119834              -5.7684
        44        0.0000           -0.1999904              -5.4420
        45        0.0000           -0.1492693              -4.0618
        46        0.0000           -0.1360390              -3.7018
        47                         -0.0693381              -1.8868
        48                         -0.0383693              -1.0441
       ...                                ...                  ...
        67                          0.5393233              14.6757
      -------------------------------------------------------------
                  HL-Gap            0.0080298 Eh            0.2185 eV
             Fermi-level           -0.4859219 Eh          -13.2226 eV

     #   Z          covCN         q      C6AA      α(0)
     1   6 C        3.691    -0.093    22.478     6.785
     2   7 N        2.823     0.075    19.931     6.631
     3   6 C        3.038     0.046    26.934     8.512
     4   7 N        2.782    -0.060    22.397     7.029
     5   6 C        3.032     0.091    25.946     8.355
     6   6 C        3.103    -0.013    28.216     8.704
     7   6 C        2.764     0.261    22.600     7.785
     8   8 O        0.858    -0.359    20.879     6.126
     9   7 N        2.744    -0.073    22.648     7.068
    10   6 C        3.712    -0.063    21.848     6.679
    11   6 C        2.735     0.307    21.792     7.643
    12   8 O        0.859    -0.335    20.418     6.058
    13   7 N        2.735     0.012    21.055     6.815
    14   6 C        2.798    -0.058    29.424     8.886
    15   1 H        0.924     0.110     1.701     2.039
    16   1 H        0.925     0.107     1.723     2.053
    17   1 H        0.925     0.138     1.479     1.902
    18   1 H        0.926     0.124     1.579     1.965
    19   1 H        0.925     0.123     1.593     1.974
    20   1 H        0.925     0.107     1.723     2.053
    21   1 H        0.924     0.107     1.724     2.053
    22   1 H        0.000    -0.005     7.830     5.117
    23   1 H        0.927     0.091     1.869     2.138
    24   1 H        0.926     0.134     1.504     1.918
    25   1 H        0.860     0.227     0.976     1.548

 Mol. C6AA /au·bohr⁶  :       6824.719151
 Mol. C8AA /au·bohr⁸  :     155754.800535
 Mol. α(0) /au        :        127.835918


Wiberg/Mayer (AO) data.
largest (>0.10) Wiberg bond orders for each atom

 ---------------------------------------------------------------------------
     #   Z sym  total        # sym  WBO       # sym  WBO       # sym  WBO
 ---------------------------------------------------------------------------
     1   6 C    3.905 --     2 N    0.989    16 H    0.960    17 H    0.956
                            15 H    0.952
     2   7 N    3.614 --     3 C    1.343     6 C    1.156     1 C    0.989
     3   6 C    3.750 --     2 N    1.343     4 N    1.266    18 H    0.953
     4   7 N    3.523 --     3 C    1.266     5 C    1.169    25 H    0.919
     5   6 C    3.851 --     6 C    1.324     4 N    1.169    13 N    1.153
     6   6 C    3.830 --     5 C    1.324     2 N    1.156     7 C    1.090
     7   6 C    3.881 --     8 O    1.639     6 C    1.090     9 N    1.070
     8   8 O    1.917 --     7 C    1.639     9 N    0.121
     9   7 N    3.518 --    11 C    1.158     7 C    1.070    10 C    0.970
                            12 O    0.138     8 O    0.121
    10   6 C    3.883 --     9 N    0.970    19 H    0.959    20 H    0.954
                            21 H    0.954
    11   6 C    3.898 --    12 O    1.699     9 N    1.158    13 N    0.951
    12   8 O    1.999 --    11 C    1.699     9 N    0.138
    13   7 N    3.602 --    14 C    1.289     5 C    1.153    11 C    0.951
    14   6 C    3.319 --    13 N    1.289    23 H    0.968    24 H    0.956
    15   1 H    0.978 --     1 C    0.952
    16   1 H    0.981 --     1 C    0.960
    17   1 H    0.978 --     1 C    0.956
    18   1 H    0.983 --     3 C    0.953
    19   1 H    0.977 --    10 C    0.959
    20   1 H    0.973 --    10 C    0.954
    21   1 H    0.972 --    10 C    0.954
    22   1 H    0.008
    23   1 H    0.989 --    14 C    0.968
    24   1 H    0.979 --    14 C    0.956
    25   1 H    0.948 --     4 N    0.919
 ---------------------------------------------------------------------------

Topologies differ in total number of bonds
Writing topology from bond orders to xtbtopo.mol

molecular dipole:
                 x           y           z       tot (Debye)
 q only:        2.447      -1.485      -0.172
   full:        2.693      -2.037      -0.183       8.596
molecular quadrupole (traceless):
                xx          xy          yy          xz          yz          zz
 q only:       13.987      -8.129       3.650      -0.002       1.722     -17.637
  q+dip:       11.926     -11.081       3.633      -0.037       1.798     -15.559
   full:       10.845     -10.934       2.676      -0.016       1.715     -13.521

           -------------------------------------------------
          |                Geometry Summary                 |
           -------------------------------------------------

      molecular mass/u    :      195.1988581
   center of mass at/Å    :        0.0385749       0.0691458      -0.0540663
  moments of inertia/u·Å² :        0.4919233E+03   0.7239834E+03   0.1204042E+04
rotational constants/cm⁻¹ :        0.3426882E-01   0.2328456E-01   0.1400087E-01

 * 24 selected distances

     #   Z          #   Z                                           value/Å
     1   6 C        2   7 N                                       1.4365383
     2   7 N        3   6 C                                       1.3370240
     3   6 C        4   7 N                                       1.3548701
     4   7 N        5   6 C                                       1.3719766
     2   7 N        6   6 C                                       1.3763318
     5   6 C        6   6 C                                       1.3916907
     6   6 C        7   6 C                                       1.4397272
     7   6 C        8   8 O                                       1.2152849
     7   6 C        9   7 N                                       1.4027101
     9   7 N       10   6 C                                       1.4560290 (max)
     9   7 N       11   6 C                                       1.3710315
    11   6 C       12   8 O                                       1.2015941
     5   6 C       13   7 N                                       1.3577184
    13   7 N       14   6 C                                       1.3439660
     1   6 C       15   1 H                                       1.0919723
     1   6 C       16   1 H                                       1.0896203
     1   6 C       17   1 H                                       1.0900597
     3   6 C       18   1 H                                       1.0716146
    10   6 C       19   1 H                                       1.0880367
    10   6 C       20   1 H                                       1.0900810
    10   6 C       21   1 H                                       1.0902961
    14   6 C       23   1 H                                       1.0691798
    14   6 C       24   1 H                                       1.0734405
     4   7 N       25   1 H                                       1.0088712 (min)

 * 5 distinct bonds (by element types)

   Z      Z             #   av. dist./Å        max./Å        min./Å
   1 H    6 C           9     1.0838112     1.0919723     1.0691798
   6 C    6 C           2     1.4157089     1.4397272     1.3916907
   1 H    7 N           1     1.0088712     1.0088712     1.0088712
   6 C    7 N          10     1.3808196     1.4560290     1.3370240
   6 C    8 O           2     1.2084395     1.2152849     1.2015941


optimized geometry written to: xtbopt.xyz


           -------------------------------------------------
          | TOTAL ENERGY              -42.135309457272 Eh   |
          | GRADIENT NORM               0.003359101031 Eh/α |
          | HOMO-LUMO GAP               0.218503028754 eV   |
           -------------------------------------------------

------------------------------------------------------------------------
 * finished run on 2024/06/05 at 19:58:46.873     
------------------------------------------------------------------------
 total:
 * wall-time:     0 d,  0 h,  0 min,  0.989 sec
 *  cpu-time:     0 d,  0 h,  0 min,  0.961 sec
 * ratio c/w:     0.971 speedup
 SCF:
 * wall-time:     0 d,  0 h,  0 min,  0.036 sec
 *  cpu-time:     0 d,  0 h,  0 min,  0.036 sec
 * ratio c/w:     1.000 speedup
 ANC optimizer:
 * wall-time:     0 d,  0 h,  0 min,  0.921 sec
 *  cpu-time:     0 d,  0 h,  0 min,  0.913 sec
 * ratio c/w:     0.991 speedup

