      -----------------------------------------------------------      
     |                   =====================                   |     
     |                           x T B                           |     
     |                   =====================                   |     
     |                         S. Grimme                         |     
     |          Mulliken Center for Theoretical Chemistry        |     
     |                    University of Bonn                     |     
      -----------------------------------------------------------      

   * xtb version 6.6.1 (8d0f1dd) compiled by 'conda@1efc2f54142f' on 2023-08-01

   xtb is free software: you can redistribute it and/or modify it under
   the terms of the GNU Lesser General Public License as published by
   the Free Software Foundation, either version 3 of the License, or
   (at your option) any later version.
   
   xtb is distributed in the hope that it will be useful,
   but WITHOUT ANY WARRANTY; without even the implied warranty of
   MERCHANTABILITY or FITNESS FOR A PARTICULAR PURPOSE.  See the
   GNU Lesser General Public License for more details.
   
   Cite this work as:
   * C. Bannwarth, E. Caldeweyher, S. Ehlert, A. Hansen, P. Pracht,
     J. Seibert, S. Spicher, S. Grimme, WIREs Comput. Mol. Sci., 2020, 11,
     e01493. DOI: 10.1002/wcms.1493
   
   for GFN2-xTB:
   * C. Bannwarth, S. Ehlert and S. Grimme., J. Chem. Theory Comput., 2019,
     15, 1652-1671. DOI: 10.1021/acs.jctc.8b01176
   for GFN1-xTB:
   * S. Grimme, C. Bannwarth, P. Shushkov, J. Chem. Theory Comput., 2017,
     13, 1989-2009. DOI: 10.1021/acs.jctc.7b00118
   for GFN0-xTB:
   * P. Pracht, E. Caldeweyher, S. Ehlert, S. Grimme, ChemRxiv, 2019, preprint.
     DOI: 10.26434/chemrxiv.8326202.v1
   for GFN-FF:
   * S. Spicher and S. Grimme, Angew. Chem. Int. Ed., 2020, 59, 15665-15673.
     DOI: 10.1002/anie.202004239
   
   for ALPB and GBSA implicit solvation:
   * S. Ehlert, M. Stahn, S. Spicher, S. Grimme, J. Chem. Theory Comput.,
     2021, 17, 4250-4261. DOI: 10.1021/acs.jctc.1c00471
   
   for DFT-D4:
   * E. Caldeweyher, C. Bannwarth and S. Grimme, J. Chem. Phys., 2017,
     147, 034112. DOI: 10.1063/1.4993215
   * E. Caldeweyher, S. Ehlert, A. Hansen, H. Neugebauer, S. Spicher,
     C. Bannwarth and S. Grimme, J. Chem. Phys., 2019, 150, 154122.
     DOI: 10.1063/1.5090222
   * E. Caldeweyher, J.-M. Mewes, S. Ehlert and S. Grimme, Phys. Chem. Chem. Phys.
     2020, 22, 8499-8512. DOI: 10.1039/D0CP00502A
   
   for sTDA-xTB:
   * S. Grimme and C. Bannwarth, J. Chem. Phys., 2016, 145, 054103.
     DOI: 10.1063/1.4959605
   
   in the mass-spec context:
   * V. Asgeirsson, C. Bauer and S. Grimme, Chem. Sci., 2017, 8, 4879.
     DOI: 10.1039/c7sc00601b
   * J. Koopman and S. Grimme, ACS Omega 2019, 4, 12, 15120-15133.
     DOI: 10.1021/acsomega.9b02011
   
   for metadynamics refer to:
   * S. Grimme, J. Chem. Theory Comput., 2019, 155, 2847-2862
     DOI: 10.1021/acs.jctc.9b00143
   
   for SPH calculations refer to:
   * S. Spicher and S. Grimme, J. Chem. Theory Comput., 2021, 17, 1701-1714
     DOI: 10.1021/acs.jctc.0c01306
   
   with help from (in alphabetical order)
   P. Atkinson, C. Bannwarth, F. Bohle, G. Brandenburg, E. Caldeweyher
   M. Checinski, S. Dohm, S. Ehlert, S. Ehrlich, I. Gerasimov, C. Hölzer
   A. Katbashev, J. Koopman, C. Lavigne, S. Lehtola, F. März, M. Müller,
   F. Musil, H. Neugebauer, J. Pisarek, C. Plett, P. Pracht, F. Pultar,
   J. Seibert, P. Shushkov, S. Spicher, M. Stahn, M. Steiner, T. Strunk,
   J. Stückrath, T. Rose, and J. Unsleber
   
 * started run on 2024/06/05 at 19:58:46.897     

           -------------------------------------------------
          |                Calculation Setup                |
           -------------------------------------------------

          program call               : xtb xtbopt.xyz --opt crude --input .xc2 --gfn2
          hostname                   : n-62-29-9
          coordinate file            : xtbopt.xyz
          omp threads                :                     1

   ID    Z sym.   atoms
    1    6 C      1, 3, 5-7, 10, 11, 14
    2    7 N      2, 4, 9, 13
    3    8 O      8, 12
    4    1 H      15-25

molecular fragmentation (1/2 indicates fragments):
1111111111111111111112111
# atoms in fragment 1/2:    24     1
 fragment masses (1/2) :      194.19        1.01
CMA distance (Bohr)    :  11.004
constraining FC (au)   :  0.0500
########################################################################
[WARNING] Please study the warnings concerning your input carefully
-1- readin_getIntValue: could not parse ''
########################################################################

           -------------------------------------------------
          |                 G F N 2 - x T B                 |
           -------------------------------------------------

        Reference                      10.1021/acs.jctc.8b01176
      * Hamiltonian:
        H0-scaling (s, p, d)           1.850000    2.230000    2.230000
        zeta-weighting                 0.500000
      * Dispersion:
        s8                             2.700000
        a1                             0.520000
        a2                             5.000000
        s9                             5.000000
      * Repulsion:
        kExp                           1.500000    1.000000
        rExp                           1.000000
      * Coulomb:
        alpha                          2.000000
        third order                    shell-resolved
        anisotropic                    true
        a3                             3.000000
        a5                             4.000000
        cn-shift                       1.200000
        cn-exp                         4.000000
        max-rad                        5.000000

q/qsh data taken from xtbrestart
CAMM data taken from xtbrestart

          ...................................................
          :                      SETUP                      :
          :.................................................:
          :  # basis functions                  67          :
          :  # atomic orbitals                  67          :
          :  # shells                           39          :
          :  # electrons                        74          :
          :  max. iterations                   250          :
          :  Hamiltonian                  GFN2-xTB          :
          :  restarted?                       true          :
          :  GBSA solvation                  false          :
          :  PC potential                    false          :
          :  electronic temp.         7500.0000000     K    :
          :  accuracy                    1.0000000          :
          :  -> integral cutoff          0.2500000E+02      :
          :  -> integral neglect         0.1000000E-07      :
          :  -> SCF convergence          0.1000000E-05 Eh   :
          :  -> wf. convergence          0.1000000E-03 e    :
          :  Broyden damping             0.4000000          :
          ...................................................

 iter      E             dE          RMSdq      gap      omega  full diag
   1    -42.6525634 -0.426526E+02  0.374E-05    0.22       0.0  T
   2    -42.6525634  0.701590E-10  0.599E-05    0.22     333.6  T
   3    -42.6525634 -0.105388E-09  0.860E-06    0.22    2325.5  T

   *** convergence criteria satisfied after 3 iterations ***

         #    Occupation            Energy/Eh            Energy/eV
      -------------------------------------------------------------
         1        2.0000           -0.9118498             -24.8127
       ...           ...                  ...                  ...
        31        1.9923           -0.6177731             -16.8105
        32        1.9873           -0.6059187             -16.4879
        33        1.9742           -0.5889874             -16.0272
        34        1.9728           -0.5876609             -15.9911
        35        1.9398           -0.5683812             -15.4664
        36        1.9389           -0.5680397             -15.4571
        37        1.0494           -0.4882727             -13.2866 (HOMO)
        38        0.8810           -0.4802431             -13.0681 (LUMO)
        39        0.2056           -0.4344650             -11.8224
        40        0.0558           -0.4016032             -10.9282
        41        0.0191           -0.3756263             -10.2213
        42        0.0005           -0.2907587              -7.9119
       ...           ...                  ...                  ...
        67                          0.5393234              14.6757
      -------------------------------------------------------------
                  HL-Gap            0.0080296 Eh            0.2185 eV
             Fermi-level           -0.4859218 Eh          -13.2226 eV

 SCC (total)                   0 d,  0 h,  0 min,  0.025 sec
 SCC setup                      ...        0 min,  0.000 sec (  1.208%)
 Dispersion                     ...        0 min,  0.000 sec (  1.365%)
 classical contributions        ...        0 min,  0.000 sec (  0.433%)
 integral evaluation            ...        0 min,  0.006 sec ( 23.343%)
 iterations                     ...        0 min,  0.007 sec ( 26.946%)
 molecular gradient             ...        0 min,  0.011 sec ( 46.102%)
 printout                       ...        0 min,  0.000 sec (  0.551%)

         :::::::::::::::::::::::::::::::::::::::::::::::::::::
         ::                     SUMMARY                     ::
         :::::::::::::::::::::::::::::::::::::::::::::::::::::
         :: total energy             -42.135309469014 Eh    ::
         :: gradient norm              0.003435347150 Eh/a0 ::
         :: HOMO-LUMO gap              0.218496232886 eV    ::
         ::.................................................::
         :: SCC energy               -42.652563407935 Eh    ::
         :: -> isotropic ES            0.136491460961 Eh    ::
         :: -> anisotropic ES         -0.005352296699 Eh    ::
         :: -> anisotropic XC          0.012534854617 Eh    ::
         :: -> dispersion             -0.022625646418 Eh    ::
         :: repulsion energy           0.517169211322 Eh    ::
         :: add. restraining           0.000000000000 Eh    ::
         :: total charge               0.999999999849 e     ::
         :::::::::::::::::::::::::::::::::::::::::::::::::::::

      ----------------------------------------------------------- 
     |                   =====================                   |
     |                        A N C O P T                        |
     |                   =====================                   |
     |               Approximate Normal Coordinate               |
     |                Rational Function Optimizer                |
      ----------------------------------------------------------- 

          ...................................................
          :                      SETUP                      :
          :.................................................:
          :   optimization level             crude          :
          :   max. optcycles                   200          :
          :   ANC micro-cycles                  20          :
          :   degrees of freedom                69          :
          :.................................................:
          :   RF solver                   davidson          :
          :   write xtbopt.log                true          :
          :   linear?                        false          :
          :   energy convergence         0.5000000E-03 Eh   :
          :   grad. convergence          0.1000000E-01 Eh/α :
          :   maxmium RF displ.          1.0000000          :
          :   Hlow (freq-cutoff)         0.1000000E-01      :
          :   Hmax (freq-cutoff)         5.0000000          :
          :   S6 in model hess.         20.0000000          :
          ...................................................

generating ANC from model Hessian ...
Using Lindh-Hessian (1995)
 Shifting diagonal of input Hessian by    1.0066253894541757E-002
 Lowest  eigenvalues of input Hessian
    0.010000    0.010031    0.000000    0.000000    0.000000    0.000000
    0.000000    0.000000    0.010745    0.012845    0.014162    0.016185
    0.018590    0.020539    0.022854    0.024640    0.025352    0.028043
 Highest eigenvalues
    2.114104    2.126857    2.192136    2.272513    2.392282    2.526782


........................................................................
.............................. CYCLE    1 ..............................
........................................................................

 iter      E             dE          RMSdq      gap      omega  full diag
   1    -42.6525634 -0.426526E+02  0.569E-06    0.22       0.0  T
   2    -42.6525634  0.198952E-12  0.514E-06    0.22    3892.2  T
   3    -42.6525634 -0.561329E-12  0.265E-06    0.22    7540.9  T
     SCC iter.                  ...        0 min,  0.005 sec
     gradient                   ...        0 min,  0.011 sec
 * total energy  :   -42.1353095 Eh     change       -0.2771117E-12 Eh
   gradient norm :     0.0034353 Eh/α   predicted     0.0000000E+00 (-100.00%)
   displ. norm   :     0.0413053 α      lambda       -0.2604132E-04
   maximum displ.:     0.0295199 α      in ANC's #3, #1, #6, ...

   *** GEOMETRY OPTIMIZATION CONVERGED AFTER 1 ITERATIONS ***

------------------------------------------------------------------------
 total energy gain   :        -0.0000000 Eh       -0.0000 kcal/mol
 total RMSD          :         0.0000000 a0        0.0000 Å
 total power (kW/mol):        -0.0000000 (step)   -0.0000 (real)
------------------------------------------------------------------------

 ANCopt (total)                0 d,  0 h,  0 min,  0.033 sec
 optimizer setup                ...        0 min,  0.000 sec (  1.344%)
 model hessian                  ...        0 min,  0.007 sec ( 21.001%)
 ANC generation                 ...        0 min,  0.001 sec (  3.713%)
 coordinate transformation      ...        0 min,  0.000 sec (  0.032%)
 single point calculation       ...        0 min,  0.022 sec ( 68.209%)
 optimization log               ...        0 min,  0.002 sec (  4.849%)
 hessian update                 ...        0 min,  0.000 sec (  0.004%)
 rational function              ...        0 min,  0.000 sec (  0.550%)

================
 final structure:
================
25
 xtb: 6.6.1 (8d0f1dd)
C            3.25304791321349        1.23989771252824        0.02179328271206
N            2.31839420532230        0.15143111481397       -0.05104015613083
C            2.60817411151868       -1.15307371005991       -0.09494595389931
N            1.46456980622767       -1.87867146605193       -0.13168621348166
C            0.40931464881284       -1.00234779265612       -0.10317527199347
C            0.94806426274555        0.27981919386649       -0.05219209232957
C            0.12381988960081        1.46008036693179       -0.03172877880772
O            0.51858197360981        2.60942459181827       -0.02236003080628
N           -1.23985188363951        1.13151944931821       -0.02522289255129
C           -2.18786693972237        2.23571981152072        0.01982281053514
C           -1.81152687580747       -0.11426231772179       -0.05592429242970
O           -2.99896250679247       -0.29706497213226       -0.03572641814120
N           -0.92386091133947       -1.25869076180383       -0.12134724070400
C           -1.48163411680768       -2.47907287961920       -0.19751056831856
H            3.74810379643922        1.25206595023927        0.99502243532811
H            4.01146667577113        1.14293576087986       -0.75452588335838
H            2.71041670822013        2.17616934643483       -0.10926668322246
H            3.59477569013386       -1.57119051362922       -0.10733087580951
H           -1.62203834501696        3.16503920727247        0.02502887497664
H           -2.84502568758509        2.19832430677285       -0.84909623649111
H           -2.80183850640021        2.16206556944663        0.91779788370553
H           -2.62806875171984       -4.85548895839169        1.42861036924419
H           -0.87635291250913       -3.35815544338356       -0.26070732458752
H           -2.55365181684382       -2.53196255168015       -0.21347919963238
H            1.42238108666870       -2.88627247311370       -0.15963792590669

 Bond Distances (Angstroems)
 ---------------------------
C1-N2=1.4365         C1-H15=1.0920        C1-H16=1.0896        C1-H17=1.0901        N2-C1=1.4365         N2-C3=1.3370         
N2-C6=1.3763         C3-N2=1.3370         C3-N4=1.3549         C3-H18=1.0716        N4-C3=1.3549         N4-C5=1.3720         
N4-H25=1.0089        C5-N4=1.3720         C5-C6=1.3917         C5-N13=1.3577        C6-N2=1.3763         C6-C5=1.3917         
C6-C7=1.4397         C7-C6=1.4397         C7-O8=1.2153         C7-N9=1.4027         O8-C7=1.2153         N9-C7=1.4027         
N9-C10=1.4560        N9-C11=1.3710        C10-N9=1.4560        C10-H19=1.0880       C10-H20=1.0901       C10-H21=1.0903       
C11-N9=1.3710        C11-O12=1.2016       C11-N13=1.4498       O12-C11=1.2016       N13-C5=1.3577        N13-C11=1.4498       
N13-C14=1.3440       C14-N13=1.3440       C14-H23=1.0692       C14-H24=1.0734       H15-C1=1.0920        H16-C1=1.0896        
H17-C1=1.0901        H18-C3=1.0716        H19-C10=1.0880       H20-C10=1.0901       H21-C10=1.0903       H23-C14=1.0692       
H24-C14=1.0734       H25-N4=1.0089        
 C  H  Rav=1.0838 sigma=0.0089  Rmin=1.0692  Rmax=1.0920     9
 C  C  Rav=1.4157 sigma=0.0240  Rmin=1.3917  Rmax=1.4397     2
 N  H  Rav=1.0089 sigma=0.0000  Rmin=1.0089  Rmax=1.0089     1
 N  C  Rav=1.3871 sigma=0.0407  Rmin=1.3370  Rmax=1.4560    11
 O  C  Rav=1.2084 sigma=0.0068  Rmin=1.2016  Rmax=1.2153     2

 selected bond angles (degree)
 --------------------
H15-C1-N2=110.40               H16-C1-N2=110.45               H16-C1-H15=108.69              H17-C1-N2=108.71               
H17-C1-H15=108.86              H17-C1-H16=109.71              C3-N2-C1=126.86                C6-N2-C1=125.25                
C6-N2-C3=107.87                N4-C3-N2=109.91                H18-C3-N2=125.49               H18-C3-N4=124.60               
C5-N4-C3=107.85                H25-N4-C3=124.81               H25-N4-C5=127.33               C6-C5-N4=106.95                
N13-C5-N4=129.37               N13-C5-C6=123.68               C5-C6-N2=107.43                C7-C6-N2=130.28                
C7-C6-C5=122.29                O8-C7-C6=126.12                N9-C7-C6=111.38                N9-C7-O8=122.50                
C10-N9-C7=117.10               C11-N9-C7=128.18               C11-N9-C10=114.73              H19-C10-N9=108.02              
H20-C10-N9=109.99              H20-C10-H19=110.28             H21-C10-N9=109.93              H21-C10-H19=110.28             
H21-C10-H20=108.34             

 selected dihedral angles (degree)
 ---------------------------------
C3-N2-C1-H15=290.88           C3-N2-C1-H16= 51.11           C3-N2-C1-H17=171.53           C6-N2-C1-H15=109.06           
C6-N2-C1-H16=229.29           C6-N2-C1-H17=349.71           N4-C3-N2-C1=178.75            N4-C3-N2-C6=  0.31            
H18-C3-N2-C1=358.31           H18-C3-N2-C6=179.87           C5-N4-C3-N2=359.69            C5-N4-C3-H18=180.13           
H25-N4-C3-N2=180.59           H25-N4-C3-H18=  1.02          C6-C5-N4-C3=  0.18            C6-C5-N4-H25=179.26           
N13-C5-N4-C3=180.05           N13-C5-N4-H25=359.12          C5-C6-N2-C1=181.34            C5-C6-N2-C3=359.81            
C7-C6-N2-C1=  2.42            C7-C6-N2-C3=180.88            N2-C6-C5-N4=  0.00            N2-C6-C5-N13=180.13           
C7-C6-C5-N4=179.03            C7-C6-C5-N13=359.16           O8-C7-C6-N2=  0.80            O8-C7-C6-C5=182.02            
N9-C7-C6-N2=180.72            N9-C7-C6-C5=  1.94            C10-N9-C7-C6=178.92           C10-N9-C7-O8=358.84           
C11-N9-C7-C6=358.93           C11-N9-C7-O8=178.85           H19-C10-N9-C7=  0.90          H19-C10-N9-C11=180.88         
H20-C10-N9-C7=121.31          H20-C10-N9-C11=301.29         H21-C10-N9-C7=240.52          H21-C10-N9-C11= 60.51         

 CMA Distance (Angstroems)
 ---------------------------
R(CMA):  5.8233
           -------------------------------------------------
          |                Final Singlepoint                |
           -------------------------------------------------

          ...................................................
          :                      SETUP                      :
          :.................................................:
          :  # basis functions                  67          :
          :  # atomic orbitals                  67          :
          :  # shells                           39          :
          :  # electrons                        74          :
          :  max. iterations                   250          :
          :  Hamiltonian                  GFN2-xTB          :
          :  restarted?                      false          :
          :  GBSA solvation                  false          :
          :  PC potential                    false          :
          :  electronic temp.         7500.0000000     K    :
          :  accuracy                    1.0000000          :
          :  -> integral cutoff          0.2500000E+02      :
          :  -> integral neglect         0.1000000E-07      :
          :  -> SCF convergence          0.1000000E-05 Eh   :
          :  -> wf. convergence          0.1000000E-03 e    :
          :  Broyden damping             0.4000000          :
          ...................................................

 iter      E             dE          RMSdq      gap      omega  full diag
   1    -42.6525634 -0.426526E+02  0.201E-06    0.22       0.0  T
   2    -42.6525634  0.000000E+00  0.224E-06    0.22    8947.6  T
   3    -42.6525634 -0.994760E-13  0.724E-07    0.22   27641.4  T

   *** convergence criteria satisfied after 3 iterations ***

         #    Occupation            Energy/Eh            Energy/eV
      -------------------------------------------------------------
         1        2.0000           -0.9118498             -24.8127
       ...           ...                  ...                  ...
        31        1.9923           -0.6177731             -16.8105
        32        1.9873           -0.6059187             -16.4879
        33        1.9742           -0.5889874             -16.0272
        34        1.9728           -0.5876608             -15.9911
        35        1.9398           -0.5683812             -15.4664
        36        1.9389           -0.5680397             -15.4571
        37        1.0494           -0.4882727             -13.2866 (HOMO)
        38        0.8810           -0.4802431             -13.0681 (LUMO)
        39        0.2056           -0.4344650             -11.8224
        40        0.0558           -0.4016031             -10.9282
        41        0.0191           -0.3756263             -10.2213
        42        0.0005           -0.2907587              -7.9119
       ...           ...                  ...                  ...
        67                          0.5393234              14.6757
      -------------------------------------------------------------
                  HL-Gap            0.0080296 Eh            0.2185 eV
             Fermi-level           -0.4859218 Eh          -13.2226 eV

 SCC (total)                   0 d,  0 h,  0 min,  0.021 sec
 SCC setup                      ...        0 min,  0.000 sec (  0.847%)
 Dispersion                     ...        0 min,  0.000 sec (  0.845%)
 classical contributions        ...        0 min,  0.000 sec (  0.313%)
 integral evaluation            ...        0 min,  0.004 sec ( 20.818%)
 iterations                     ...        0 min,  0.005 sec ( 22.776%)
 molecular gradient             ...        0 min,  0.011 sec ( 53.812%)
 printout                       ...        0 min,  0.000 sec (  0.534%)

         :::::::::::::::::::::::::::::::::::::::::::::::::::::
         ::                     SUMMARY                     ::
         :::::::::::::::::::::::::::::::::::::::::::::::::::::
         :: total energy             -42.135309469015 Eh    ::
         :: gradient norm              0.003435344614 Eh/a0 ::
         :: HOMO-LUMO gap              0.218497108509 eV    ::
         ::.................................................::
         :: SCC energy               -42.652563407936 Eh    ::
         :: -> isotropic ES            0.136491509086 Eh    ::
         :: -> anisotropic ES         -0.005352306426 Eh    ::
         :: -> anisotropic XC          0.012534858784 Eh    ::
         :: -> dispersion             -0.022625646751 Eh    ::
         :: repulsion energy           0.517169211322 Eh    ::
         :: add. restraining           0.000000000000 Eh    ::
         :: total charge               0.999999999848 e     ::
         :::::::::::::::::::::::::::::::::::::::::::::::::::::

           -------------------------------------------------
          |                Property Printout                |
           -------------------------------------------------

    * Orbital Energies and Occupations

         #    Occupation            Energy/Eh            Energy/eV
      -------------------------------------------------------------
         1        2.0000           -0.9118498             -24.8127
       ...           ...                  ...                  ...
        25        1.9993           -0.6734531             -18.3256
        26        1.9991           -0.6677322             -18.1699
        27        1.9989           -0.6640150             -18.0688
        28        1.9963           -0.6355856             -17.2952
        29        1.9960           -0.6332090             -17.2305
        30        1.9959           -0.6328036             -17.2195
        31        1.9923           -0.6177731             -16.8105
        32        1.9873           -0.6059187             -16.4879
        33        1.9742           -0.5889874             -16.0272
        34        1.9728           -0.5876608             -15.9911
        35        1.9398           -0.5683812             -15.4664
        36        1.9389           -0.5680397             -15.4571
        37        1.0494           -0.4882727             -13.2866 (HOMO)
        38        0.8810           -0.4802431             -13.0681 (LUMO)
        39        0.2056           -0.4344650             -11.8224
        40        0.0558           -0.4016031             -10.9282
        41        0.0191           -0.3756263             -10.2213
        42        0.0005           -0.2907587              -7.9119
        43        0.0000           -0.2119835              -5.7684
        44        0.0000           -0.1999904              -5.4420
        45        0.0000           -0.1492693              -4.0618
        46        0.0000           -0.1360390              -3.7018
        47                         -0.0693383              -1.8868
        48                         -0.0383694              -1.0441
       ...                                ...                  ...
        67                          0.5393234              14.6757
      -------------------------------------------------------------
                  HL-Gap            0.0080296 Eh            0.2185 eV
             Fermi-level           -0.4859218 Eh          -13.2226 eV

     #   Z          covCN         q      C6AA      α(0)
     1   6 C        3.691    -0.093    22.478     6.785
     2   7 N        2.823     0.075    19.931     6.631
     3   6 C        3.038     0.046    26.934     8.512
     4   7 N        2.782    -0.060    22.397     7.029
     5   6 C        3.032     0.091    25.946     8.355
     6   6 C        3.103    -0.013    28.216     8.704
     7   6 C        2.764     0.261    22.600     7.785
     8   8 O        0.858    -0.359    20.879     6.126
     9   7 N        2.744    -0.073    22.648     7.068
    10   6 C        3.712    -0.063    21.848     6.679
    11   6 C        2.735     0.307    21.792     7.643
    12   8 O        0.859    -0.335    20.418     6.058
    13   7 N        2.735     0.012    21.055     6.815
    14   6 C        2.798    -0.058    29.424     8.886
    15   1 H        0.924     0.110     1.701     2.039
    16   1 H        0.925     0.107     1.723     2.053
    17   1 H        0.925     0.138     1.479     1.902
    18   1 H        0.926     0.124     1.579     1.965
    19   1 H        0.925     0.123     1.593     1.974
    20   1 H        0.925     0.107     1.723     2.053
    21   1 H        0.924     0.107     1.724     2.053
    22   1 H        0.000    -0.005     7.830     5.117
    23   1 H        0.927     0.091     1.869     2.138
    24   1 H        0.926     0.134     1.504     1.918
    25   1 H        0.860     0.227     0.976     1.548

 Mol. C6AA /au·bohr⁶  :       6824.717552
 Mol. C8AA /au·bohr⁸  :     155754.779502
 Mol. α(0) /au        :        127.835899


Wiberg/Mayer (AO) data.
largest (>0.10) Wiberg bond orders for each atom

 ---------------------------------------------------------------------------
     #   Z sym  total        # sym  WBO       # sym  WBO       # sym  WBO
 ---------------------------------------------------------------------------
     1   6 C    3.905 --     2 N    0.989    16 H    0.960    17 H    0.956
                            15 H    0.952
     2   7 N    3.614 --     3 C    1.343     6 C    1.156     1 C    0.989
     3   6 C    3.750 --     2 N    1.343     4 N    1.265    18 H    0.953
     4   7 N    3.523 --     3 C    1.265     5 C    1.169    25 H    0.919
     5   6 C    3.851 --     6 C    1.324     4 N    1.169    13 N    1.153
     6   6 C    3.830 --     5 C    1.324     2 N    1.156     7 C    1.090
     7   6 C    3.881 --     8 O    1.639     6 C    1.090     9 N    1.070
     8   8 O    1.917 --     7 C    1.639     9 N    0.121
     9   7 N    3.518 --    11 C    1.158     7 C    1.070    10 C    0.970
                            12 O    0.138     8 O    0.121
    10   6 C    3.883 --     9 N    0.970    19 H    0.959    20 H    0.954
                            21 H    0.954
    11   6 C    3.898 --    12 O    1.699     9 N    1.158    13 N    0.951
    12   8 O    1.999 --    11 C    1.699     9 N    0.138
    13   7 N    3.602 --    14 C    1.289     5 C    1.153    11 C    0.951
    14   6 C    3.319 --    13 N    1.289    23 H    0.968    24 H    0.956
    15   1 H    0.978 --     1 C    0.952
    16   1 H    0.981 --     1 C    0.960
    17   1 H    0.978 --     1 C    0.956
    18   1 H    0.983 --     3 C    0.953
    19   1 H    0.977 --    10 C    0.959
    20   1 H    0.973 --    10 C    0.954
    21   1 H    0.972 --    10 C    0.954
    22   1 H    0.008
    23   1 H    0.989 --    14 C    0.968
    24   1 H    0.979 --    14 C    0.956
    25   1 H    0.948 --     4 N    0.919
 ---------------------------------------------------------------------------

Topologies differ in total number of bonds
Writing topology from bond orders to xtbtopo.mol

molecular dipole:
                 x           y           z       tot (Debye)
 q only:        2.447      -1.485      -0.172
   full:        2.693      -2.037      -0.183       8.596
molecular quadrupole (traceless):
                xx          xy          yy          xz          yz          zz
 q only:       13.987      -8.129       3.650      -0.002       1.722     -17.637
  q+dip:       11.926     -11.081       3.633      -0.037       1.798     -15.559
   full:       10.845     -10.934       2.676      -0.016       1.715     -13.521

           -------------------------------------------------
          |                Geometry Summary                 |
           -------------------------------------------------

      molecular mass/u    :      195.1988581
   center of mass at/Å    :        0.0385749       0.0691458      -0.0540663
  moments of inertia/u·Å² :        0.4919233E+03   0.7239834E+03   0.1204042E+04
rotational constants/cm⁻¹ :        0.3426882E-01   0.2328456E-01   0.1400087E-01

 * 24 selected distances

     #   Z          #   Z                                           value/Å
     1   6 C        2   7 N                                       1.4365383
     2   7 N        3   6 C                                       1.3370240
     3   6 C        4   7 N                                       1.3548701
     4   7 N        5   6 C                                       1.3719766
     2   7 N        6   6 C                                       1.3763318
     5   6 C        6   6 C                                       1.3916907
     6   6 C        7   6 C                                       1.4397272
     7   6 C        8   8 O                                       1.2152849
     7   6 C        9   7 N                                       1.4027101
     9   7 N       10   6 C                                       1.4560290 (max)
     9   7 N       11   6 C                                       1.3710315
    11   6 C       12   8 O                                       1.2015941
     5   6 C       13   7 N                                       1.3577184
    13   7 N       14   6 C                                       1.3439660
     1   6 C       15   1 H                                       1.0919723
     1   6 C       16   1 H                                       1.0896203
     1   6 C       17   1 H                                       1.0900597
     3   6 C       18   1 H                                       1.0716146
    10   6 C       19   1 H                                       1.0880367
    10   6 C       20   1 H                                       1.0900810
    10   6 C       21   1 H                                       1.0902961
    14   6 C       23   1 H                                       1.0691798
    14   6 C       24   1 H                                       1.0734405
     4   7 N       25   1 H                                       1.0088712 (min)

 * 5 distinct bonds (by element types)

   Z      Z             #   av. dist./Å        max./Å        min./Å
   1 H    6 C           9     1.0838112     1.0919723     1.0691798
   6 C    6 C           2     1.4157089     1.4397272     1.3916907
   1 H    7 N           1     1.0088712     1.0088712     1.0088712
   6 C    7 N          10     1.3808196     1.4560290     1.3370240
   6 C    8 O           2     1.2084395     1.2152849     1.2015941


optimized geometry written to: xtbopt.xyz


           -------------------------------------------------
          | TOTAL ENERGY              -42.135309469015 Eh   |
          | GRADIENT NORM               0.003435344614 Eh/α |
          | HOMO-LUMO GAP               0.218497108509 eV   |
           -------------------------------------------------

------------------------------------------------------------------------
 * finished run on 2024/06/05 at 19:58:47.018     
------------------------------------------------------------------------
 total:
 * wall-time:     0 d,  0 h,  0 min,  0.121 sec
 *  cpu-time:     0 d,  0 h,  0 min,  0.091 sec
 * ratio c/w:     0.751 speedup
 SCF:
 * wall-time:     0 d,  0 h,  0 min,  0.025 sec
 *  cpu-time:     0 d,  0 h,  0 min,  0.025 sec
 * ratio c/w:     1.000 speedup
 ANC optimizer:
 * wall-time:     0 d,  0 h,  0 min,  0.061 sec
 *  cpu-time:     0 d,  0 h,  0 min,  0.053 sec
 * ratio c/w:     0.866 speedup

