25
 energy: 0.000000000000 xtb: 6.6.1 (8d0f1dd)
C            3.23720132972391        1.16630909158653        0.08434468864950
N            2.29877796055224        0.07527476373246        0.03981602671198
C            2.58028186251803       -1.21425391179017        0.03006175752192
N            1.43813944744728       -1.93419254010258        0.00098261751768
C            0.39035684826767       -1.05887462812143       -0.00790371763344
C            0.93510047688824        0.21347817468824        0.01709077332874
C            0.09450143016486        1.40504290868848       -0.00410946993748
O            0.49712746915594        2.54126690785742       -0.00342325656480
N           -1.25076628431515        1.06271869620815       -0.03085477937476
C           -2.21907191394203        2.15522079838987       -0.05001256521996
C           -1.81739470187490       -0.20012724136556       -0.04692818139228
O           -2.99983858926755       -0.37846413507442       -0.07008877579474
N           -0.92618577614240       -1.30210203518959       -0.03682761236648
C           -1.46982251276835       -2.64643077634382       -0.06029819901142
H            3.71247229913541        1.21471443890471        1.06488839270555
H            4.00791460421487        1.03430799217987       -0.67357688121503
H            2.69909982127087        2.09770098766290       -0.09130154035862
H            3.56654087521359       -1.63682977417947        0.04233139674524
H           -1.67107945562430        3.09322822573871       -0.02552706696334
H           -2.82428927394145        2.09428605349656       -0.95318074103337
H           -2.87644002486466        2.07745706351925        0.81450059976605
H           -1.17061985538665       -3.19584861009707        0.83242224714061
H           -1.14560246782873       -3.17511580834413       -0.95688266944647
H           -2.55549768731684       -2.55659960601237       -0.07459039105944
H            1.38130842369251       -2.94313824728853       -0.01389874052104
25
 energy: -5.963185763776 xtb: 6.6.1 (8d0f1dd)
C            3.33418440735344        1.15241531854873        0.09626561994308
N            2.33638986140335        0.12162308033037        0.03824531969678
C            2.60725963467826       -1.23765131666403        0.03278913300435
N            1.41468389102570       -1.92183330100238       -0.00032784813699
C            0.40204345526017       -1.03456006777931       -0.00929331276385
C            0.93316193389467        0.25280366325096        0.01456149118778
C            0.09981891000992        1.39681354538623       -0.00790768334862
O            0.45928048050502        2.57688747563698       -0.00550739189593
N           -1.28401180740177        1.04728528450634       -0.03278516003884
C           -2.24734226808390        2.13570099819226       -0.05214864793938
C           -1.82851407031494       -0.19857588717121       -0.04842740428687
O           -3.02645629743680       -0.39287603468058       -0.07110310462568
N           -0.93962948478239       -1.28769280019983       -0.03774770711215
C           -1.47484553736515       -2.63005998760956       -0.05837424939042
H            3.83616803473261        1.19628187237149        1.06755359183264
H            4.10404806345777        1.02556340659691       -0.67131703577253
H            2.82158173865813        2.09032459012917       -0.05811813056702
H            3.57438261779458       -1.67549024840434        0.03951550589770
H           -1.69537034100093        3.07026231818816       -0.02941361202269
H           -2.85472517627193        2.07768364641741       -0.95562409626505
H           -2.90556350922778        2.06299760872848        0.81356757699085
H           -1.17364333692404       -3.18219302936093        0.83451346090473
H           -1.14891004457588       -3.16532382810197       -0.95258617685855
H           -2.56207894743193       -2.54030411629424       -0.07309219817266
H            1.35167371631795       -2.92707017278975       -0.01547415821691
25
 energy: -3.520749206714 xtb: 6.6.1 (8d0f1dd)
C            3.42712628575324        1.13310924108964        0.10447069314872
N            2.36545534415225        0.15023933639164        0.04499655905541
C            2.60143659566267       -1.22069937460003        0.04211779673075
N            1.40442630532820       -1.89969464400152        0.00094901476562
C            0.40047185426660       -1.00461830913853       -0.00943624844025
C            0.94152836549129        0.28513813852841        0.01562110572655
C            0.08116941953967        1.41202013591780       -0.01044376745324
O            0.42180396280254        2.59691519799299       -0.00817037675591
N           -1.30252237790061        1.04499361304956       -0.03477432678754
C           -2.27578538756699        2.12361492534744       -0.05402671154434
C           -1.84381456525849       -0.20066553718769       -0.05028299836938
O           -3.04083011879906       -0.40164949181208       -0.07286416014720
N           -0.94355501427706       -1.27464608167881       -0.03911939030907
C           -1.47623498738610       -2.61977993439932       -0.05722423500980
H            3.95515840487687        1.16376587333416        1.06293847038379
H            4.19250079224877        1.00523466174992       -0.67238012436078
H            2.95549091748855        2.09228522332356       -0.01712087133335
H            3.55477254057611       -1.69500646053306        0.03459123850099
H           -1.72826366054034        3.05814801177377       -0.03339793476671
H           -2.88579994295712        2.06312279284040       -0.95601223037021
H           -2.93378127913071        2.05003037211657        0.81218584256272
H           -1.17850763388056       -3.17282511926051        0.83627176620411
H           -1.15490097000526       -3.16040353274727       -0.94968462471840
H           -2.56493027797479       -2.53003732906238       -0.07218578523096
H            1.33023451488482       -2.90696559916003       -0.01408454125579
25
 energy: 0.946427949575 xtb: 6.6.1 (8d0f1dd)
C            3.51964191391122        1.11178280752791        0.11279995244336
N            2.39500436145553        0.17907454631141        0.04982901903934
C            2.59258343687631       -1.19999449676755        0.04482588091039
N            1.39576294799585       -1.87646880247051        0.00012518856899
C            0.39857650143124       -0.97570549091293       -0.00987556317107
C            0.94817367499670        0.31731400207833        0.01655026436115
C            0.06161197113089        1.42629526279993       -0.01350621118831
O            0.38122363889461        2.61554335494760       -0.01113319876068
N           -1.32187838848624        1.04253162390322       -0.03723892807817
C           -2.30453014310923        2.11170277113507       -0.05656199487600
C           -1.85871368235029       -0.20384487284166       -0.05230356611841
O           -3.05455831097486       -0.41278005785694       -0.07424143625114
N           -0.94754097383047       -1.26282046235723       -0.04047596405759
C           -1.48093144555798       -2.61002100281791       -0.05485345359433
H            4.07195894615513        1.12063845517111        1.05745409502305
H            4.28082373860373        0.99541101610906       -0.67617499152156
H            3.08218998403351        2.08637014800051        0.03437056129645
H            3.53747209234624       -1.68908658408393        0.01754920890695
H           -1.76434582753954        3.04859915624866       -0.03884611332893
H           -2.91601864092910        2.04651316212862       -0.95741277226017
H           -2.96121627900439        2.03573444651052        0.81068454337167
H           -1.18884062435448       -3.16556491835875        0.83958306709673
H           -1.16584553072738       -3.15823717868211       -0.94586109639114
H           -2.57110214753013       -2.51477349817122       -0.06999430670895
H            1.31243649361575       -2.88599742711331       -0.01504127333484
25
 energy: 7.387220682233 xtb: 6.6.1 (8d0f1dd)
C            3.61316905516221        1.08897427486516        0.11808053296476
N            2.42877895756879        0.20265913654625        0.04488972279419
C            2.58478065660753       -1.17963249410800        0.04390130144467
N            1.38809462670848       -1.85284363781228        0.00004440650985
C            0.39591999852683       -0.94737388631897       -0.01004668319013
C            0.95360591862698        0.34931899282354        0.01652433173728
C            0.04209140854066        1.44127464400718       -0.01612486986726
O            0.33983588355934        2.63418845298773       -0.01349424246626
N           -1.34179212981813        1.04036822693818       -0.03974311284498
C           -2.33350779158043        2.10061811272896       -0.05949934289379
C           -1.87346154958633       -0.20773793992159       -0.05459885943528
O           -3.06774322967281       -0.42585836377916       -0.07676636041418
N           -0.95264459669892       -1.25282206881249       -0.04156632244882
C           -1.48622001497553       -2.60335221374939       -0.05199431071336
H            4.18808633733654        1.07640508435760        1.04915177372505
H            4.37083774234184        0.98691770723520       -0.68202564896447
H            3.21190567825319        2.07740389150974        0.08235931134530
H            3.52696284978052       -1.67000896713691        0.01068509552960
H           -1.79880192111007        3.03841315570304       -0.04544289245344
H           -2.94675679234354        2.03140968125433       -0.95885440075590
H           -2.98921208099986        2.02314324762759        0.80847982027336
H           -1.19841483389573       -3.16140279314513        0.84259267723916
H           -1.17514858647552       -3.15780035241419       -0.94164964257580
H           -2.57809663138700       -2.50725714173594       -0.06680805285698
H            1.29482229063905       -2.86399147464207       -0.01533923166627
25
 energy: 15.750144044538 xtb: 6.6.1 (8d0f1dd)
C            3.70637526295828        1.05933329563536        0.11940906025381
N            2.45879917129281        0.22042438021821        0.00360237361364
C            2.57704708923943       -1.16080480375567        0.03098967767682
N            1.38009301365049       -1.82975712363701       -0.00123458580141
C            0.39153567021090       -0.92046664759696       -0.01117873696044
C            0.95539346169866        0.38025173419148        0.01159752428813
C            0.02364337222227        1.45787086153732       -0.01943933056744
O            0.29909468502390        2.65335762630120       -0.01607502005302
N           -1.36195077358592        1.03840619491323       -0.04257878391883
C           -2.36291425049972        2.08987722948422       -0.06281035958460
C           -1.88824336978666       -0.21210060083117       -0.05683886131162
O           -3.08079501681451       -0.43989215607496       -0.07898717299238
N           -0.95866139861888       -1.24421483357712       -0.04083453601445
C           -1.48941396244318       -2.60027434920067       -0.04644335955383
H            4.29836327850943        1.02771192226135        1.04069601231199
H            4.46576816013178        0.97739812586772       -0.68505099752142
H            3.33710458650548        2.05395463717971        0.11685851794174
H            3.51691355497202       -1.65210267276209        0.00258909044357
H           -1.83384186749358        3.02885948646341       -0.05331168060910
H           -2.97865781075393        2.01712315545171       -0.96034571746200
H           -3.01773546284368        2.01219364302411        0.80622389174676
H           -1.20477474988369       -3.15811412568750        0.84813402514030
H           -1.18301352749198       -3.15807742489910       -0.93637248041155
H           -2.58245012244625       -2.51165088370992       -0.05913932430870
H            1.27701734905039       -2.84181119993625       -0.01660348887505
25
 energy: 25.677484357267 xtb: 6.6.1 (8d0f1dd)
C            3.79392406929654        1.02425830396592        0.11863718630040
N            2.46396253569955        0.23581493997045       -0.04074531155028
C            2.56346889247215       -1.14142127431153        0.01341424171786
N            1.36929779957764       -1.80942868246685       -0.00228690647724
C            0.38107315195187       -0.89906313401018       -0.01298232603957
C            0.94417853524120        0.40534581037962        0.00290221051333
C            0.00282181428389        1.47483410044620       -0.02099894842112
O            0.25946553380332        2.67139431201554       -0.01671286735688
N           -1.38385512983428        1.03717126059551       -0.04507912061909
C           -2.39280709711883        2.08043286110822       -0.06644346387672
C           -1.90426907614985       -0.21602854654523       -0.05874137212950
O           -3.09470783216092       -0.45404506874023       -0.08217563515118
N           -0.96769283205787       -1.23691957352712       -0.03707141991996
C           -1.49387084604060       -2.59660586485827       -0.04087514619761
H            4.40513516766218        0.97604333019028        1.02932447028296
H            4.55483580976187        0.96293967372968       -0.68940205054512
H            3.46125272267014        2.02487484529789        0.14631711729802
H            3.50358262356276       -1.62973368586748       -0.00301409399313
H           -1.86995090201014        3.02143151799286       -0.06068552003984
H           -3.00968052708736        2.00453413185852       -0.96289196955506
H           -3.04701305159628        2.00316190363937        0.80339807129826
H           -1.21348825797228       -3.15550117091730        0.85346991884755
H           -1.19253894973283       -3.15785175580557       -0.93159076904563
H           -2.58796688383859       -2.51736600042360       -0.05242712159251
H            1.26039166185034       -2.82216521508672       -0.01580746473815
25
 energy: 38.157909237126 xtb: 6.6.1 (8d0f1dd)
C            3.89919148129535        0.99842982959024        0.13311417020527
N            2.44097953655528        0.24337445965917       -0.10517459841116
C            2.54485839809085       -1.11998433597091       -0.00790656605445
N            1.35537077917468       -1.79308274012295       -0.00790451607482
C            0.36333877329194       -0.88325538120404       -0.01670513791491
C            0.92519149855357        0.42401060658172       -0.00753215110462
C           -0.01956096293041        1.49084620882932       -0.02505547809617
O            0.22056584539002        2.68589340864350       -0.02758972095773
N           -1.40805841542180        1.03591586588266       -0.05072622770214
C           -2.42379855734599        2.07231773313857       -0.07046759554566
C           -1.92221126687722       -0.21830883194763       -0.05997658685036
O           -3.10912867706692       -0.46933507711263       -0.08383390751438
N           -0.97995959528325       -1.23358732647861       -0.02909646673315
C           -1.49826857636416       -2.59727473778129       -0.03186917645048
H            4.51421780622588        0.90926445017742        1.02793108178671
H            4.63845630103227        0.93552804532519       -0.68669944235329
H            3.58903197086328        1.99437358960230        0.19264691404601
H            3.48591148613939       -1.60779754361906       -0.00245042263107
H           -1.91131374123215        3.01783915148995       -0.07055426006781
H           -3.04617780854945        1.99198180638354       -0.96255090255378
H           -3.07359702116422        1.99456705752027        0.80322357448444
H           -1.21660910414614       -3.15088539540301        0.86366378322504
H           -1.19478471626320       -3.15576858763640       -0.92365656823830
H           -2.59266362243245       -2.52597433705182       -0.04416157901209
H            1.24382178424063       -2.80735226673395       -0.02218708623379
25
 energy: 44.172544743455 xtb: 6.6.1 (8d0f1dd)
C            4.22738142309329        1.00053603847800        0.15054626314523
N            2.26044597399320        0.22317353710293       -0.12972355067984
C            2.48003088369360       -1.05242793237638       -0.03048456769464
N            1.33133659163421       -1.79070663338361        0.00149418869614
C            0.31024485526564       -0.89321237098113       -0.01398877473041
C            0.85863975902595        0.38857879498207       -0.03678510337922
C           -0.07864867967569        1.49771335880632       -0.02962174974633
O            0.17740216503019        2.67500193968166       -0.01914607885743
N           -1.43435091403483        1.03783487121631       -0.04967320468493
C           -2.45898528306807        2.06599607468155       -0.07258215502855
C           -1.94747285610673       -0.23200725704128       -0.06128297172027
O           -3.13209438704847       -0.47926894700236       -0.08885465872103
N           -1.01370982033444       -1.24494717852620       -0.02396463038226
C           -1.51657157905859       -2.61071866421875       -0.03078145039684
H            4.73379700253248        0.89152337798675        1.06540866391082
H            4.85294270241283        0.92673424651123       -0.70799137377611
H            3.65915020959000        1.86344359422934        0.19413188210415
H            3.44080208595740       -1.53268391036171       -0.00905358837913
H           -1.95155562243478        3.01555850729182       -0.07377723984161
H           -3.07601300156574        1.97968263314878       -0.96661889404334
H           -3.10888959835086        1.98545503304123        0.79917707221341
H           -1.22469696190643       -3.15069796736812        0.86734182878290
H           -1.19740498290859       -3.15363789033459       -0.92266055260658
H           -2.60837249938455       -2.54855232756205       -0.04861408016817
H            1.22518682904024       -2.80059723879629       -0.01264355036785
25
 energy: 43.669327456868 xtb: 6.6.1 (8d0f1dd)
C            4.35722651626378        0.95313396181826        0.15551608271407
N            2.21990729814403        0.24242918348831       -0.15448525449638
C            2.45946040429004       -1.02403276697888       -0.04296164204036
N            1.31851599145271       -1.77378854043859       -0.00112828324350
C            0.28760045831696       -0.88658894458142       -0.01610703973603
C            0.82590585899173        0.39440980205852       -0.05142153244996
C           -0.11132079045699        1.50497429601978       -0.03330453426929
O            0.13841268840105        2.68201007920463       -0.02219675534484
N           -1.46153440856997        1.03680347726892       -0.05100164026142
C           -2.49133363494275        2.05975296218885       -0.07511443102967
C           -1.96721962412063       -0.23797292156666       -0.06184369461760
O           -3.14986367629284       -0.49357237303278       -0.09165244296266
N           -1.03118317187358       -1.24736705440966       -0.01814857617749
C           -1.52247001288374       -2.61657642494907       -0.02590704758025
H            4.84963148916907        0.82948490197656        1.07150296425633
H            4.97076832786903        0.91263489708512       -0.70687057562126
H            3.68436682385189        1.72717269785634        0.19841456901484
H            3.42307650922628       -1.50002002159292       -0.01111707987576
H           -1.99223703561446        3.01487611778012       -0.07895492011035
H           -3.10916473736092        1.96742432592569       -0.96788318855480
H           -3.13987954953079        1.97719795932779        0.79736564977308
H           -1.22326771937601       -3.14483082871495        0.87514831254446
H           -1.19604500684076       -3.15427289193081       -0.91617741064576
H           -2.61366732356848       -2.56289713458900       -0.04666848842570
H            1.21423213868736       -2.78303409283808       -0.01512270422182
25
 energy: 42.707987108374 xtb: 6.6.1 (8d0f1dd)
C            4.48405860924501        0.93599399801918        0.16520510642239
N            2.18059950215845        0.26547754471580       -0.19746381653238
C            2.43895106679934       -0.99395793157951       -0.05959248192153
N            1.30678372306719       -1.75547940981053       -0.00211151561790
C            0.26439805728333       -0.88246826016734       -0.01720904651762
C            0.79130059831433        0.39914388113030       -0.06678081259704
C           -0.14437110168615        1.50930437330704       -0.03744570237077
O            0.09945513095446        2.68696085850639       -0.02349826765421
N           -1.49054397797334        1.03549617202154       -0.05262997775687
C           -2.52344715485526        2.05514877376069       -0.07721919143455
C           -1.98748957221222       -0.24320791653562       -0.06183141824732
O           -3.16770859577388       -0.50998501224861       -0.09400312533248
N           -1.04905867593960       -1.25095670147419       -0.00964766996153
C           -1.52880661237511       -2.62338583272033       -0.02275095002420
H            4.97090259175568        0.80318917475991        1.08063459811266
H            5.08547776931811        0.91920650087351       -0.70283316341045
H            3.66246207900466        1.55293935023743        0.18253542470868
H            3.40249719982602       -1.46956834605725       -0.00770899612387
H           -2.03254803673816        3.01742491943061       -0.08198300743131
H           -3.14163237389209        1.95626863740269       -0.96898786544013
H           -3.17097504615032        1.96859304232993        0.79565688476129
H           -1.22599956610296       -3.14580355355692        0.88172262855750
H           -1.18743246169197       -3.15372519489328       -0.91308744682984
H           -2.61965068942219       -2.57746168485718       -0.04765680957775
H            1.21497704966778       -2.76478053285928       -0.01373431055002
25
 energy: 41.097871771914 xtb: 6.6.1 (8d0f1dd)
C            4.59978175852631        0.93656008539799        0.17907701551963
N            2.14359706503700        0.28889912532156       -0.23530992323045
C            2.41895010659314       -0.96525665445699       -0.07494762712867
N            1.29590820540638       -1.73681486203055       -0.00421100248703
C            0.24126013035864       -0.87998268747981       -0.01729183722764
C            0.75773540801059        0.40297826057603       -0.07954535825553
C           -0.17616224873752        1.51265389768250       -0.03936598048098
O            0.06291169774277        2.69084886212287       -0.02391770628164
N           -1.51745039603974        1.03615091431693       -0.05409364968558
C           -2.55461813486982        2.05168608302066       -0.07905752595755
C           -2.00768580563320       -0.24552142467595       -0.06161597261289
O           -3.18741183511334       -0.51502318780347       -0.09569296100306
N           -1.06793676921666       -1.25457440012417       -0.00054324814753
C           -1.53909123525067       -2.62972660596913       -0.02068031659930
H            5.09799231168789        0.81869266186452        1.09079024957381
H            5.18964506661239        0.94184516927606       -0.69753360974559
H            3.65844248332438        1.36247803973474        0.18133079989771
H            3.38177539877449       -1.44094773133967       -0.00243719886196
H           -2.07184656581397        3.02018596260913       -0.08494791992845
H           -3.17292558393313        1.94406809095788       -0.96950178588516
H           -3.20030280065188        1.95796334052913        0.79426837091577
H           -1.22318640795456       -3.15423460302227        0.88009846308723
H           -1.19548665096385       -3.15297167874673       -0.91518169230563
H           -2.63020890629220       -2.59047647353565       -0.04676209861745
H            1.22171736760162       -2.74630912868593       -0.01117672061929
25
 energy: 39.354903309769 xtb: 6.6.1 (8d0f1dd)
C            4.69002281858050        0.94003462084696        0.19225186961921
N            2.10535886104489        0.30528564438916       -0.26422395672453
C            2.39478120269290       -0.94586235388927       -0.08861344041920
N            1.27735964953976       -1.72568051743921       -0.00670540443009
C            0.21641882122190       -0.87777653280413       -0.01888421725542
C            0.72373666726738        0.40747143976456       -0.09065600023198
C           -0.20609162954827        1.52220170076887       -0.03740835938307
O            0.02885000963157        2.70374738160294       -0.02104979889129
N           -1.54276660116463        1.03991477502517       -0.05444373312791
C           -2.58646696598197        2.04797210653170       -0.08082281874908
C           -2.02764455854947       -0.24722350489468       -0.06153203788802
O           -3.20667856003722       -0.52095216702312       -0.09755521471401
N           -1.08777035340878       -1.25841340889006        0.00679523274802
C           -1.55074297877818       -2.63652359760356       -0.01912065112401
H            5.20791569493169        0.86216821454074        1.10280376522909
H            5.28385328783971        0.97409158297219       -0.68722155348624
H            3.66723357099658        1.17673996619487        0.17092619905881
H            3.36149115466840       -1.41451003035022        0.00100173173725
H           -2.11155168218580        3.02111252277836       -0.08798859362338
H           -3.20290504175026        1.92961845297513       -0.97084524101403
H           -3.23067817043419        1.94555883670202        0.79212151520700
H           -1.22674104247543       -3.16341989541418        0.87775982102632
H           -1.20632354002841       -3.15859170249724       -0.91462838961309
H           -2.64166602778043       -2.60367406857356       -0.04440651695903
H            1.21371330463518       -2.73203464860701       -0.00396583038010
25
 energy: 38.322551577439 xtb: 6.6.1 (8d0f1dd)
C            4.73835904407018        0.95117614714808        0.20283827037660
N            2.06941119238209        0.31701635548211       -0.26713810353206
C            2.37370084611058       -0.93232390566111       -0.09264526159521
N            1.26425462718498       -1.72127858693632       -0.00090172634464
C            0.19517976670779       -0.88040740866482       -0.01679911748615
C            0.69059216827539        0.40821591234756       -0.09436336735244
C           -0.23705900142200        1.52601091082748       -0.03544448753342
O           -0.00818491294364        2.70993215927469       -0.02065769850762
N           -1.56927798106346        1.03810478728045       -0.05597928434038
C           -2.61711068318855        2.04030304662632       -0.08323139591372
C           -2.04765370861448       -0.25251777220249       -0.06100758955083
O           -3.22579884053965       -0.53113019191025       -0.09811488328881
N           -1.10631438221346       -1.26440446693985        0.01129218566444
C           -1.56117840620326       -2.64449147005389       -0.01864675630911
H            5.28101013812888        0.92940546878196        1.11700751307319
H            5.36385008417092        1.00305204318901       -0.66824300698240
H            3.66015531617528        1.11377462155482        0.13543565316522
H            3.34987994185840       -1.38459766730853       -0.00582007611213
H           -2.15137200175569        3.01943248814505       -0.09198565432544
H           -3.23252441235835        1.91255967623202       -0.97211400005091
H           -3.25846027993626        1.93068283220548        0.79036499245809
H           -1.23225324892387       -3.17288373419515        0.87579945051686
H           -1.21449004405829       -3.16361790086754       -0.91556649047938
H           -2.65164180452212       -2.61670818308021       -0.04299164624164
H            1.21225395358001       -2.72336445800339        0.00525809745572
25
 energy: 38.598060526234 xtb: 6.6.1 (8d0f1dd)
C            4.78589361339463        0.97968851921033        0.22228070589178
N            2.03581938878696        0.32230652406326       -0.24695809550045
C            2.35272513690706       -0.92785088792515       -0.08978501981496
N            1.25214457022555       -1.72586834222587        0.01487914196808
C            0.17690794314999       -0.89229244380540       -0.00942665627443
C            0.65871489350766        0.40200930315159       -0.09396148677898
C           -0.26648865674970        1.52331497983877       -0.03072261389836
O           -0.04310747545918        2.70846494757310       -0.01568732790607
N           -1.59497694767712        1.03456544542412       -0.05705077423836
C           -2.64675514975878        2.03091464311407       -0.08614383605888
C           -2.06714000738412       -0.25925861962618       -0.06168961741359
O           -3.24495188413150       -0.54070956048822       -0.10343481909762
N           -1.12506926529100       -1.27228875502820        0.01438346915159
C           -1.57280415307118       -2.65296540648783       -0.02106010318104
H            5.34494378005040        1.00104709366832        1.13877424989222
H            5.43757665525806        1.04065284285461       -0.63916104231248
H            3.65837851098344        1.11597655897574        0.11288571862592
H            3.33868982014635       -1.35948794078572       -0.01012937250121
H           -2.19148303875730        3.01670820647495       -0.09661287095728
H           -3.26075799621207        1.89297096128819       -0.97404729895645
H           -3.28563561456418        1.91510893486514        0.78805781595504
H           -1.24195303260587       -3.18200715295339        0.87296226803525
H           -1.21963869716852       -3.16788857307749       -0.91856458784000
H           -2.66242197217006       -2.62964202777090       -0.04752561604271
H            1.22211322526648       -2.72860860048133        0.02112711796620
25