72
 energy: -99.399937279259 gnorm: 0.500995274277 xtb: 6.6.1 (8d0f1dd)
N           -1.56707111203774        1.38408831251890        2.13299335247571
C           -1.54856675234216        1.24637505126101        0.80358964102993
C           -2.73271887136490        1.25145764428948       -0.09729099596608
C           -3.62403654694843        0.02227278452569        0.09543624013471
C           -4.69343982631035       -0.16182874188185       -0.78411857121137
C           -5.53626866823645       -1.25517334228309       -0.68312781380920
O           -6.59702369257058       -1.49618617751189       -1.47870195051678
C           -6.93801955781539       -0.56082405877301       -2.47420980596483
C           -5.30328485132786       -2.22632566001822        0.32834255067394
O           -6.15912747613468       -3.26587386818857        0.34361498120811
C           -5.99753024534508       -4.27144028237803        1.31722453142032
C           -4.24482975555793       -2.03308198593554        1.19968479095193
C           -3.41944563337168       -0.92117045000272        1.08650571246981
C           -2.07162963279031        1.17409648554660       -1.50090660594841
C           -0.73116936094186        0.47973950434100       -1.27714770929050
C           -0.25561518641681        1.06910473393764        0.06776053060751
N            0.72178884769973        0.35593631168297        0.86146849835604
C            2.10508631549418        0.72304263297851        0.66268891696915
C            2.68358495721765        0.43606752162842       -0.74228222351807
C            4.18003861041535        0.50178994616570       -0.69455461063847
C            4.85266184282816        1.69393651628180       -0.91562897920676
C            6.23330311842787        1.76019923001639       -0.81338247625408
C            6.97282922769841        0.63262596360333       -0.48334981146903
O            8.31152091922218        0.58229953008987       -0.34639140333506
C            9.06526614257925        1.75966581278865       -0.51988444301501
C            6.29320964245932       -0.59768826128779       -0.26308922857139
O            7.08577132758286       -1.64557851364144        0.04189508341643
C            6.50360237117971       -2.90977257057742        0.25144192667547
C            4.91220353245191       -0.63760218399878       -0.36766059838722
C            0.50003610010216       -1.06512790292617        1.01971220218709
C           -3.59573428244428        2.55006631130554        0.05454231955552
C           -4.54857660243507        2.51817403260089        1.25034980487452
C           -2.73888266168083        3.81300511427234        0.13137757281711
H           -4.87365907763459        0.57006179439492       -1.55381344063284
H           -7.14924703947674        0.42291314510790       -2.04399354147352
H           -7.83958500979182       -0.94918792724381       -2.94300376308191
H           -6.14981716189014       -0.47006754241710       -3.22873846324495
H           -6.11889379388974       -3.87218890505649        2.32879105193221
H           -6.78331755129710       -4.99834799293070        1.11964006676034
H           -5.02198810062942       -4.76042868961568        1.23118282083076
H           -4.04783524525677       -2.74574037386345        1.98380503484064
H           -2.61602139551008       -0.82123423627172        1.79804117635444
H           -2.68864047953330        0.62903325739255       -2.21078994612397
H           -1.90704381881326        2.17667236805115       -1.89392258711945
H           -0.88302817790119       -0.59442368339950       -1.17721472118515
H           -0.03002812064820        0.66103872079663       -2.08796768812032
H           -0.87793034629646        1.36526765125063        2.55974033811215
H            0.16497380184279        2.06823397532363       -0.12251727624962
H            2.69195273606252        0.17240440307604        1.40161396795092
H            2.21349350232594        1.78949211799012        0.87987197585172
H            2.29814265308397        1.16731546313005       -1.45371840190606
H            2.36849040797190       -0.55855794006470       -1.06079265418801
H            4.30020255940406        2.58393617042932       -1.17627704842005
H            6.72814632361513        2.70024298066158       -0.99503357382961
H            8.76708820532796        2.53388681509993        0.19360752707986
H            8.97494273494049        2.14703322950030       -1.53949486926244
H           10.09910927316034        1.47457878271759       -0.33240321654807
H            7.33266134891483       -3.58221572151712        0.46448546585572
H            5.81789080523176       -2.89989731450267        1.10516364474538
H            5.97346249914393       -3.25979801808142       -0.63999485651232
H            4.38577078241420       -1.56449854530706       -0.20111409429529
H            0.83966027726250       -1.65872019524171        0.16265871121984
H           -0.56014887654447       -1.25640713060996        1.16606198873078
H            1.04178945942377       -1.40336180312126        1.90326370250578
H           -4.20272825886817        2.60839875120095       -0.85360448255388
H           -4.02471637263460        2.70247969646350        2.18605217723609
H           -5.07642145597557        1.57055694674991        1.31989620230374
H           -5.28810914938602        3.30794289765477        1.13818885448056
H           -2.15763712287038        3.83916224164888        1.05133881659550
H           -2.05478131028394        3.89647614955351       -0.71009464518272
H           -3.38704974694976        4.68664436622128        0.11850582734447
H           -2.47056640033476        1.47917417687296        2.57694333307232
72
 energy: -99.450670529335 gnorm: 0.017109321733 xtb: 6.6.1 (8d0f1dd)
N           -1.60950561182989        1.38613381995314        2.11022368309931
C           -1.56187751423791        1.24612467982470        0.79115883763021
C           -2.73904333703500        1.25109298797212       -0.10640797998444
C           -3.62575683907375        0.02148393601200        0.09377262635226
C           -4.69474228876173       -0.16243882568682       -0.78479380827106
C           -5.53688736097533       -1.25560572157404       -0.68327680119375
O           -6.59758288368919       -1.49635515978672       -1.47878419963356
C           -6.93812265899773       -0.56092234730641       -2.47447025821803
C           -5.30349349421245       -2.22654244722901        0.32828532082307
O           -6.15923957928706       -3.26593077675389        0.34376344045600
C           -5.99759286292106       -4.27148214189118        1.31721138850216
C           -4.24498821536711       -2.03310251949531        1.19947862509854
C           -3.41979525952611       -0.92106473952262        1.08577490662493
C           -2.07168527748734        1.17361712205334       -1.50454188118712
C           -0.73135888406804        0.47965801897315       -1.27775793945466
C           -0.25878547038424        1.06907299645254        0.06808996629727
N            0.71984607380034        0.35644837446287        0.86168587014243
C            2.10392042160824        0.72302701859146        0.66274993526059
C            2.68340224950976        0.43607134355765       -0.74202659994744
C            4.18002585533497        0.50178919725836       -0.69433280690294
C            4.85270101644552        1.69386219026026       -0.91550493352314
C            6.23333798736337        1.76013806844349       -0.81325940282679
C            6.97287809487486        0.63268404950799       -0.48336551272691
O            8.31152555714531        0.58240844337801       -0.34625676486331
C            9.06529757537883        1.75966539748941       -0.52002631027981
C            6.29326194433069       -0.59761948732988       -0.26300144199144
O            7.08573426904265       -1.64544283415499        0.04181301517673
C            6.50365727777071       -2.90965078257076        0.25144680877741
C            4.91228666645190       -0.63751198004949       -0.36755115808415
C            0.49956931426718       -1.06487198190670        1.01971612686102
C           -3.59728236378224        2.55065801775112        0.05297087070788
C           -4.54867859685629        2.51829977434012        1.24994250335164
C           -2.73905436281640        3.81282119472678        0.13115034243255
H           -4.87457232231285        0.56973644446399       -1.55424938448501
H           -7.14957796758920        0.42294680415404       -2.04428872936734
H           -7.83968743657430       -0.94948025614333       -2.94342735616705
H           -6.14981880025022       -0.47025806367886       -3.22866610358189
H           -6.11881711405662       -3.87227596759459        2.32883909466209
H           -6.78337064125650       -4.99808225885632        1.11978544373991
H           -5.02225953408569       -4.76044804404358        1.23098647248488
H           -4.04775809503818       -2.74571111368253        1.98362479314674
H           -2.61623014097214       -0.82084864111559        1.79729774240906
H           -2.68865799274370        0.62844789380496       -2.21330969580609
H           -1.90701595786157        2.17673784966848       -1.89538003236694
H           -0.88302311673214       -0.59449431975585       -1.17748982956631
H           -0.02952861441410        0.66105646712873       -2.08797803221157
H           -0.76408167231272        1.36301026182298        2.63566007307772
H            0.16318915021468        2.06787888402761       -0.12198264989813
H            2.69127705969277        0.17233500867642        1.40147976440449
H            2.21319750129755        1.78941580398943        0.87998290618933
H            2.29816483519325        1.16723570951570       -1.45359346007540
H            2.36856676606284       -0.55855213856473       -1.06078639343539
H            4.30038269006591        2.58388371048021       -1.17608533705994
H            6.72813994740602        2.70019275722793       -0.99489347499974
H            8.76734782721167        2.53402794062051        0.19340742900870
H            8.97480189895740        2.14699508776595       -1.53945143346491
H           10.09897567138301        1.47465891480259       -0.33280730441677
H            7.33264992299995       -3.58197434129187        0.46438795127609
H            5.81813497052468       -2.89987775440956        1.10509988831273
H            5.97350913556630       -3.25974767768887       -0.63985524605822
H            4.38584697147226       -1.56441718364468       -0.20103366225969
H            0.83942722828037       -1.65847330640187        0.16273264537285
H           -0.56052404259631       -1.25644202629429        1.16619964194729
H            1.04169916246118       -1.40321871052712        1.90307722044356
H           -4.20422030387320        2.60956292268532       -0.85440200071132
H           -4.02456444978573        2.70235559536562        2.18565709917696
H           -5.07651018587815        1.57095587873012        1.31967417529599
H           -5.28791192724781        3.30804541850848        1.13843446491676
H           -2.15778023482852        3.83912073696233        1.05044836647934
H           -2.05552738053464        3.89658441048645       -0.70971192874403
H           -3.38637046386815        4.68635360172484        0.11875127485722
H           -2.50295818899689        1.48038833780417        2.56125398156264
72
 energy: -99.450959646679 gnorm: 0.009815769626 xtb: 6.6.1 (8d0f1dd)
N           -1.59405719126512        1.38532303729916        2.11876158408375
C           -1.55453514039258        1.24637621254001        0.79918142517409
C           -2.73573848528299        1.25100808206110       -0.10198731019585
C           -3.62634965221970        0.02175133310110        0.09271303634821
C           -4.69625870921607       -0.16213334697986       -0.78600730050756
C           -5.53901849432192       -1.25518395237613       -0.68431344206964
O           -6.59994508122475       -1.49619168954954       -1.47973988386654
C           -6.93966405638050       -0.56193815421864       -2.47683717101679
C           -5.30560320826436       -2.22618189664682        0.32702376573373
O           -6.16168646726090       -3.26529685206847        0.34343710584573
C           -5.99896022028994       -4.27096007926801        1.31659147030007
C           -4.24659656657964       -2.03316040499678        1.19738740810494
C           -3.42095530885565       -0.92150292005871        1.08374200387070
C           -2.07441606327247        1.17256731824103       -1.50487805763901
C           -0.73362772257910        0.47934105970515       -1.27839995665958
C           -0.25849180536421        1.06847593100643        0.06714234630598
N            0.71761116388677        0.35717733361463        0.86338211386025
C            2.10187887183147        0.72331834474531        0.66357121605430
C            2.68276930977053        0.43605720091519       -0.74048738834609
C            4.17964789957620        0.50225229003023       -0.69209655634606
C            4.85223525306562        1.69419998322181       -0.91350434024426
C            6.23297337673218        1.76058741179250       -0.81182933205933
C            6.97278435513913        0.63338585375954       -0.48248753502199
O            8.31167462546201        0.58314361932682       -0.34626644518997
C            9.06527573274229        1.76019241349215       -0.52192343708955
C            6.29339557337320       -0.59683688574217       -0.26204443372597
O            7.08629714483031       -1.64467873613373        0.04175709630185
C            6.50449679109492       -2.90893917232820        0.25140761388366
C            4.91239828449854       -0.63688127627096       -0.36582190949022
C            0.49722448880750       -1.06452115767563        1.02027742509021
C           -3.59782697700297        2.55001384109171        0.05065671060833
C           -4.54976584128087        2.51941923996435        1.24718790229539
C           -2.73983367291779        3.81226438866392        0.12862156807933
H           -4.87661806761418        0.57000889125008       -1.55540530747054
H           -7.15252601340626        0.42229974401916       -2.04800066835813
H           -7.84026245141474       -0.95171250243677       -2.94682051527592
H           -6.15024353966164       -0.47169414404425       -3.22979246661500
H           -6.11816183940177       -3.87198791479903        2.32859971452701
H           -6.78554076328941       -4.99688391198593        1.12056746099445
H           -5.02421224552869       -4.76063274864822        1.22863775467431
H           -4.04881951845404       -2.74605604425413        1.98111765793511
H           -2.61713553877891       -0.82224101669647        1.79503625012937
H           -2.68981944658624        0.62670754722868       -2.21533817015160
H           -1.90907819349731        2.17485492378707       -1.89797868762025
H           -0.88483220956220       -0.59491851732053       -1.17841386974233
H           -0.03244280224318        0.66055360357117       -2.08938462290600
H           -0.74042896485903        1.35665366962038        2.64169484634327
H            0.16103377899680        2.06820544804232       -0.12117264571773
H            2.68839774208590        0.17205028317537        1.40246718417910
H            2.21177627350329        1.78970344299875        0.88081779713459
H            2.29792943779001        1.16696734066099       -1.45249711253716
H            2.36860037952725       -0.55865311733877       -1.05962451967652
H            4.30002873668870        2.58423423799599       -1.17406642359943
H            6.72762645162326        2.70066217119742       -0.99366103705204
H            8.76893556639425        2.53514526407002        0.19156236929089
H            8.97302535258782        2.14705159989731       -1.54128374732995
H           10.09916351894454        1.47512686786615       -0.33657528789298
H            7.33375034089263       -3.58107776497132        0.46349012023747
H            5.81971732763391       -2.89954550073760        1.10556237326201
H            5.97370972181630       -3.25893358041560       -0.63951404547987
H            4.38625965024683       -1.56400879412457       -0.19959464562616
H            0.83688816883937       -1.65746558179366        0.16281018549857
H           -0.56279173130888       -1.25630873581214        1.16730324604979
H            1.03997412127135       -1.40386238589806        1.90286306075782
H           -4.20587877772679        2.61012720913780       -0.85636057103459
H           -4.02698239959592        2.70700174527195        2.18293923742846
H           -5.07743775698657        1.57214889167759        1.31855070359450
H           -5.28904711691871        3.30873220179328        1.13439551333093
H           -2.15770667008806        3.83824344939600        1.04711118426593
H           -2.05732628077423        3.89647302715846       -0.71251466368165
H           -3.38666626044371        4.68581851443890        0.11743260182154
H           -2.48367459054486        1.47890333923769        2.58208729643462
