72
 energy: -103.314060315403 gnorm: 0.067736962770 xtb: 6.6.1 (8d0f1dd)
N           -1.49813346519310        2.79561358568034        2.22102552916018
C           -1.59879732990806        2.18681079289025        1.13911587851235
C           -2.78200387531430        2.08203732408730        0.23838204563472
C           -3.33762992091947        0.66435367785753        0.32108929849394
C           -4.32805891275901        0.25912322284007       -0.57914169352756
C           -4.86536235406547       -1.01236022811823       -0.53796422909260
O           -5.82925985752280       -1.48838193403064       -1.36483100815628
C           -6.42380121637439       -0.61095781235151       -2.29080091940880
C           -4.39850017861047       -1.93364345466990        0.43071880845613
O           -4.97788925553090       -3.16182357716890        0.38997544883133
C           -4.63320801526098       -4.09526209737448        1.38527224656093
C           -3.42296142341222       -1.52525455457426        1.31865857934425
C           -2.89893995618357       -0.24101894706855        1.26563706126610
C           -2.26841781922921        2.31383667228223       -1.20541266692404
C           -1.25820967983356        1.20532149399378       -1.69155333592919
C            0.02802547232826        1.14166902700816       -0.91611270878397
N            0.64171902149589       -0.04361860925869       -0.56223417832194
C            2.01742986663736       -0.04142146430944       -0.15575523000212
C            2.94798215992261       -0.55426743349857       -1.27378964382775
C            4.37768378796632       -0.44776741543199       -0.83761897408269
C            5.09408309502244        0.71579007738861       -1.04313495792081
C            6.40719468294642        0.82624434227247       -0.60259428597300
C            7.02165272325068       -0.22366919784831        0.05951635520595
O            8.29152428088247       -0.22181013479312        0.52670529559475
C            9.09171502618297        0.91544240462081        0.31502570722104
C            6.29346466722702       -1.41582967397864        0.28561478682950
O            6.97095903622801       -2.39241188600228        0.93616346345253
C            6.33925641153084       -3.62691750727717        1.16357986825210
C            4.98592009053891       -1.50748963123342       -0.15915502847242
C           -0.03925460397838       -1.31003483755922       -0.60332538058805
C           -3.90822215843187        3.08486916438144        0.59275407155805
C           -4.50807198224206        2.77201350111227        1.96057459677729
C           -3.44281085276001        4.53842414946827        0.56670625962705
H           -4.69623123237796        0.95852829273244       -1.31710473673587
H           -6.88199553527111        0.25072858377299       -1.79273951615235
H           -7.19849276708352       -1.19227850004768       -2.78785928874210
H           -5.70394652796909       -0.26096834885467       -3.03599554837826
H           -4.84834448507982       -3.71388800081865        2.38943860959660
H           -5.25237333717749       -4.96845081750608        1.18922967877521
H           -3.57904819381947       -4.38001364399940        1.32424217392273
H           -3.05553397488712       -2.20183079599703        2.07435339286053
H           -2.15186040000079        0.04629265488623        1.98833429848425
H           -3.10926973429435        2.40949254732301       -1.88122168363478
H           -1.71535044296343        3.25881267869734       -1.23151351731812
H           -1.78368818840510        0.23656992775740       -1.63341723255769
H           -1.01348627609743        1.38515926455864       -2.72375456606354
H           -0.72856403419673        1.67864312392781        0.64192959032346
H            0.66085321266539        1.98742124543511       -0.97156911297279
H            2.13349976962199       -0.66795205107077        0.73305917181256
H            2.32123069824256        0.97117223001558        0.10226143145599
H            2.78475816848189        0.04228643044617       -2.16377137748596
H            2.69852498248742       -1.59464318385054       -1.49911078569887
H            4.64047783480457        1.54402735175367       -1.56093988230876
H            6.94546514690761        1.74127798914818       -0.79095910592834
H            8.67363610941495        1.79583444299794        0.81024827719883
H            9.22147412089171        1.12382517562462       -0.75278904016530
H           10.05953868411021        0.68118104461383        0.75502587199693
H            7.07855184113549       -4.24959987112280        1.66590202154349
H            5.46431914473620       -3.51741065171156        1.81099728013569
H            6.04313404872180       -4.10755244303261        0.22632397633940
H            4.42392517636964       -2.41433569343831        0.00473058859895
H           -0.20376416470544       -1.64436732682762       -1.62988236202878
H           -1.00581086834141       -1.23723944404223       -0.09770917267518
H            0.56657869740809       -2.05555456633445       -0.08869431569236
H           -4.69079912258088        2.96388634122445       -0.16272633526822
H           -3.75332154294242        2.89628991158541        2.73272400749715
H           -4.87930671320972        1.75022000247280        1.99678360767708
H           -5.33505579714818        3.44902953573067        2.16008063936186
H           -2.64907687060364        4.69246844447562        1.28691683398381
H           -3.10201733262486        4.83259620275538       -0.41894094207475
H           -4.27421035469426        5.18746037782843        0.83619212643626
H           -0.62566924393753        2.82406871713435        2.69883724550175
72
 energy: -103.316032051575 gnorm: 0.028328522844 xtb: 6.6.1 (8d0f1dd)
N           -1.51653528823752        2.82458257827340        2.22368902424791
C           -1.59407286774861        2.18600192122306        1.14798133822091
C           -2.77911045933778        2.07994074268250        0.24138016437965
C           -3.34145189213595        0.66609789068859        0.32326791961158
C           -4.33029625490342        0.25975952013140       -0.57614608723584
C           -4.86507853726321       -1.01316722387555       -0.53628356189278
O           -5.83224368601794       -1.48887753237104       -1.36571763702495
C           -6.42284920764728       -0.61008055418324       -2.29079771004465
C           -4.39957486097620       -1.93422111112078        0.43115816981644
O           -4.97987474503056       -3.16481116679313        0.39182320646832
C           -4.63289469049145       -4.09671610877263        1.38550244893175
C           -3.42513490806193       -1.52751979751843        1.32109232062238
C           -2.90336694806437       -0.24028187633081        1.26855932751012
C           -2.23184274219122        2.31179399668455       -1.19137072625805
C           -1.26549244772416        1.19750194191074       -1.69141605461102
C            0.01736944812155        1.14462159431032       -0.91824983616642
N            0.63728645976806       -0.04252051822169       -0.55942589316434
C            2.01413621139509       -0.04093205973386       -0.16172318618745
C            2.95194402003129       -0.55727373227192       -1.27545391850345
C            4.38087461372324       -0.45056254254027       -0.83978364727941
C            5.09768334973516        0.71304669617416       -1.04478261933502
C            6.40850691909688        0.82535941121795       -0.60242091358397
C            7.02212641882083       -0.22361739596800        0.05986373545600
O            8.29782779231649       -0.22360538146586        0.52873908771983
C            9.09229174958313        0.91595231718006        0.31523846042167
C            6.29418813915007       -1.41529819738198        0.28467298759739
O            6.97465503271373       -2.39432749716325        0.93823256677173
C            6.33847113802169       -3.62630523304546        1.16377259822349
C            4.98897550534987       -1.50801596636227       -0.16152484478725
C           -0.04307028818998       -1.30719610775270       -0.60432800243947
C           -3.91169662231506        3.08392102089266        0.58918346433079
C           -4.51242679556470        2.77155591578898        1.95834673291944
C           -3.44549060827046        4.53801701896626        0.56386872772369
H           -4.69294270745324        0.95709408304781       -1.31480502185420
H           -6.88028851513255        0.25146173215154       -1.79264491316834
H           -7.19800365123344       -1.19022770398354       -2.78903767505350
H           -5.70074797914069       -0.25962441317153       -3.03535336682971
H           -4.84798570302402       -3.71427215263968        2.38892252295957
H           -5.25137771898109       -4.97139106986293        1.19186537552154
H           -3.57691586884790       -4.37927742588517        1.32389756167098
H           -3.05664528631588       -2.20506422264724        2.07540096882019
H           -2.15435447448079        0.04695849879844        1.98972200582218
H           -3.07227023401470        2.38534932244556       -1.87970487799101
H           -1.69904384954918        3.26540066625320       -1.22217521305281
H           -1.78420504364550        0.23636359286937       -1.63640041766972
H           -1.04479401849001        1.40135301766039       -2.74084090324215
H           -0.72313011512758        1.66721470943966        0.66944067814889
H            0.67126034140645        1.99172934510835       -0.99873911356129
H            2.13791613992633       -0.66890112589888        0.72783589659799
H            2.31448615212694        0.97464547247041        0.10026899319199
H            2.78303049938463        0.04383924867008       -2.16731063517175
H            2.69900577247518       -1.59497526632516       -1.50185356891246
H            4.64205840871368        1.54335499934727       -1.56184128192717
H            6.94569408394820        1.74168095212822       -0.78852572429732
H            8.67296235382543        1.79789381995677        0.80984918298568
H            9.22041504049110        1.12437932189913       -0.75256392759880
H           10.06080489581391        0.68306625751896        0.75467237673878
H            7.07710824034004       -4.24943984216414        1.66618581607490
H            5.46142134233604       -3.51630210665370        1.81013375593563
H            6.04136086280726       -4.10603597282719        0.22531984671537
H            4.42492158720520       -2.41333660481727        0.00255630106543
H           -0.20705955905464       -1.64640284825785       -1.63246171701536
H           -1.01085896651941       -1.23899240650716       -0.10030373707616
H            0.56221643474213       -2.05200291770365       -0.08940252016009
H           -4.69682550204685        2.96512942983025       -0.16620729403190
H           -3.75488667883657        2.89658826419065        2.72615835772683
H           -4.88376021012509        1.75014972196830        1.99665610323989
H           -5.33852778901399        3.44882937253867        2.16284667439160
H           -2.64794739013617        4.68678851801256        1.28426880965607
H           -3.09891695005459        4.83205402385299       -0.42247556263610
H           -4.27578964699002        5.18806528559299        0.83450814913182
H           -0.63338928476565        2.82283007792166        2.71519381378303
72
 energy: -103.316841270136 gnorm: 0.015289422346 xtb: 6.6.1 (8d0f1dd)
N           -1.51327982002431        2.81548526731179        2.21580206984648
C           -1.58783443395747        2.17625878957729        1.13593003138740
C           -2.78247250897385        2.07952057552760        0.23558878611389
C           -3.34164718844649        0.66673672476121        0.31675512627091
C           -4.33135973340676        0.26025528469187       -0.57987521338605
C           -4.86331574297627       -1.01345570775688       -0.53827251819859
O           -5.83390342261547       -1.49019972407072       -1.36718670501477
C           -6.42504491997209       -0.61193030737710       -2.29063515975179
C           -4.39729636846303       -1.93268692049046        0.42848468471690
O           -4.97952674729912       -3.16420653820990        0.39142246840181
C           -4.63385339472589       -4.09503049122492        1.38465382307122
C           -3.42179451902653       -1.52710133895362        1.31785903645412
C           -2.89938933328799       -0.23957010922273        1.26152561627356
C           -2.24419047176395        2.30968127806443       -1.20213536953406
C           -1.26841700910531        1.20163037403883       -1.68018331471037
C            0.01146470268145        1.14405652937962       -0.90682998601302
N            0.63898661722050       -0.04392858459008       -0.55078787786491
C            2.01463256873853       -0.04199556922035       -0.15573559331982
C            2.95176172709526       -0.55860418020395       -1.27133535879192
C            4.37857700382461       -0.45004205641793       -0.83566925440223
C            5.09520994496753        0.71382614251476       -1.04206298953220
C            6.40599943215178        0.82621396592756       -0.60266021574880
C            7.01852965020707       -0.22275072041647        0.05911656648978
O            8.29830382399025       -0.22492173630072        0.52831748040321
C            9.09121781079740        0.91440166755592        0.31470707920996
C            6.29121590554507       -1.41376874133614        0.28499551405549
O            6.97565082581025       -2.39466912224896        0.93843082139688
C            6.34015709671687       -3.62649219560781        1.16385773664443
C            4.98663293117834       -1.50698170670953       -0.15880125018588
C           -0.03808585324585       -1.30828461147327       -0.60215357502919
C           -3.91005391916574        3.08601828927678        0.59304994277035
C           -4.50832879469972        2.77118219487101        1.96299298599326
C           -3.44584533570863        4.54104149895032        0.56806315390438
H           -4.69537544786029        0.95729073634872       -1.31632805980263
H           -6.88260514141491        0.24949447738748       -1.79270240583533
H           -7.20018687761155       -1.19313968514045       -2.78781949719536
H           -5.70422760540217       -0.26086774304718       -3.03702856258732
H           -4.84908970369502       -3.71285807714760        2.38812810061264
H           -5.25329075655382       -4.96898146253814        1.19030592613038
H           -3.57777987315998       -4.37963410690311        1.32394744495879
H           -3.05380453935403       -2.20291306539264        2.07354373261321
H           -2.15062311885838        0.04887447416763        1.98301457281560
H           -3.09876265733445        2.38956134913828       -1.88386496537395
H           -1.72274626133698        3.26563415873249       -1.23489631482490
H           -1.77932781254092        0.24298742127638       -1.63265217979780
H           -1.02987851433546        1.40061294815071       -2.73497816121899
H           -0.72187907695721        1.67640015710530        0.64352443708730
H            0.67259319237992        1.99549274671873       -0.97602597802017
H            2.13912120240301       -0.67033581595502        0.73534757533664
H            2.31739213380918        0.97409583025337        0.10728292862848
H            2.78100273173735        0.04488428265774       -2.16462152194953
H            2.69720185301000       -1.59465644827039       -1.49819369534085
H            4.63840352728854        1.54443586920570       -1.56018725741476
H            6.94408483998550        1.74167699228227       -0.79113162952692
H            8.67281370382394        1.79726285624719        0.81001593411522
H            9.22042191390584        1.12364838735471       -0.75273459574817
H           10.05921819980677        0.68043941436844        0.75483835682373
H            7.08011306928096       -4.24853069515501        1.66544700072140
H            5.46322305216629       -3.51813412096064        1.81145323981032
H            6.04244876029342       -4.10731502725367        0.22561851235748
H            4.42193711600432       -2.41206540721686        0.00521457197847
H           -0.20243596642577       -1.64641349096643       -1.63224798352266
H           -1.00592262711673       -1.24239087993193       -0.09806381877226
H            0.56723490057388       -2.05473257546813       -0.08946846672614
H           -4.69662448223777        2.96698422739050       -0.16118926964930
H           -3.75226079338926        2.89710836508458        2.73153807547683
H           -4.87879622403901        1.74968578214505        1.99932269052552
H           -5.33514708040653        3.44823936006647        2.16534194829048
H           -2.64648044658956        4.69187608115932        1.28765854245806
H           -3.09983645965092        4.83509121909950       -0.41959183213029
H           -4.27660945268788        5.18930452103305        0.83908715241114
H           -0.60839184135265        2.81099494093603        2.68587027175269
72
 energy: -103.316953598270 gnorm: 0.011456530755 xtb: 6.6.1 (8d0f1dd)
N           -1.52894910548883        2.81223047351637        2.23170661758226
C           -1.59107596329932        2.17928306741458        1.14743102142116
C           -2.78057782996717        2.07865153369338        0.24014089333324
C           -3.33922916740049        0.66567576991561        0.32144048540385
C           -4.32808320415296        0.26031109860039       -0.57723566042094
C           -4.86232693310342       -1.01229352673404       -0.53499093995698
O           -5.83178702430159       -1.48823425427123       -1.36575553413867
C           -6.42155198632182       -0.60975617206890       -2.28958208136663
C           -4.39841715655990       -1.93176147421880        0.43180177838170
O           -4.97928148527090       -3.16386824074146        0.39247817469739
C           -4.63326204235269       -4.09524883647852        1.38492687176911
C           -3.42430156277455       -1.52713648585914        1.32308291984032
C           -2.90080779461536       -0.24064043056659        1.26842515269517
C           -2.24818193862913        2.30895429681242       -1.20152184847068
C           -1.26783822536129        1.20118324728766       -1.68276293955609
C            0.01370215607213        1.14118556754582       -0.91358797653835
N            0.64202707131608       -0.04542507330164       -0.55955618226022
C            2.01595416989875       -0.04231063224001       -0.16199082448229
C            2.95360760284038       -0.55868250329444       -1.27645243269376
C            4.37946229015722       -0.44972528774400       -0.83853882104517
C            5.09672256111045        0.71429144955705       -1.04402997535345
C            6.40743873527706        0.82655132999547       -0.60357377526725
C            7.01881551059111       -0.22279319528213        0.05833721315736
O            8.29798270265793       -0.22380227049742        0.52875481178550
C            9.09137199905557        0.91497858673721        0.31512393860343
C            6.29163689113822       -1.41374279624993        0.28349270474106
O            6.97475872342949       -2.39482451224755        0.93788514830120
C            6.33871265449211       -3.62611273775912        1.16351935322174
C            4.98724003775720       -1.50739017600914       -0.16125623014139
C           -0.03948683387826       -1.30744012610332       -0.60440654329112
C           -3.90808416599677        3.08440256368804        0.59157000077574
C           -4.51075936297854        2.77134278225418        1.95923346196656
C           -3.44425254857427        4.53860465559022        0.56451488735571
H           -4.69208397122587        0.95822012894148       -1.31394332601192
H           -6.87976268121714        0.25218214113285       -1.79281312853138
H           -7.19612248356452       -1.19042082636800       -2.78828009926557
H           -5.70032250549014       -0.25905393435278       -3.03541845637375
H           -4.84812773303255       -3.71536731060986        2.38958087821010
H           -5.25155511890324       -4.96960314433144        1.18927138340426
H           -3.57746058186755       -4.38002687816353        1.32425532171741
H           -3.05764407820510       -2.20336231062100        2.07854504824105
H           -2.15462034643412        0.04629769356431        1.99319671004497
H           -3.10380565392023        2.41132499916896       -1.87961005556344
H           -1.71113280059179        3.25607750919047       -1.22643465005523
H           -1.78158605991654        0.24162117405684       -1.63528636979746
H           -1.01776341779446        1.38780319216649       -2.73539729428805
H           -0.72521717268311        1.67955221397017        0.65574590326955
H            0.67171109148494        1.99091888777253       -0.98079851948341
H            2.13576862905694       -0.66804694250605        0.73105274385349
H            2.32082991009457        0.97326653613107        0.09800059593949
H            2.78594689295114        0.04325062085908       -2.17020461041704
H            2.69966518013019       -1.59497220922895       -1.50278277771627
H            4.64126746046071        1.54433632624151       -1.56334705053621
H            6.94617054093184        1.74185524116985       -0.79078920302475
H            8.67314194066895        1.79757125152764        0.81037773033383
H            9.22155055359680        1.12437200065841       -0.75226449844422
H           10.05954339422871        0.68211283708448        0.75565783164155
H            7.07690281950342       -4.24925171212403        1.66638159081844
H            5.46175592078463       -3.51650038535244        1.81038475584300
H            6.04171835996018       -4.10751934884875        0.22558976280562
H            4.42375119540063       -2.41368348646041        0.00145849804335
H           -0.20686221697306       -1.64736949419056       -1.63283876166130
H           -1.00678994719215       -1.23444231222797       -0.09985725542220
H            0.56304459321169       -2.05501299695194       -0.08943638725695
H           -4.68999612629104        2.96182335359969       -0.16638219097602
H           -3.75720700677637        2.89690516318695        2.73059318580584
H           -4.88241826173520        1.75029500866219        1.99422703365006
H           -5.33768035072672        3.44968960960020        2.15619499970722
H           -2.64752085991384        4.69186484211695        1.28556413637725
H           -3.09834260281209        4.83077954966188       -0.42299114724516
H           -4.27532635584239        5.18688860816780        0.83215694106536
H           -0.62677096390433        2.81796293034478        2.70202042263654
72
 energy: -103.317210977453 gnorm: 0.005942046374 xtb: 6.6.1 (8d0f1dd)
N           -1.51811949947124        2.81961785257279        2.22369253498705
C           -1.58710128157861        2.18448151003856        1.14265345110877
C           -2.78059697985816        2.08033991794894        0.24027314372166
C           -3.34067341429571        0.66677526567428        0.32023990748953
C           -4.33022435198930        0.26062578988245       -0.57845766441851
C           -4.86400087448821       -1.01254830200167       -0.53656475166755
O           -5.83315965149995       -1.48917571968300       -1.36682234449281
C           -6.42465542446434       -0.61148215343608       -2.29030785646205
C           -4.39852988251941       -1.93239328005156        0.42913190907671
O           -4.97921100245192       -3.16448565103938        0.39085542250791
C           -4.63341667235874       -4.09473259886963        1.38465338882826
C           -3.42303890233676       -1.52730575040654        1.31878031101770
C           -2.90074577489291       -0.24053434468308        1.26506208738164
C           -2.24404747277346        2.30947084543767       -1.20008253310026
C           -1.26755430847434        1.20055414475719       -1.68629606678340
C            0.01539635597409        1.14201934380174       -0.91852673926816
N            0.64109489312139       -0.04364846750472       -0.55967084716991
C            2.01392052017433       -0.04055104017545       -0.15815353018487
C            2.95149506479826       -0.55704081977604       -1.27207219691876
C            4.37854580473587       -0.44966264098614       -0.83631496158544
C            5.09610351490327        0.71400903429561       -1.04229458737399
C            6.40726104883144        0.82623042916640       -0.60223119541276
C            7.01921358783934       -0.22324239282960        0.05922124845397
O            8.29791282788144       -0.22357704257114        0.52876593570160
C            9.09148831667864        0.91494248044483        0.31452265068467
C            6.29220134310628       -1.41409301875748        0.28472734729144
O            6.97509333639662       -2.39486410889549        0.93847857418598
C            6.33971549121322       -3.62642130993262        1.16377502231916
C            4.98710889228719       -1.50765446346895       -0.15923482699439
C           -0.03990925962592       -1.30667300738877       -0.60334060771501
C           -3.90946358283673        3.08482868410866        0.59247505294510
C           -4.50900054272752        2.77116618194950        1.96158880541730
C           -3.44535645095278        4.53877967731561        0.56701651648016
H           -4.69529707549189        0.95813318406452       -1.31566899933892
H           -6.88279572354775        0.25031959152184       -1.79309702984466
H           -7.19966231696316       -1.19231584427259       -2.78828157898503
H           -5.70435242753505       -0.26060596172814       -3.03674087859443
H           -4.84796657315011       -3.71319846941873        2.38882280420633
H           -5.25190356429513       -4.96945818905383        1.19096513276793
H           -3.57777714722612       -4.37969989198971        1.32427642269727
H           -3.05403468889411       -2.20410731963091        2.07246877892638
H           -2.15182318148833        0.04561983367092        1.98704492537236
H           -3.09378539173576        2.39844308823030       -1.88308145359757
H           -1.70877277012935        3.25963943545241       -1.22850067554588
H           -1.78286102674720        0.23926573633456       -1.63641559895278
H           -1.02787444577329        1.39187465407212       -2.73830103807523
H           -0.72691308673623        1.67005663437950        0.65541331752617
H            0.67039827028118        1.99088568248239       -0.98694902061708
H            2.13377550445957       -0.66780999637181        0.73333247527946
H            2.31756410313781        0.97447213298485        0.10344190412014
H            2.78290529151253        0.04455565183386       -2.16471614693285
H            2.69743238700190       -1.59361836253733       -1.49847510117036
H            4.64028479553062        1.54412013968726       -1.56029532844005
H            6.94553113061422        1.74175915079092       -0.78904274523926
H            8.67347398960376        1.79732024487259        0.80990002096649
H            9.22057883333214        1.12416505973032       -0.75307095059022
H           10.06025471423969        0.68238989252993        0.75410097551160
H            7.07837584606979       -4.24982470740402        1.66577752875137
H            5.46321530669844       -3.51737064006794        1.81108038941489
H            6.04243456375457       -4.10699091497399        0.22568344136334
H            4.42372929874518       -2.41369201459173        0.00499310247400
H           -0.20472207390393       -1.64635039019976       -1.63168525706778
H           -1.00821438747395       -1.23735595518098       -0.09982621260596
H            0.56400431915440       -2.05318710621830       -0.08827004379144
H           -4.69408730715690        2.96436921839626       -0.16309370160625
H           -3.75223849523734        2.89591626968217        2.72991031207391
H           -4.88029359884896        1.74999214696038        1.99802249970478
H           -5.33525059482018        3.44877849528658        2.16398204037822
H           -2.64749621888378        4.68937916102271        1.28669761746968
H           -3.10152407889571        4.83350094011385       -0.42001125719935
H           -4.27511883051023        5.18746438899831        0.83833361815740
H           -0.61911105681854        2.81820620318420        2.69573647237014
72
 energy: -103.317167302792 gnorm: 0.006337133265 xtb: 6.6.1 (8d0f1dd)
N           -1.52018283660510        2.81449777716297        2.22481746825408
C           -1.58779711424737        2.18009250328691        1.14322939516551
C           -2.78176928255166        2.07985013766906        0.24019240737269
C           -3.34086529616143        0.66629712865431        0.31995438346601
C           -4.32966779833766        0.25956739556515       -0.57863440983684
C           -4.86301229722475       -1.01363414595230       -0.53619535581233
O           -5.83217701264334       -1.48985429090056       -1.36686121992935
C           -6.42197349340281       -0.61099489046493       -2.29010728567077
C           -4.39847849961737       -1.93270684536609        0.43057162171133
O           -4.97935598091439       -3.16486321335583        0.39219004819674
C           -4.63375393434552       -4.09577280791650        1.38505774209256
C           -3.42386109865021       -1.52675681799300        1.32111531142129
C           -2.90128024362652       -0.23990974270976        1.26581096901644
C           -2.24298154692141        2.31106562786186       -1.19832959728411
C           -1.26632472190885        1.20301211632706       -1.68096027886750
C            0.01554582958915        1.14321102371288       -0.91135190315586
N            0.64114860055295       -0.04402374491360       -0.55530348587605
C            2.01558352830263       -0.04249859000262       -0.15886949850763
C            2.95187533615390       -0.55817267803360       -1.27497605206974