72
 energy: 0.000000000000 xtb: 6.6.1 (8d0f1dd)
N           -1.47310934822924        2.74401318561852        2.22063942287560
C           -1.55658894218425        2.16490305624665        1.13274284460745
C           -2.74549225258129        2.05621251263064        0.23826250649470
C           -3.31377583855761        0.64333417511334        0.32332515650284
C           -4.30230195924506        0.24487112428158       -0.58026167086503
C           -4.85238808050968       -1.02286499940159       -0.53363593669082
O           -5.81420026757557       -1.48606047972767       -1.36157895357670
C           -6.39655692584623       -0.60827005826649       -2.29568495601309
C           -4.39972542350640       -1.94646120241305        0.44396933240983
O           -4.98748357557592       -3.16146026488900        0.41085995818162
C           -4.66362171172287       -4.10093865802695        1.40909140816864
C           -3.42072545213514       -1.54561399150247        1.33436558640148
C           -2.88302826362110       -0.26315802838497        1.27400162590187
C           -2.19303818453636        2.30467021687947       -1.18742988123374
C           -1.26651549989641        1.17243380322503       -1.65249445018642
C            0.01082525039567        1.09745464658138       -0.89354811789923
N            0.61779399208289       -0.02034948241203       -0.57705527866251
C            2.00145228921113       -0.02376006609561       -0.15611401051620
C            2.92554961797610       -0.53865287672537       -1.27700100652360
C            4.35756883501756       -0.43050761225877       -0.83075552032494
C            5.07346182539911        0.73206415878124       -1.03980975472950
C            6.38628045899965        0.84224449235903       -0.60344828301384
C            7.00047329721665       -0.20824758267940        0.05722314949100
O            8.26703733840855       -0.21011315050632        0.52410948507466
C            9.06912311989339        0.92943609656965        0.31863060963839
C            6.27040022445068       -1.40439766990411        0.28033468609137
O            6.94830004375713       -2.38012947787858        0.92752007684741
C            6.31537376337817       -3.61583233633369        1.15217722400438
C            4.96302840674480       -1.49347485723979       -0.16064431849589
C           -0.05511211878686       -1.29906259857679       -0.62085692079872
C           -3.86758072907722        3.07992629005348        0.58498065642721
C           -4.49286201346546        2.77383518785172        1.94313307512182
C           -3.39165211343248        4.52917708609625        0.54797528556046
H           -4.66030069703099        0.94509076131725       -1.31640581036773
H           -6.85037992114187        0.25803164586058       -1.80468862056629
H           -7.17287509152171       -1.18600121846629       -2.79318183475679
H           -5.66836870040540       -0.26952968819383       -3.04040283452035
H           -4.88416765986127       -3.71589494995018        2.40913564538747
H           -5.29223619720187       -4.96637504833431        1.20969248126828
H           -3.61139846644506       -4.39919876145526        1.35529370415983
H           -3.07077825100221       -2.21868786295666        2.10002682176568
H           -2.14562774333496        0.02067850888151        2.01001363031684
H           -3.02188903413801        2.38238034416975       -1.88813562572432
H           -1.65198546223364        3.25146730843841       -1.20556295755141
H           -1.81103391047759        0.23006526775522       -1.62116316669324
H           -0.99335697743926        1.37490224954061       -2.69443281971844
H           -0.67628070635666        1.65183902374723        0.61785732877701
H            0.63525847086258        1.98466388206871       -0.92314029755375
H            2.11132572081740       -0.65949698961381        0.72532619960637
H            2.30680494458141        0.98978260887088        0.11078973822125
H            2.76694224489122        0.06750735773687       -2.17075272340394
H            2.67954606229959       -1.57455642411728       -1.51167757545099
H            4.62170041431221        1.56295626549351       -1.56123593485311
H            6.92357738865082        1.75715832247601       -0.79119604059515
H            8.65159193263071        1.81001840117181        0.81701562739969
H            9.20136256512460        1.14042868409438       -0.74698998879646
H           10.03428931104811        0.69003246578081        0.76064945022918
H            7.05567240429544       -4.23621211097668        1.65347581279537
H            5.43848051513375       -3.50813590722545        1.79970582482858
H            6.02060097762632       -4.09420535105165        0.21253284608183
H            4.40102799328555       -2.40127288651695       -0.00490198294521
H           -0.22071301762289       -1.61775598610935       -1.65116024301020
H           -1.01972267469312       -1.24102728946113       -0.10935207845464
H            0.55899959333766       -2.04486104898380       -0.12333731565713
H           -4.63991918782192        2.95501120214274       -0.18098089750912
H           -3.76095251366987        2.90314731895452        2.73380846416528
H           -4.87457659255110        1.75695657819473        1.97884621460846
H           -5.31925601899505        3.45579242388173        2.12325583951056
H           -2.60025614255587        4.69225089676674        1.27368930043085
H           -3.03987434616939        4.81897697030947       -0.43870979129779
H           -4.22191779840287        5.18069696155015        0.80616701440619
H           -0.59832439338922        2.77744720721660        2.72959009765665
72
 energy: -5.349973814149 xtb: 6.6.1 (8d0f1dd)
N           -1.49989175334566        2.79910023304294        2.21815290269876
C           -1.57935619532043        2.17236705852780        1.13820974047159
C           -2.76922579388031        2.07314264859261        0.23806204179249
C           -3.33470427801089        0.66173038781172        0.32082300041494
C           -4.32228931677531        0.25597127974478       -0.57961112761394
C           -4.86042816833717       -1.01616302994588       -0.53661082052216
O           -5.82746571680694       -1.48799893773310       -1.36439025774645
C           -6.41553985172743       -0.61024857947883       -2.29230120401148
C           -4.39851749264954       -1.93697712625642        0.43399666782397
O           -4.98188070600582       -3.16159260485674        0.39874203756675
C           -4.64282931081751       -4.09696446398670        1.39273815617064
C           -3.42202757833544       -1.53123245438911        1.32324829361575
C           -2.89588779658866       -0.24448988975999        1.26647973953899
C           -2.21708025942432        2.30296974774352       -1.19355896390420
C           -1.26059001397816        1.18761443154933       -1.67449023679665
C            0.01875538131113        1.11895782493494       -0.90391212387349
N            0.64071623224544       -0.04198196763015       -0.56339654808680
C            2.01756293683843       -0.04060262665589       -0.15534693885421
C            2.94717109226298       -0.55399497132715       -1.27324798512606
C            4.37607629258155       -0.44644028060145       -0.83663577475857
C            5.09089019747024        0.71820600093569       -1.04242875622567
C            6.40154988791905        0.83043806107938       -0.60272999976508
C            7.01560142473419       -0.21930662566195        0.05893532066465
O            8.29058788566213       -0.22167366431579        0.52631639620545
C            9.08590275218702        0.91897230940173        0.31589322615223
C            6.28689259883360       -1.41277911250150        0.28437227250334
O            6.96891964778336       -2.39134634227637        0.93519655432181
C            6.33258072543614       -3.62390720993046        1.16036120073866
C            4.98190149344404       -1.50522826778436       -0.15882972206033
C           -0.04115819465669       -1.30875724712597       -0.60547442856808
C           -3.89791525469510        3.08372553007684        0.59120838529770
C           -4.50443240254646        2.77242389816569        1.95709656386399
C           -3.42958097146441        4.53603819999037        0.56241807484264
H           -4.68317694713920        0.95354539674673       -1.31693132128906
H           -6.87101251167416        0.25312729853496       -1.79680191566184
H           -7.19082203999391       -1.19074824064049       -2.78923535335263
H           -5.69143072861749       -0.26416753854304       -3.03755910486606
H           -4.85903581260967       -3.71430783920726        2.39521461656093
H           -5.26576365500680       -4.96744166150539        1.19559717510713
H           -3.58807116808951       -4.38532388796604        1.33275250814422
H           -3.06011288029123       -2.20663762609389        2.08209552254287
H           -2.15045194102675        0.04142579546207        1.99230730646641
H           -3.05728892957662        2.39577793862373       -1.88455908814853
H           -1.67997344126846        3.25031918621952       -1.21681993633829
H           -1.78946732268182        0.23584792890295       -1.63073861390494
H           -1.01596357968558        1.38762702512480       -2.72673410211666
H           -0.70549942315445        1.67018134646527        0.62679451453479
H            0.66240569667304        1.98646363580386       -0.97206452325335
H            2.13351999125673       -0.66742348280469        0.73348727398854
H            2.31504886368916        0.97760621522043        0.10556831237245
H            2.77865996633190        0.05081410220783       -2.16569497929039
H            2.69348284513846       -1.58937967968877       -1.50176741812701
H            4.63564987056198        1.54893859122064       -1.56085930623206
H            6.93898552963430        1.74581541030145       -0.79143140862508
H            8.66655598761165        1.80033561673143        0.81241529719968
H            9.21475298585602        1.12928810258256       -0.75089401928387
H           10.05284830001502        0.68299293681464        0.75652493234383
H            7.07213584814173       -4.24552666802570        1.66220411693220
H            5.45513747771725       -3.51422600594204        1.80697284011231
H            6.03510298207501       -4.10293703432732        0.22147845712068
H            4.41742570491255       -2.41080385790822        0.00238214478273
H           -0.20842276842508       -1.63609987494184       -1.63601224324371
H           -1.00827991213763       -1.23775498167354       -0.09985934841876
H            0.56535797319016       -2.05353145219880       -0.09733398693689
H           -4.68088302524003        2.96217447143612       -0.16567458785866
H           -3.75631104960015        2.89949074113341        2.73331512697387
H           -4.87771315773058        1.75198259195118        1.99225734484440
H           -5.33203836317862        3.45016848234983        2.15359949887018
H           -2.63188663453656        4.69298896509126        1.28264327545494
H           -3.08151896465978        4.82779520175516       -0.42498195295119
H           -4.26058780602566        5.18566370671658        0.82867995700361
H           -0.61376665691715        2.80525870676466        2.71286383423196
72
 energy: -5.243705793309 xtb: 6.6.1 (8d0f1dd)
N           -1.54891200553209        2.89452008082205        2.19319990332871
C           -1.61628880422825        2.20459088896138        1.13024645377503
C           -2.81503840472931        2.10304089508503        0.23311380714315
C           -3.37268810124921        0.69206778834633        0.30982358480942
C           -4.36304773008038        0.27725016796493       -0.58222563646640
C           -4.87931866287301       -1.00267797588102       -0.54345422841413
O           -5.85388530338992       -1.48982234087134       -1.36895147149421
C           -6.45588781408666       -0.61359489329630       -2.28492066893355
C           -4.39718987210237       -1.91905762369773        0.41373558927115
O           -4.96822242420726       -3.15993417267790        0.37390984844995
C           -4.59807981216919       -4.08877492817455        1.35823283081215
C           -3.42267749737299       -1.50629033310795        1.29972643028900
C           -2.91788106508166       -0.21265301594172        1.24777685294694
C           -2.25922744965697        2.31005075367520       -1.20467215856804
C           -1.25770263942001        1.20670298684143       -1.69233319302803
C            0.03260564004865        1.14724634358604       -0.92006735288721
N            0.66982051571339       -0.06305116002297       -0.54334915003892
C            2.04136193069170       -0.05788100336635       -0.15524404867334
C            2.98322309882147       -0.58251886813656       -1.26328826771122
C            4.40915697009754       -0.47583108107632       -0.83644119601856
C            5.12534903455888        0.68849808418198       -1.04388847977804
C            6.43506145793651        0.80406124421537       -0.60273888266168
C            7.04824049041734       -0.24319286549791        0.06083583083057
O            8.33455641062448       -0.24497746526523        0.52790953168021
C            9.12015307200566        0.89682079097537        0.30951968263887
C            6.32207022912973       -1.43187139172752        0.29124416407538
O            7.00953307421062       -2.41345669275513        0.94859423161488
C            6.36851107867106       -3.64088226735973        1.17727515512842
C            5.01824861278901       -1.52882931125764       -0.15235296277535
C           -0.02042314032422       -1.31645178385213       -0.57763104704481
C           -3.95385634669402        3.09232729995822        0.60509841518541
C           -4.52566988753776        2.76542890949968        1.98513221049949
C           -3.50676606089067        4.55234902376194        0.58934501716898
H           -4.73396195431689        0.97207557227387       -1.31760257548578
H           -6.91685857545709        0.24261613401141       -1.78061915601960
H           -7.22861345020265       -1.20001461084556       -2.78023851531793
H           -5.74148595925902       -0.25281744449649       -3.03288324304382
H           -4.80618431291849       -3.71278092180650        2.36587218418434
H           -5.20852883657532       -4.96979974066774        1.16608722212783
H           -3.53834911444577       -4.35742679941530        1.28451981479991
H           -3.03875475488696       -2.18375711549872        2.04678458578976
H           -2.16343297221228        0.08133997603331        1.96009152757467
H           -3.11696493554876        2.41321871894040       -1.88133337862782
H           -1.73406711188395        3.26233675178272       -1.24193350862070
H           -1.75615883640578        0.23658821359974       -1.64321504667604
H           -1.05034149216958        1.41313806829509       -2.75541904415273
H           -0.75708442355631        1.69874469583626        0.63850759332990
H            0.71595770072053        1.97632170190332       -1.05117121518180
H            2.17196682008278       -0.67434103951048        0.74419368757244
H            2.33759576241063        0.96321602364555        0.09814630660362
H            2.80548588391016        0.01534185203621       -2.15823595062272
H            2.72065413140204       -1.61887932244064       -1.48114898516447
H            4.66550142598276        1.51763726806433       -1.56064427575363
H            6.97149282302718        1.72066393028769       -0.79254971653465
H            8.69935691399828        1.77991480990320        0.80312670027428
H            9.24435031677316        1.10542815452927       -0.75902518650167
H           10.09052230855746        0.66741163740180        0.74730683350528
H            7.10687538210548       -4.26410224957311        1.68013427297157
H            5.49119848729003       -3.52768788420112        1.82370251832333
H            6.06692777972477       -4.12267556428304        0.24049837998908
H            4.45076039228549       -2.43127071910220        0.01720347085351
H           -0.18367575903716       -1.67076406512048       -1.60443248031827
H           -0.99216784012699       -1.23165721445891       -0.08342611108796
H            0.57475132561873       -2.05747797960958       -0.04648064847066
H           -4.75707969953096        2.97235959083400       -0.13280757594877
H           -3.75123849004938        2.89215364206144        2.73625430505424
H           -4.88642115757357        1.74003920635519        2.02228012194514
H           -5.35412428064328        3.43463632597546        2.21309704682696
H           -2.70033088422575        4.70091816563251        1.30130607812286
H           -3.16909151376237        4.85227757552505       -0.39907852819244
H           -4.34079474409478        5.19293361055571        0.87346903979889
H           -0.64091615221690        2.86022673371240        2.65898918938012
72
 energy: 2.013969227532 xtb: 6.6.1 (8d0f1dd)
N           -1.60598827145042        2.99357363233629        2.16202711221381
C           -1.65695665032588        2.24814470142009        1.11504594093104
C           -2.86875211614013        2.13742721335506        0.22640061144501
C           -3.41530807391205        0.72558992416113        0.29448135021708
C           -4.41035012800793        0.30208066559221       -0.58714608281607
C           -4.90138734110915       -0.98674420106945       -0.55220815643078
O           -5.88445336786142       -1.49089903141024       -1.37388608228603
C           -6.50423431394506       -0.61683326480906       -2.27522774248340
C           -4.39454795545319       -1.89837977395125        0.38897620096119
O           -4.95075478635459       -3.15704308759461        0.34439929724738
C           -4.54423780529721       -4.07846046342842        1.31684371832954
C           -3.42075117967222       -1.47872870004825        1.27048606416015
C           -2.94065173745937       -0.17748526900641        1.22335563350691
C           -2.30883867201289        2.32213397613968       -1.21750929161725
C           -1.25730475675178        1.22626610740038       -1.70637288972159
C            0.04688556751627        1.17757392772736       -0.93834315759181
N            0.70051204232173       -0.08376601889153       -0.52078678582167
C            2.06789664082267       -0.07420929078035       -0.15374401308294
C            3.02279878417538       -0.61483540615197       -1.25124572424395
C            4.44593094355354       -0.50887577459888       -0.83203076667364
C            5.16488027241930        0.65419192304622       -1.04339233725900
C            6.47453354900602        0.77307498168614       -0.60292547452764
C            7.08665097459897       -0.27168631918048        0.06238273347104
O            8.38495315558371       -0.27249282248220        0.52838200785905
C            9.16046048747170        0.86997357059428        0.30091842452921
C            6.36323728120396       -1.45496546289497        0.29872771637140
O            7.05594807469714       -2.43959830924945        0.96329473902391
C            6.40952163307737       -3.66078809502561        1.19738452654819
C            5.05970190124412       -1.55649028934417       -0.14367786524689
C            0.00287841433168       -1.32395573155165       -0.54411951993722
C           -4.01840865207362        3.10280970968901        0.62240034432695
C           -4.54975435827199        2.75544279746084        2.01815418968103
C           -3.59815767161648        4.57220413990092        0.62014004224844
H           -4.79517106812371        0.99458788173501       -1.31825031344339
H           -6.97221204008185        0.23032858027437       -1.76027374838778
H           -7.27401276647504       -1.21015578676310       -2.76834165408289
H           -5.80242023258826       -0.23850176126342       -3.02728049642106
H           -4.74280704652608       -3.71085686477182        2.33061015852903
H           -5.13967797290323       -4.97188430754530        1.13088263133570
H           -3.47907454971435       -4.32441481037439        1.22665166116246
H           -3.01210658489191       -2.15715059735932        2.00456214953722
H           -2.17834192391173        0.12789724658406        1.92206936254228
H           -3.18422346250197        2.43110586826795       -1.88022873243443
H           -1.79741127676995        3.27985507149868       -1.27401735780668
H           -1.72027075811035        0.23550955654748       -1.65651170785051
H           -1.08372990969174        1.44328584087096       -2.77741466726907
H           -0.81395751925347        1.73713971990144        0.64767321406085
H            0.77713593584747        1.95858406608772       -1.13537036779045
H            2.21520053852224       -0.68084656543937        0.75668813868295
H            2.36675440985144        0.94851428809799        0.09173143817301
H            2.83794439155534       -0.02640962859844       -2.15081182077324
H            2.75199010216082       -1.65294407050853       -1.45635687681706
H            4.70045905577492        1.48123780682590       -1.55941803222451
H            7.00944859176543        1.69099632792111       -0.79410964973919
H            8.73918556079904        1.75535908253442        0.79152445801031
H            9.27968835095555        1.07645286361708       -0.76956578260148
H           10.13490603451776        0.64794680995842        0.73499772792277
H            7.14630558784301       -4.28591766567907        1.70146417482947
H            5.53299657347274       -3.54280461744233        1.84435982716777
H            6.10293979148272       -4.14639709311292        0.26351146736605
H            4.48959127064000       -2.45592104170556        0.03438774805956
H           -0.15269413549872       -1.71213787032162       -1.56525232892269
H           -0.97478895171020       -1.22511274268943       -0.06452788027747
H            0.58507543796817       -2.05966091841981        0.01546232805290
H           -4.84432151178306        2.98169143868720       -0.09300879170438
H           -3.74775390067650        2.88360652317805        2.74138544565058
H           -4.89678302045583        1.72496236505031        2.05767896898868
H           -5.37846032865021        3.41427217423955        2.28167827007202
H           -2.78310268603387        4.71409331199465        1.32315691864434
H           -3.27395897574352        4.88289722342353       -0.36940186483534
H           -4.43672162584969        5.19968659524566        0.92486489516058
H           -0.66967247264198        2.92614751248910        2.58610285856272
72
 energy: 14.060895337071 xtb: 6.6.1 (8d0f1dd)
N           -1.65764427461422        3.07913303267563        2.13364774086250
C           -1.69910465120878        2.29307599407425        1.09701173276379
C           -2.92263678281332        2.17170285187292        0.21860965469545
C           -3.45771507510297        0.75843339477283        0.27981243616972
C           -4.45696415873206        0.32629002235136       -0.59220676961730
C           -4.92374216890001       -0.97120984286161       -0.56115571052302
O           -5.91391069898462       -1.49113623558176       -1.37824175326570
C           -6.55268957726843       -0.62009110549791       -2.26572077716970
C           -4.39167834265536       -1.87879833173877        0.36443825217510
O           -4.93288425085628       -3.15304136128667        0.31591265266282
C           -4.49081196292710       -4.06833660016852        1.27609419369132
C           -3.41801694155164       -1.45183416890461        1.24100653325513
C           -2.96216543264129       -0.14289319273647        1.19880525616607
C           -2.35852499675577        2.33405992119169       -1.23091792595538
C           -1.25721370234442        1.24649511955057       -1.71952560116371
C            0.06068958419261        1.20566012845602       -0.95685290831006
N            0.73201894703781       -0.10390189949913       -0.50247092438722
C            2.09573380322028       -0.08998202227342       -0.15214846483733
C            3.06126304001532       -0.64666352817703       -1.23920624166451
C            4.48225975187124       -0.54144031112807       -0.82688765528788
C            5.20346992572713        0.62060790399761       -1.04256051668863
C            6.51307377395462        0.74249809610888       -0.60348015087239
C            7.12496370109097       -0.29988590256629        0.06386666130177
O            8.43354270859899       -0.29951697545706        0.52852563215151
C            9.20058745201902        0.84343929987908        0.29241260899894
C            6.40350815852234       -1.47859233388184        0.30679067704915
O            7.10126017865730       -2.46522984743371        0.97728257558216
C            6.45083989103237       -3.68115710934335        1.21751012196613
C            5.09997047361027       -1.58410852189445       -0.13354115131465
C            0.02630726841660       -1.33216480678526       -0.51100185309416
C           -4.08245030628125        3.11356542459055        0.64069524875495
C           -4.57328722307596        2.74617403209058        2.05087956628393
C           -3.68854595715082        4.59170978773193        0.65108679253961
H           -4.85659658075325        1.01667196344085       -1.31815528207900
H           -7.02777909748375        0.21778458549220       -1.74044826095295
H           -7.31911854531170       -1.22101957695765       -2.75612953553766
H           -5.86360809460579       -0.22489396125837       -3.02191808837524
H           -4.67991388914741       -3.70933313122658        2.29572311252386
H           -5.07136338761770       -4.97348495950060        1.09542834063531
H           -3.42080410143066       -4.29178350905164        1.16901790641847
H           -2.98639547579468       -2.13035384014377        1.96318884717313
H           -2.19317405454883        0.17339477439898        1.88509595795452
H           -3.24979920251578        2.44777764089585       -1.88084113539847
H           -1.86050517517965        3.29654638279304       -1.30636783100055
H           -1.68854426619922        0.23809608094244       -1.66830106056610
H           -1.11157000795855        1.47125480729651       -2.79661322060923
H           -0.86818846738867        1.77953692445072        0.64675084326895
H            0.82956589852071        1.94177949433430       -1.21130333479796
H            2.25512688337442       -0.68583360642346        0.76879361038011
H            2.39641709581084        0.93494085383434        0.08408683538487
H            2.87109846403543       -0.06842292854882       -2.14414535226522
H            2.78270930930874       -1.68640570771425       -1.43055408540139
H            4.73521208736399        1.44542063461131       -1.55863194151030
H            7.04690079699306        1.66108590368703       -0.79723726282810
H            8.77893276036632        1.73093768968865        0.78018008826504
H            9.31517980820096        1.04749187704118       -0.77984265870791
H           10.17853685935612        0.62786444655071        0.72318473571698
H            7.18675354548535       -4.30718712175620        1.72278910840112
H            5.57534859546825       -3.55857666310468        1.86533556784981
H            6.13963250362658       -4.17078312045721        0.28668854347513
H            4.52801049178406       -2.48104985159438        0.05238578749085
H           -0.12173371277583       -1.75106641303646       -1.52614223560535
H           -0.95714524827740       -1.21765756700948       -0.04601121839155
H            0.59595414566603       -2.06110884851687        0.07586029470186
H           -4.92909145898470        2.99018849612904       -0.05299488918893
H           -3.74648914545052        2.87558237953413        2.74821132453615
H           -4.90662801684040        1.71072342743659        2.09181587463510
H           -5.40195302281244        3.39441340245287        2.34804877223181
H           -2.86525451700324        4.73037759810227        1.34492716966990
H           -3.37872206887207        4.91366537799054       -0.33959333406027
H           -4.53199112548099        5.20555299913936        0.97520318159074
H           -0.69661394015441        2.99430392600813        2.51653142451570
72
 energy: 28.535837656295 xtb: 6.6.1 (8d0f1dd)
N           -1.70344255192894        3.15084388768691        2.10659667800097
C           -1.74125724176890        2.33961932151412        1.07474711947737
C           -2.97655086593480        2.20540417477089        0.21021090921645
C           -3.49937498233081        0.78979053987430        0.26569627130709
C           -4.50271151394808        0.34931866489184       -0.59713279027793
C           -4.94617994204473       -0.95625977159353       -0.56992745165391
O           -5.94202480440924       -1.49069507986281       -1.38192198770383
C           -6.60056123059652       -0.62369246022059       -2.25644159796353
C           -4.38865669528977       -1.86017006157712        0.34047340567561
O           -4.91495310263005       -3.14782046911628        0.28892216623070
C           -4.43855993503884       -4.05809111005590        1.23624675611259
C           -3.41458211889483       -1.42565922737443        1.21159296595973
C           -2.98215414707985       -0.10949497247491        1.17420385654343
C           -2.40932684997287        2.34743337686268       -1.24488976539023
C           -1.25849722105799        1.26613651832567       -1.73124954667976
C            0.07311480006234        1.23222250555046       -0.97582901012663
N            0.76492660538596       -0.12420771528039       -0.48882561914423
C            2.12496975690430       -0.10476562635409       -0.15029538891017
C            3.09850844888323       -0.67815257836680       -1.22721483140390
C            4.51778055155179       -0.57325541776510       -0.82051769103054