72
 energy: 0.000000000000 xtb: 6.6.1 (8d0f1dd)
N           -1.47310921155849        2.74401293103706        2.22063921685122
C           -1.55658879776851        2.16490285539332        1.13274273951491
C           -2.74549199786261        2.05621232186130        0.23826248438941
C           -3.31377553111525        0.64333411542669        0.32332512650568
C           -4.30230156009016        0.24487110156316       -0.58026161703006
C           -4.85238763031941       -1.02286490450319       -0.53363588718165
O           -5.81419972815119       -1.48606034185536       -1.36157882725342
C           -6.39655633239252       -0.60827000183299       -2.29568474302620
C           -4.39972501531283       -1.94646102182611        0.44396929121966
O           -4.98748311285188       -3.16145997157803        0.41085992006324
C           -4.66362127904578       -4.10093827755394        1.40909127743729
C           -3.42072513477031       -1.54561384810496        1.33436546260297
C           -2.88302799614223       -0.26315800396994        1.27400150770375
C           -2.19303798107274        2.30467000305896       -1.18742977106749
C           -1.26651538239283        1.17243369445008       -1.65249429687285
C            0.01082524939134        1.09745454476277       -0.89354803499847
N            0.61779393476578       -0.02034948052406       -0.57705522512502
C            2.00145210352228       -0.02376006389122       -0.15611399603240
C            2.92554934655222       -0.53865282675074       -1.27700088804721
C            4.35756843073516       -0.43050757231754       -0.83075544324989
C            5.07346135469827        0.73206409086248       -1.03980965825901
C            6.38627986649936        0.84224441421807       -0.60344822702769
C            7.00047264773336       -0.20824756335880        0.05722314418200
O            8.26703657141718       -0.21011313101264        0.52410943644933
C            9.06912227848686        0.92943601033931        0.31863058007678
C            6.27039964270142       -1.40439753960823        0.28033466008274
O            6.94829939911432       -2.38012925705718        0.92751999079483
C            6.31537317745639       -3.61583200086742        1.15217711710877
C            4.96302794628964       -1.49347471867959       -0.16064430359178
C           -0.05511211367372       -1.29906247805359       -0.62085686319744
C           -3.86758037025447        3.07992600430699        0.58498060215443
C           -4.49286159663096        2.77383493050346        1.94313289484366
C           -3.39165179876499        4.52917666589254        0.54797523472093
H           -4.66030026466202        0.94509067363451       -1.31640568823548
H           -6.85037928558380        0.25803162192116       -1.80468845313260
H           -7.17287442604349       -1.18600110843259       -2.79318157561361
H           -5.66836817451085       -0.26952966318766       -3.04040255244073
H           -4.88416720672258       -3.71589460520039        2.40913542187496
H           -5.29223570620378       -4.96637458756866        1.20969236903657
H           -3.61139813139015       -4.39919835331056        1.35529357841967
H           -3.07077796610445       -2.21868765711333        2.10002662693138
H           -2.14562754426994        0.02067850696302        2.01001344383370
H           -3.02188875377605        2.38238012313952       -1.88813545054866
H           -1.65198530896729        3.25146700677685       -1.20556284570283
H           -1.81103374245520        0.23006524641044       -1.62116301628650
H           -0.99335688527853        1.37490212198123       -2.69443256973690
H           -0.67628064361333        1.65183887049447        0.61785727145403
H            0.63525841192517        1.98466369793744       -0.92314021190751
H            2.11132552493482       -0.65949692842762        0.72532613231274
H            2.30680473056284        0.98978251704176        0.11078972794250
H            2.76694198818247        0.06750735147374       -2.17075252200790
H            2.67954581369920       -1.57455627803457       -1.51167743520200
H            4.62169998552446        1.56295612048703       -1.56123579000624
H            6.92357674630170        1.75715815945204       -0.79119596719031
H            8.65159112996149        1.81001823324363        0.81701555159939
H            9.20136171144928        1.14042857828877       -0.74698991949293
H           10.03428838009630        0.69003240176163        0.76064937965836
H            7.05567174969094       -4.23621171795340        1.65347565939075
H            5.43848001056755       -3.50813558175093        1.79970565785717
H            6.02060041905269       -4.09420497120334        0.21253282636366
H            4.40102758497114       -2.40127266373392       -0.00490198249042
H           -0.22071299714579       -1.61775583601871       -1.65116008982042
H           -1.01972258008625       -1.24102717432227       -0.10935206830928
H            0.55899954147532       -2.04486085926761       -0.12333730421426
H           -4.63991875734388        2.95501092798550       -0.18098088071825
H           -3.76095216473977        2.90314704960906        2.73380821053058
H           -4.87457614030224        1.75695641518947        1.97884603101694
H           -5.31925552549014        3.45579210326349        2.12325564252114
H           -2.60025590131176        4.69225046143352        1.27368918226171
H           -3.03987406413880        4.81897652321898       -0.43870975059559
H           -4.22191740670577        5.18069648090034        0.80616693961239
H           -0.59832433787845        2.77744694953323        2.72958984441332
72
 energy: -6.235596133077 xtb: 6.6.1 (8d0f1dd)
N           -1.52125728219290        2.81649151571666        2.22427899470525
C           -1.58734844140912        2.18008561341759        1.14323410813385
C           -2.78116773502429        2.07943660739796        0.23943932288006
C           -3.34056951667278        0.66631328682068        0.32007583774708
C           -4.32984658972579        0.26033246587464       -0.57822434830609
C           -4.86325116149033       -1.01287903610387       -0.53614986996600
O           -5.83276371152474       -1.48912496288872       -1.36676162946123
C           -6.42335244457011       -0.61114354772488       -2.29013012704102
C           -4.39829502843406       -1.93229278809519        0.42987404359755
O           -4.97929024278020       -3.16444560975645        0.39162289630865
C           -4.63352827978181       -4.09491185067221        1.38466528058735
C           -3.42311823328904       -1.52721579489771        1.32018541186514
C           -2.90066199771505       -0.24040978411633        1.26556986120563
C           -2.24417741112456        2.30974260958052       -1.20030528075171
C           -1.26715302744466        1.20125427003621       -1.68378995704165
C            0.01478653144112        1.14251504739309       -0.91458088375669
N            0.64076065277279       -0.04391110427897       -0.55685377843302
C            2.01452559676589       -0.04145697175817       -0.15881215569205
C            2.95212062094601       -0.55779628249034       -1.27368067239161
C            4.37889018947215       -0.44982578579032       -0.83749396107063
C            5.09625108041284        0.71398126670079       -1.04313470501826
C            6.40721340707589        0.82631244015948       -0.60289919659485
C            7.01899640994182       -0.22323224506495        0.05875954523649
O            8.29807789277469       -0.22379729062822        0.52858028944243
C            9.09121944226916        0.91476239085979        0.31489680475458
C            6.29204600594892       -1.41390956129190        0.28419479108878
O            6.97493388573616       -2.39495630107369        0.93820084854355
C            6.33934452337543       -3.62621474950677        1.16362503354323
C            4.98717278693259       -1.50749622877042       -0.16011416202821
C           -0.03962176267640       -1.30727237505159       -0.60324749059843
C           -3.90903397317926        3.08488700388354        0.59204343762777
C           -4.50988139015808        2.77145747887975        1.96083372268088
C           -3.44512601162735        4.53923406168825        0.56619197374014
H           -4.69426377255439        0.95784855413782       -1.31529595487371
H           -6.88154576714931        0.25077385703155       -1.79308401854669
H           -7.19839354666551       -1.19184478602559       -2.78829878131145
H           -5.70265995357817       -0.26015037160701       -3.03640075817719
H           -4.84841566334007       -3.71376892171539        2.38890709531349
H           -5.25218701508817       -4.96947205491493        1.19036954665301
H           -3.57764322495212       -4.37962676375318        1.32417991768692
H           -3.05534252077309       -2.20351084326495        2.07508395406401
H           -2.15276594358993        0.04725428618934        1.98813905378595
H           -3.09573920072053        2.39803603619058       -1.88164824791007
H           -1.71251267874449        3.26157954533695       -1.22893385174282
H           -1.78141610118825        0.24020809576861       -1.63472973056090
H           -1.02735338535473        1.39433333000056       -2.73625228653021
H           -0.72499687941260        1.67452989337274        0.65370200227960
H            0.67088802286036        1.99194416697838       -0.98185835626442
H            2.13705658318283       -0.66883167777368        0.73247263692614
H            2.31825690523437        0.97381471306554        0.10264527558855
H            2.78331955609201        0.04402754949649       -2.16656010480805
H            2.69845660116592       -1.59447833827199       -1.50023363409429
H            4.64029183719542        1.54402870272926       -1.56151154188881
H            6.94542585642257        1.74167064566945       -0.79042656911134
H            8.67297231065512        1.79737382364257        0.81007104159815
H            9.22089524492210        1.12421032081612       -0.75261407614922
H           10.05971536950649        0.68189042673466        0.75499591392221
H            7.07818967535264       -4.24920755781850        1.66596362752329
H            5.46254147752799       -3.51721868116800        1.81077680737984
H            6.04205644171653       -4.10732679290697        0.22567377693729
H            4.42344276494135       -2.41330418066208        0.00352501574922
H           -0.20465372566733       -1.64623940602417       -1.63211091025147
H           -1.00765048657785       -1.23857728613199       -0.09937047542906
H            0.56444458562441       -2.05426849216549       -0.08913443783347
H           -4.69362158114840        2.96449378194314       -0.16374105913002
H           -3.75458401296290        2.89681871468737        2.73046760436224
H           -4.88113127911711        1.75023394810176        1.99710664907913
H           -5.33650559901599        3.44908545789409        2.16148757534034
H           -2.64751087079830        4.69103830727071        1.28626269309343
H           -3.09997594063896        4.83304006358438       -0.42092844044807
H           -4.27578768682185        5.18769332631885        0.83612042812866
H           -0.62036322136683        2.81618103637460        2.69509199550032
72
 energy: -5.130012294805 xtb: 6.6.1 (8d0f1dd)
N           -1.54729285419718        2.86415218229867        2.20866649415125
C           -1.62318070043800        2.21828493439023        1.13299952541328
C           -2.81787914649887        2.10205830872416        0.23282236754906
C           -3.36555928291090        0.68509052994656        0.31249354777374
C           -4.35630961091231        0.27400687722544       -0.58166012418379
C           -4.87792506788070       -1.00411195876663       -0.54217608544828
O           -5.84744453406214       -1.48830810340679       -1.36876461497958
C           -6.45140429665029       -0.61176672332903       -2.28451046740331
C           -4.39845231189477       -1.92274330677560        0.41624313629322
O           -4.96628140731650       -3.16167871288508        0.37361759314697
C           -4.60297057563526       -4.09069270835858        1.36168820562099
C           -3.42294315051516       -1.51157374201265        1.30301837496971
C           -2.91388514535420       -0.21999701525359        1.25271872645709
C           -2.29617980982353        2.32493232514396       -1.21599010250093
C           -1.27488181025761        1.23016304410321       -1.69477828072273
C            0.02780703514378        1.15780744815334       -0.93847914363675
N            0.65006493718790       -0.03933330579399       -0.55004148255128
C            2.03006440105435       -0.04865823582863       -0.15986395256558
C            2.97014778483763       -0.57552589051593       -1.26865788622328
C            4.39882121559914       -0.46718403296274       -0.83505683751237
C            5.11646244122387        0.69615704556329       -1.04342680776541
C            6.42768630774535        0.81006779015134       -0.60293737729004
C            7.04108408057637       -0.23761403879067        0.06038226234278
O            8.32097055408913       -0.23651915743441        0.52929989606133
C            9.11414347107970        0.90092526810522        0.31018436078788
C            6.31442247895126       -1.42741541609925        0.28890568308623
O            6.99772948269903       -2.40668740537268        0.94583424318403
C            6.36292541798489       -3.63762541049505        1.17495149690276
C            5.00916039373478       -1.52224397681633       -0.15541205369364
C           -0.02689353918239       -1.30817424541714       -0.58391417436614
C           -3.95080612112200        3.09321934440983        0.60137804499797
C           -4.52421668191827        2.76592045455649        1.97875879053973
C           -3.49737140908960        4.55023062805461        0.58211113086927
H           -4.73018605373478        0.97037184686969       -1.31535216277044
H           -6.91332818920268        0.24427002677304       -1.78057170506490
H           -7.22451257990123       -1.19612580092478       -2.78151474273581
H           -5.73810661418710       -0.25082768447021       -3.03275901934150
H           -4.81287921622863       -3.71418328454486        2.36891859815131
H           -5.21256032346237       -4.97217966491928        1.17058627433923
H           -3.54461248721977       -4.36308133846320        1.29253113032002
H           -3.04031584353524       -2.18814230288135        2.04983778687660
H           -2.16192624976740        0.07183974737197        1.96897441617676
H           -3.16598174589636        2.40600216734187       -1.88438979608952
H           -1.77501767741616        3.28220568974302       -1.25736748713890
H           -1.75822724657414        0.24967992212449       -1.64454718636591
H           -1.04889496237198        1.41459743408555       -2.75232090113566
H           -0.76814540494319        1.70003277050007        0.66259951898355
H            0.69905488317608        1.99151905628075       -1.02333915379557
H            2.15498194189454       -0.67157798280489        0.73573166938455
H            2.34152483259087        0.96498211995479        0.09597937296079
H            2.80275183469553        0.02007471834168       -2.16487006397968
H            2.71617725752915       -1.61393514894992       -1.48754922156965
H            4.65895993735643        1.52511056810740       -1.56187020862924
H            6.96593628004036        1.72548315980342       -0.79055883712433
H            8.69646215138189        1.78443026927741        0.80369666063960
H            9.24143124217561        1.10743698517204       -0.75830117952122
H           10.08442709676892        0.67126372296122        0.74838952260755
H            7.10126623960989       -4.26126682249825        1.67774769635480
H            5.48733990063923       -3.52656481349646        1.82301068770739
H            6.06419404343374       -4.12058384266244        0.23855314935581
H            4.44589793906676       -2.42738294656891        0.01342121683732
H           -0.18687661470231       -1.66828231028367       -1.60761702871379
H           -0.99686614398734       -1.23258229297491       -0.08625025454209
H            0.57105882582586       -2.05089520348211       -0.05337756656764
H           -4.74526417931504        2.97069541537770       -0.14325368612284
H           -3.75269324568606        2.88830805981435        2.73330487016273
H           -4.88788256074031        1.74227442789407        2.01455577348375
H           -5.35001665874770        3.43812969548369        2.20012857624702
H           -2.69546067659553        4.69721859327574        1.29781998828267
H           -3.16128654298745        4.85129021176627       -0.40541448141501
H           -4.32839558358850        5.19295820146717        0.86419111572083
H           -0.63800824809646        2.85858288355934        2.66036203627671
72
 energy: -2.408522506927 xtb: 6.6.1 (8d0f1dd)
N           -1.57330058812500        2.90890756062276        2.19077380931919
C           -1.65826136158958        2.25545686957123        1.11972788770816
C           -2.85516035995886        2.12473842323099        0.22544336950233
C           -3.39025088357114        0.70368632365408        0.30428878781352
C           -4.38272081664569        0.28775021464268       -0.58533825427645
C           -4.89228252036787       -0.99522077487862       -0.54832419710769
O           -5.86186312760937       -1.48715663379073       -1.37072523707458
C           -6.47892999601892       -0.61302541836512       -2.27963138504026
C           -4.39788986822066       -1.91298475206327        0.40231055244462
O           -4.95276726600229       -3.15822375414349        0.35591171200480
C           -4.57217336108996       -4.08566492695736        1.33896009976734
C           -3.42152278528759       -1.49607280318524        1.28516157736594
C           -2.92611921020947       -0.19962957236080        1.23893518118287
C           -2.34979030343573        2.34198608112009       -1.23192814204688
C           -1.28444725482990        1.25992309906548       -1.70145559932738
C            0.04218939564320        1.17184269397275       -0.96295129628992
N            0.66169656665761       -0.03489579537682       -0.54340042849382
C            2.04755837934340       -0.05482102488413       -0.16047158805991
C            2.98866346576604       -0.59326128518474       -1.26359523846731
C            4.41890043977684       -0.48439481313997       -0.83205380198312
C            5.13667079924818        0.67856675437335       -1.04311977178190
C            6.44840776984422        0.79365804751847       -0.60346297706767
C            7.06323463089674       -0.25250110763255        0.06117234939976
O            8.34396676468138       -0.24993601476997        0.52891593089832
C            9.13663312886027        0.88690585551450        0.30534757083111
C            6.33676168625716       -1.44142529782740        0.29300228616423
O            7.02049582279912       -2.41907736097113        0.95258387567489
C            6.38618155696828       -3.64944491552020        1.18614966625922
C            5.03094852872529       -1.53719850219155       -0.15060762968580
C           -0.01365268383621       -1.30841381148212       -0.56417642538639
C           -3.99191682045213        3.10172678929791        0.61170985412180
C           -4.53884270229217        2.76062378632963        1.99677645601268
C           -3.54991116477135        4.56180696813773        0.59842016953648
H           -4.76651131863166        0.98348871201639       -1.31464234828253
H           -6.94532450097733        0.23710042563541       -1.76967954123121
H           -7.24954761679230       -1.20193710658170       -2.77522048705263
H           -5.77305384982896       -0.24248909951062       -3.02997075729000
H           -4.77752404103400       -3.71374509518498        2.34899569095606
H           -5.17253344677603       -4.97406949118756        1.15096786377234
H           -3.51145515354788       -4.34552734834384        1.26128479572316
H           -3.02502803842091       -2.17244899754939        2.02466537447620
H           -2.17151994390541        0.09718737712897        1.95011511831666
H           -3.23600781784034        2.41172113155216       -1.89106908578852
H           -1.83979110794907        3.30484833211170       -1.28596185551012
H           -1.73627851196210        0.26091450007930       -1.65437376128882
H           -1.07230248202699        1.43787429337731       -2.76306760083955
H           -0.80834769015294        1.73435454807075        0.65917867512509
H            0.72923264336824        1.98840080296885       -1.06568221711800
H            2.17508220807030       -0.67293422641507        0.73962638951965
H            2.36628021973593        0.95759199136149        0.08899720529747
H            2.82278719060744       -0.00446868814672       -2.16398202471528
H            2.73439145476112       -1.63350197726273       -1.47405160232129
H            4.67787367568837        1.50649622867128       -1.56198201186619
H            6.98686210737304        1.70882937639043       -0.79205985721581
H            8.71901044453078        1.77098162000459        0.79751797338413
H            9.26176297761000        1.09104914643550       -0.76393555295079
H           10.10854241998340        0.66039011415290        0.74192065440113
H            7.12416211010379       -4.27338655808722        1.68959347282445
H            5.51194536493672       -3.53592404398648        1.83531596541940
H            6.08570507753986       -4.13479649641357        0.25164917458849
H            4.46794799925007       -2.44161756502267        0.02286611558296
H           -0.16730158255793       -1.68988765064739       -1.58248008817118
H           -0.98635722713341       -1.22585145005356       -0.07420419848684
H            0.57680119841902       -2.04670512135884       -0.01666806240555
H           -4.79581167062308        2.97602011029286       -0.12183324461486
H           -3.75470791180430        2.88111298612652        2.73916718623326
H           -4.89501409516223        1.73461316105661        2.03160380388262
H           -5.36402355955045        3.42701463768411        2.23696911972814
H           -2.74408146016148        4.70662829253534        1.30983167296563
H           -3.22285474078067        4.87056047424590       -0.38944136851677
H           -4.38256353203141        5.19709788825078        0.89185314705606
H           -0.65491162627505        2.90255625075013        2.62268392274749
72
 energy: 1.504418751831 xtb: 6.6.1 (8d0f1dd)
N           -1.60089333105153        2.95211392000085        2.17200150135767
C           -1.69252799663053        2.29170331812508        1.10501641391908
C           -2.89224288450039        2.14645453377220        0.21808968061087
C           -3.41562272046582        0.72189467868635        0.29632627513091
C           -4.40978138967724        0.30130298511680       -0.58886665818727
C           -4.90712984756690       -0.98636734613498       -0.55428690778685
O           -5.87662692648319       -1.48599624856651       -1.37261974782937
C           -6.50687486013396       -0.61467028805063       -2.27492191389584
C           -4.39741854589419       -1.90302381745313        0.38842176758152
O           -4.93927949369129       -3.15430033115590        0.33828597069617
C           -4.54128452402525       -4.08032477021806        1.31581950475559
C           -3.42004620212162       -1.48044779051386        1.26726357463009
C           -2.93842579023668       -0.17929850042334        1.22500604140639
C           -2.40128947540854        2.35514813634055       -1.24635852614183
C           -1.28714175171266        1.27246776714058       -1.70094276437984
C            0.06091073976491        1.18126089119153       -0.98767414489316
N            0.67746293801645       -0.03327231560911       -0.53911201591904
C            2.06659523280529       -0.06058352803976       -0.16075687998601
C            3.00767297485138       -0.61091655270696       -1.25784310512380
C            4.43897487167746       -0.50137027447164       -0.82762913709764
C            5.15693825409578        0.66099756536028       -1.04252181457169
C            6.46932709799928        0.77706439895790       -0.60430305450764
C            7.08535722442366       -0.26762532771404        0.06174843680459
O            8.36682481271591       -0.26359903047119        0.52845457193607
C            9.15885735010768        0.87274635406796        0.30070376280921
C            6.35911233386086       -1.45566882145732        0.29706684465398
O            7.04349337751515       -2.43161158986443        0.95899855925117
C            6.41003953801347       -3.66146998716824        1.19739686810168
C            5.05255301258839       -1.55228107427321       -0.14503942207034
C            0.00009919567480       -1.30915830247489       -0.54424668630217
C           -4.03204194483443        3.10999844671278        0.62245950661372
C           -4.55313160325486        2.75528927642670        2.01453909666093
C           -3.60193593736781        4.57338286525127        0.61492659516712
H           -4.80290751606252        0.99620008538453       -1.31417306188233
H           -6.97793871571729        0.22954341017875       -1.75930291838527
H           -7.27498718447579       -1.20851740098899       -2.76856922173586
H           -5.80890974453371       -0.23475561930522       -3.02777830832493
H           -4.74210372482240       -3.71336028363757        2.32874556193224
H           -5.13258611825769       -4.97532267256098        1.13051043358072
H           -3.47839441290378       -4.32754183212284        1.22920573156046
H           -3.00989788063583       -2.15625732336340        1.99967391159353
H           -2.18097359993921        0.12283622415435        1.93075169826879
H           -3.30459797137680        2.41736501896919       -1.89527724579932
H           -1.90099953572808        3.32304964407822       -1.31596785010131
H           -1.71545203730574        0.26538127565336       -1.65908091988991
H           -1.09607705000828        1.46152336411123       -2.76774505953435
H           -0.84564891330051        1.77195337091167        0.65034594254198
H            0.76090265543579        1.98122547440325       -1.11161156636608
H            2.19615534795589       -0.67336023906448        0.74381486062003
H            2.39006275373107        0.95167190287247        0.08143284123261
H            2.84270531004650       -0.02936701295603       -2.16265851413489
H            2.75239417740446       -1.65285614138051       -1.45911790943969
H            4.69705857496577        1.48787149533873       -1.56206577521550
H            7.00798636986281        1.69190756208863       -0.79412918771273
H            8.74128012056578        1.75745076674260        0.79150424624764
H            9.28195594825961        1.07450386632627       -0.76933335180769
H           10.13223486685022        0.64904177912965        0.73576576963635
H            7.14833996972995       -4.28482418221114        1.70151818741531
H            5.53718631203084       -3.54591523739702        1.84782185426622
H            6.10803031803222       -4.14962845743176        0.26494135544546
H            4.48974122616547       -2.45599954106059        0.03252087099369
H           -0.14790100027948       -1.71078208423677       -1.55695496841528
H           -0.97545743332216       -1.21952089946187       -0.06160697041059
H            0.58392955022069       -2.04214682672974        0.01923190587730
H           -4.84554929462480        2.98111193298721       -0.09951722747892
H           -3.75811543964261        2.87535387312600        2.74584669021133
H           -4.90155896770221        1.72685030145217        2.04859623125994
H           -5.37788783360035        3.41525507377259        2.27287741665737
H           -2.79256645063271        4.71785966530754        1.32216198845701
H           -3.28390541486010        4.89044389655880       -0.37303075268170
H           -4.43697160367925        5.20015270425799        0.91919556460001
H           -0.67397693794149        2.94978904737298        2.58473382451878
72
 energy: 6.814606962274 xtb: 6.6.1 (8d0f1dd)
N           -1.62646517770449        2.99462112883695        2.15173040864940
C           -1.72514610744230        2.32862727443657        1.08795287982701
C           -2.92920508231383        2.16833574769643        0.21023607546121
C           -3.44111484292966        0.74021194369082        0.28859465073293
C           -4.43676460347887        0.31468059723093       -0.59227841777520
C           -4.92175674226174       -0.97771328176256       -0.56042637140363
O           -5.89146858826946       -1.48462392804866       -1.37446575193497
C           -6.53483508015480       -0.61616889072229       -2.27008166183909
C           -4.39655230960942       -1.89331397753005        0.37406973826320
O           -4.92550793523375       -3.15039412791252        0.32086637333537
C           -4.51038166331568       -4.07502717332009        1.29284618101671
C           -3.41796494116849       -1.46511226553440        1.24860993711127
C           -2.95043787152709       -0.15915433980869        1.21073412303746
C           -2.45212996476285        2.36666224880866       -1.26118818832174
C           -1.27675993801871        1.27164112922059       -1.70170382585410
C            0.08382982211580        1.18130968158154       -1.01185912920111
N            0.69743082610111       -0.03529203114084       -0.53661200083733
C            2.08768360999809       -0.06657436077469       -0.16018612426754
C            3.02733183194023       -0.62850776265456       -1.25193873728192
C            4.45943975702576       -0.51860483194974       -0.82342138530010