72
 energy: 0.000000000000 xtb: 6.6.1 (8d0f1dd)
N           -1.47310934822924        2.74401318561852        2.22063942287560
C           -1.55658894218425        2.16490305624665        1.13274284460745
C           -2.74549225258129        2.05621251263064        0.23826250649470
C           -3.31377583855761        0.64333417511334        0.32332515650284
C           -4.30230195924506        0.24487112428158       -0.58026167086503
C           -4.85238808050968       -1.02286499940159       -0.53363593669082
O           -5.81420026757557       -1.48606047972767       -1.36157895357670
C           -6.39655692584623       -0.60827005826649       -2.29568495601309
C           -4.39972542350640       -1.94646120241305        0.44396933240983
O           -4.98748357557592       -3.16146026488900        0.41085995818162
C           -4.66362171172287       -4.10093865802695        1.40909140816864
C           -3.42072545213514       -1.54561399150247        1.33436558640148
C           -2.88302826362110       -0.26315802838497        1.27400162590187
C           -2.19303818453636        2.30467021687947       -1.18742988123374
C           -1.26651549989641        1.17243380322503       -1.65249445018642
C            0.01082525039567        1.09745464658138       -0.89354811789923
N            0.61779399208289       -0.02034948241203       -0.57705527866251
C            2.00145228921113       -0.02376006609561       -0.15611401051620
C            2.92554961797610       -0.53865287672537       -1.27700100652360
C            4.35756883501756       -0.43050761225877       -0.83075552032494
C            5.07346182539911        0.73206415878124       -1.03980975472950
C            6.38628045899965        0.84224449235903       -0.60344828301384
C            7.00047329721665       -0.20824758267940        0.05722314949100
O            8.26703733840855       -0.21011315050632        0.52410948507466
C            9.06912311989339        0.92943609656965        0.31863060963839
C            6.27040022445068       -1.40439766990411        0.28033468609137
O            6.94830004375713       -2.38012947787858        0.92752007684741
C            6.31537376337817       -3.61583233633369        1.15217722400438
C            4.96302840674480       -1.49347485723979       -0.16064431849589
C           -0.05511211878686       -1.29906259857679       -0.62085692079872
C           -3.86758072907722        3.07992629005348        0.58498065642721
C           -4.49286201346546        2.77383518785172        1.94313307512182
C           -3.39165211343248        4.52917708609625        0.54797528556046
H           -4.66030069703099        0.94509076131725       -1.31640581036773
H           -6.85037992114187        0.25803164586058       -1.80468862056629
H           -7.17287509152171       -1.18600121846629       -2.79318183475679
H           -5.66836870040540       -0.26952968819383       -3.04040283452035
H           -4.88416765986127       -3.71589494995018        2.40913564538747
H           -5.29223619720187       -4.96637504833431        1.20969248126828
H           -3.61139846644506       -4.39919876145526        1.35529370415983
H           -3.07077825100221       -2.21868786295666        2.10002682176568
H           -2.14562774333496        0.02067850888151        2.01001363031684
H           -3.02188903413801        2.38238034416975       -1.88813562572432
H           -1.65198546223364        3.25146730843841       -1.20556295755141
H           -1.81103391047759        0.23006526775522       -1.62116316669324
H           -0.99335697743926        1.37490224954061       -2.69443281971844
H           -0.67628070635666        1.65183902374723        0.61785732877701
H            0.63525847086258        1.98466388206871       -0.92314029755375
H            2.11132572081740       -0.65949698961381        0.72532619960637
H            2.30680494458141        0.98978260887088        0.11078973822125
H            2.76694224489122        0.06750735773687       -2.17075272340394
H            2.67954606229959       -1.57455642411728       -1.51167757545099
H            4.62170041431221        1.56295626549351       -1.56123593485311
H            6.92357738865082        1.75715832247601       -0.79119604059515
H            8.65159193263071        1.81001840117181        0.81701562739969
H            9.20136256512460        1.14042868409438       -0.74698998879646
H           10.03428931104811        0.69003246578081        0.76064945022918
H            7.05567240429544       -4.23621211097668        1.65347581279537
H            5.43848051513375       -3.50813590722545        1.79970582482858
H            6.02060097762632       -4.09420535105165        0.21253284608183
H            4.40102799328555       -2.40127288651695       -0.00490198294521
H           -0.22071301762289       -1.61775598610935       -1.65116024301020
H           -1.01972267469312       -1.24102728946113       -0.10935207845464
H            0.55899959333766       -2.04486104898380       -0.12333731565713
H           -4.63991918782192        2.95501120214274       -0.18098089750912
H           -3.76095251366987        2.90314731895452        2.73380846416528
H           -4.87457659255110        1.75695657819473        1.97884621460846
H           -5.31925601899505        3.45579242388173        2.12325583951056
H           -2.60025614255587        4.69225089676674        1.27368930043085
H           -3.03987434616939        4.81897697030947       -0.43870979129779
H           -4.22191779840287        5.18069696155015        0.80616701440619
H           -0.59832439338922        2.77744720721660        2.72959009765665
72
 energy: -5.114794621971 xtb: 6.6.1 (8d0f1dd)
N           -1.49698800317797        2.79512447885263        2.21881342765224
C           -1.57590463217121        2.16700939122523        1.13963438949094
C           -2.76708567763656        2.06888700256881        0.24004384001936
C           -3.33317387155227        0.65656719172635        0.32356229288755
C           -4.32116231096709        0.25123382444075       -0.57688949940433
C           -4.86418610244852       -1.01896128509364       -0.53068106406671
O           -5.83120181270395       -1.48907100456900       -1.35956925827573
C           -6.41308713189492       -0.61236761605186       -2.29278727397292
C           -4.40777298163697       -1.93897102472645        0.44405318350525
O           -4.99573434982596       -3.16175080821604        0.41253717745000
C           -4.66306519858031       -4.09618532741681        1.41012693052538
C           -3.43078253791841       -1.53405485572010        1.33328047404250
C           -2.89929070988920       -0.24935132843738        1.27268983421305
C           -2.22295666131359        2.31392371567098       -1.19131179051522
C           -1.28864297455779        1.19751150174028       -1.68858525285500
C           -0.00115431697236        1.13328888738706       -0.92701506505514
N            0.63200744018940       -0.02589194747724       -0.58801511588163
C            2.01314197228672       -0.05525326265287       -0.14509533155331
C            2.95648496072038       -0.56716503213892       -1.25285479767118
C            4.38116924947944       -0.45177118421158       -0.80265830969060
C            5.08906909895281        0.71807836831453       -1.00443040921209
C            6.40369303986119        0.83250333495423       -0.57900663086640
C            7.02854612345044       -0.21996227632221        0.06683434289726
O            8.30842453938972       -0.22065890688271        0.51925194741255
C            9.09680319456685        0.92424789153905        0.30642865698911
C            6.30691060350730       -1.41749955199527        0.29189896916992
O            7.00095623477270       -2.39816024939274        0.92597447789204
C            6.37215470036230       -3.63471098876145        1.14847105780145
C            4.99739371969860       -1.51244950451730       -0.13667788369391
C           -0.05813782918558       -1.28666119541425       -0.65317840980508
C           -3.89503595128719        3.08198531238868        0.58749629894106
C           -4.50587806029185        2.77644626721198        1.95286216982929
C           -3.42635362945741        4.53428102653477        0.55072889516269
H           -4.67890505892460        0.94811140742925       -1.31668386344973
H           -6.86758591430923        0.25460930855354       -1.80256928579939
H           -7.18898590169027       -1.19182471910066       -2.79007107668813
H           -5.68552797220001       -0.27168290827453       -3.03735238778314
H           -4.88062022243511       -3.71070494468348        2.41129431697416
H           -5.28901993438005       -4.96489614266982        1.21414161139151
H           -3.60943265804075       -4.38975850269273        1.35390687782137
H           -3.07345671506708       -2.20834255215089        2.09558798981657
H           -2.15532710552493        0.03578955190616        2.00042066075333
H           -3.06059296037862        2.40326559997728       -1.88420190909121
H           -1.68143777920012        3.26096935931667       -1.20757803198949
H           -1.83158929257447        0.25365494533639       -1.64206728947902
H           -1.06343246018488        1.40278792140047       -2.74484279178764
H           -0.70276789393706        1.65718103360910        0.63331399984061
H            0.62240809206951        2.01400144955079       -0.98840900200628
H            2.13452747571695       -0.69777885954103        0.73684342955869
H            2.32539285307652        0.95179797206757        0.13777338513817
H            2.79069204392619        0.04177226528381       -2.14252724837000
H            2.71309009298276       -1.60359004784142       -1.49028777750940
H            4.62634390316338        1.55104362160123       -1.51192858327661
H            6.93611305316553        1.75073324747028       -0.76770081776337
H            8.68064011097079        1.80156021775828        0.81251475679208
H            9.21335491239257        1.14100377573500       -0.76040365923328
H           10.06895782487508        0.68857888095358        0.73506580905793
H            7.12053233803274       -4.25708541168167        1.63535821767844
H            5.50328015834695       -3.53345259913950        1.80740502276094
H            6.06412217047376       -4.10758358798609        0.21000095035611
H            4.43990223703695       -2.42251250975043        0.02340620341532
H           -0.21476069506707       -1.60623716720519       -1.68796998359340
H           -1.03166173157766       -1.22232845308475       -0.15774219606473
H            0.54583145272715       -2.03043281608099       -0.14393497365912
H           -4.67568776311858        2.95759244979466       -0.17146809424862
H           -3.76119093311430        2.90726842497124        2.73174136489737
H           -4.87889923988281        1.75599813766150        1.99144725879858
H           -5.33482743664838        3.45443342908949        2.14302769382977
H           -2.62660675046626        4.69463273858967        1.26780727110533
H           -3.08162088326912        4.82331817900748       -0.43880368232876
H           -4.25661897646713        5.18475739715258        0.81677109387436
H           -0.61189377738576        2.80245083518294        2.71526899935828
72
 energy: -3.214153213827 xtb: 6.6.1 (8d0f1dd)
N           -1.53511523641700        2.87265889766151        2.20432011076709
C           -1.59885863885360        2.17693477346392        1.14099114592676
C           -2.79869248236052        2.08682221038412        0.23996849724136
C           -3.35788637219930        0.67331976499758        0.31909678753269
C           -4.34750525243849        0.25945047924376       -0.57470055844821
C           -4.88060227513396       -1.01352975689567       -0.52691485484578
O           -5.85740926978282       -1.49251621710997       -1.35599920156859
C           -6.43877167606506       -0.61633342425463       -2.28596026116681
C           -4.41821851896801       -1.92790952941175        0.44298164389739
O           -5.00799791735285       -3.16186978924365        0.41557360310498
C           -4.66308809834635       -4.08731320802239        1.41294760834353
C           -3.44224375525590       -1.51892316855912        1.32933030300661
C           -2.91951828047230       -0.23191231287714        1.26697427823983
C           -2.26635518539746        2.33358772742336       -1.19760612122609
C           -1.32642213742592        1.22891860509730       -1.73190945101200
C           -0.02017466959682        1.18242103126533       -0.97843512852496
N            0.65121349500833       -0.02761362302675       -0.60680952368824
C            2.02879824826978       -0.09953970122712       -0.12331064980882
C            3.00101794495727       -0.60914198323358       -1.21216021251463
C            4.41456907439939       -0.48193434885600       -0.75042341308717
C            5.11070182571980        0.69824252534215       -0.94118392710550
C            6.43024727517375        0.81896728325323       -0.53656829234774
C            7.07210634787891       -0.23787577949761        0.08166420347814
O            8.37284196163786       -0.23716156944404        0.50739257462607
C            9.14022666101107        0.91547358008576        0.28306392829669
C            6.36454144561820       -1.43754088671365        0.30835409346507
O            7.08288722333080       -2.42684177733430        0.92006670852101
C            6.45859761524333       -3.66329205965572        1.14101731594667
C            5.05003532428279       -1.54106002373073       -0.09887271668984
C           -0.06635262904089       -1.26183461291690       -0.70628166667469
C           -3.93408481847875        3.08392184666305        0.59155345591561
C           -4.52495001484428        2.77734107655429        1.96684654831028
C           -3.48057858216936        4.54230931406562        0.55149248580510
H           -4.70683263833328        0.95241042654726       -1.31815608948780
H           -6.89393712035502        0.25124631092725       -1.79570837491053
H           -7.21511699577678       -1.19706531702324       -2.78261221646263
H           -5.71349689676383       -0.27238235644601       -3.03157086278550
H           -4.87627815571981       -3.70036520503536        2.41552256241450
H           -5.28591093336936       -4.96059927816089        1.22350375565449
H           -3.60785286919060       -4.37600155462765        1.35379765049022
H           -3.07411127705227       -2.19426306996574        2.08691871434265
H           -2.16763122508912        0.05652639716309        1.98427272380209
H           -3.11783975440174        2.43808497619205       -1.87793780211040
H           -1.72513014177501        3.28183216620198       -1.21118744040402
H           -1.86731054432418        0.28282790540013       -1.67326619451116
H           -1.16640163009413        1.44413780123217       -2.80507832588219
H           -0.74101599794092        1.66179081174720        0.65923384029743
H            0.60097819925157        2.05311879342613       -1.08146272807797
H            2.16199859436232       -0.75992898425483        0.75654532527347
H            2.35670603465581        0.89377437837691        0.19158219156152
H            2.82818536236619        0.00291304361068       -2.09720445777423
H            2.76652676095450       -1.64751791002611       -1.45619087331407
H            4.63002658219248        1.53525793741364       -1.42482017852023
H            6.95355824706934        1.74340952602073       -0.72454726561181
H            8.72902689841009        1.78763799100166        0.80344325713879
H            9.23041774897187        1.14229792037713       -0.78548246244425
H           10.12457632923599        0.68534316528051        0.68764709696362
H            7.21901461442758       -4.29087134115174        1.60316494084676
H            5.60449400043379       -3.57077504293735        1.82049887269600
H            6.12682629823544       -4.12729300502419        0.20529675916546
H            4.50086229707008       -2.45560442307400        0.06652131783481
H           -0.20540157604664       -1.58690906874869       -1.74670292154086
H           -1.05486114762714       -1.19374660988232       -0.23797724150845
H            0.51928250436774       -2.00504351155882       -0.17732851272689
H           -4.72656886280272        2.95630558458983       -0.15664823604997
H           -3.76341526752098        2.91380254443350        2.72878869719426
H           -4.88510109971375        1.75180416063537        2.01104882607123
H           -5.35779699538614        3.44832447730999        2.17067982565343
H           -2.66931860757243        4.70098132703967        1.25564864764351
H           -3.14884131757650        4.83074471902081       -0.44288530172929
H           -4.31183709272201        5.18837405827319        0.82989230140653
H           -0.63153215990165        2.83848668427947        2.67874739814601
72
 energy: 4.857472652821 xtb: 6.6.1 (8d0f1dd)
N           -1.56933136482997        2.93429178278429        2.18933625226430
C           -1.62387512754525        2.19498239781028        1.13713370634523
C           -2.83080867145007        2.10440536662085        0.23781655768542
C           -3.38238509889263        0.68890708370936        0.31412086233095
C           -4.37353585419252        0.26759661479415       -0.57409911496702
C           -4.89826725363589       -1.00825903999126       -0.52398241159558
O           -5.88232282879515       -1.49456850612397       -1.35152382634759
C           -6.46528520306326       -0.61974046474013       -2.27884612917385
C           -4.42914721845204       -1.91803001150409        0.44221707396849
O           -5.01888465610921       -3.16005594810908        0.41918669066952
C           -4.66322902782985       -4.07824644724633        1.41654838816821
C           -3.45248885021747       -1.50484573758394        1.32483489099518
C           -2.93776209631078       -0.21533760771097        1.26015625311124
C           -2.30927615665483        2.35405002930287       -1.20463323011240
C           -1.36451315160862        1.26017834184218       -1.77075842255212
C           -0.03883675289603        1.22551321731932       -1.02926209495689
N            0.66688882719557       -0.02548815271549       -0.62986144306655
C            2.04160453276453       -0.14097969835042       -0.10254652962461
C            3.04281537892160       -0.64984147851778       -1.17028332849549
C            4.44792351617437       -0.51139832884278       -0.69549477494915
C            5.13196546373682        0.67915769847326       -0.87555458666558
C            6.45683378619258        0.80590002367050       -0.49301146228084
C            7.11754635964493       -0.25598218904031        0.09641656004635
O            8.43574864099453       -0.25317305042550        0.49439110371059
C            9.18468683883189        0.90668790188808        0.25856248949483
C            6.42313400007441       -1.45923991499867        0.32493286070085
O            7.16407696055887       -2.45509928697852        0.91301426177582
C            6.54621032350714       -3.69283590559482        1.13337203678320
C            5.10257407642700       -1.57018527231088       -0.05949284922616
C           -0.07452273196147       -1.23797754172240       -0.75949057429152
C           -3.97367500150345        3.08655916138245        0.59621979015191
C           -4.54352542903800        2.77767774529537        1.98097041439987
C           -3.53518955571060        4.55030277082927        0.55164599639484
H           -4.73566468150932        0.95703074155578       -1.31983197966834
H           -6.92117885133548        0.24794432714981       -1.78831376093105
H           -7.24187709837480       -1.20198970414179       -2.77439648343865
H           -5.74251282956350       -0.27298067217473       -3.02585299576815
H           -4.87224989896594       -3.68967434271714        2.42008377492214
H           -5.28306690335017       -4.95566621239786        1.23346824414032
H           -3.60663532346552       -4.36240177393435        1.35408419287839
H           -3.07460664162255       -2.18012666061566        2.07849292377469
H           -2.17966682831424        0.07678834338591        1.96884617751536
H           -3.17249929044733        2.47119900214015       -1.87297520184618
H           -1.76910832416959        3.30332743799688       -1.21580976991956
H           -1.90420861498109        0.31288852870787       -1.70278856053399
H           -1.26002760448082        1.48367466085480       -2.85657097047540
H           -0.77710828313475        1.66860043939317        0.67828905217010
H            0.57771610971936        2.09109080935004       -1.16842745999283
H            2.17816571685974       -0.81979971639247        0.77308673863074
H            2.38695262068653        0.83710216223068        0.24487694208564
H            2.86838897704422       -0.03636915225330       -2.05294567434338
H            2.81934701252019       -1.69043633579644       -1.42005065324183
H            4.63375468530651        1.52005978332805       -1.33543035649676
H            6.97048786183958        1.73644756383944       -0.68002998992961
H            8.77922856815099        1.77332500167117        0.79391176521766
H            9.24781572896359        1.14321259603633       -0.81134512407312
H           10.18115148564300        0.68174195388937        0.63818768829330
H            7.31902560392798       -4.32521273698476        1.56995513001240
H            5.70782412557325       -3.60905285199034        1.83430059466029
H            6.19058967382300       -4.14753244287725        0.20067052450191
H            4.56278642808565       -2.48988249560616        0.10981699199977
H           -0.19428453827891       -1.56487889439000       -1.80528855158981
H           -1.07762636648893       -1.16332954506667       -0.31908057198555
H            0.49093926867372       -1.98259419740071       -0.21203055339204
H           -4.77652003342975        2.95340979853135       -0.14148707560301
H           -3.76745209931487        2.92075645080681        2.72766391808921
H           -4.89123661390602        1.74753932412548        2.03083322405542
H           -5.38019695730568        3.44127664939906        2.19761610877073
H           -2.71322155202314        4.71018669422533        1.24306327580209
H           -3.21803999892828        4.83904825641156       -0.44767564161224
H           -4.36775954421146        5.19081606357720        0.84225435061739
H           -0.65067286666298        2.87882736499268        2.64128087847316
72
 energy: 15.530029205321 xtb: 6.6.1 (8d0f1dd)
N           -1.59951201501849        2.98025677832661        2.17435710608486
C           -1.64951458602549        2.21859047296883        1.12766807717606
C           -2.86319887953231        2.12122141191508        0.23370357951548
C           -3.40622989272109        0.70299539617504        0.30850149036009
C           -4.39923970877207        0.27545601633984       -0.57455384017518
C           -4.91681006592394       -1.00301879577634       -0.52145745558665
O           -5.90600846269858       -1.49563223680543       -1.34644286578063
C           -6.49209113665244       -0.62305746283637       -2.27195196373509
C           -4.44043967254962       -1.90889862365332        0.44195876903102
O           -5.02865525131934       -3.15678751902249        0.42326901520458
C           -4.66327479818790       -4.06927806529437        1.42051200390988
C           -3.46207651771306       -1.49154569747560        1.32025527514188
C           -2.95452215430568       -0.19974276794769        1.25275484364034
C           -2.35162449754178        2.37595276642077       -1.21244062109701
C           -1.40420781009587        1.29044485269151       -1.80495566632230
C           -0.05947492649622        1.26517525046454       -1.07809037738472
N            0.68128627716385       -0.02096451235539       -0.65620504016912
C            2.05402947212823       -0.17951163737362       -0.08279506577699
C            3.08224733615736       -0.68934772161914       -1.12884639090439
C            4.48047954966514       -0.54009346372115       -0.63900883356592
C            5.15291212498781        0.66011708963076       -0.80956939449919
C            6.48332282598178        0.79255374995260       -0.45011092286915
C            7.16327031864929       -0.27394820660843        0.11037133796389
O            8.49566269378975       -0.26811177045971        0.48113601140329
C            9.22880465626828        0.89802990164152        0.23418464494099
C            6.48126555533198       -1.48165549072557        0.34092521412422
O            7.24300002503168       -2.48195417299534        0.90558086108606
C            6.63388462430704       -3.72257759906660        1.12584027319494
C            5.15413642666646       -1.59919009509857       -0.01970997278313
C           -0.08212440216883       -1.21442717512101       -0.81217023558301
C           -4.01269851559805        3.08995820479646        0.60159763223278
C           -4.56135283062019        2.77783107207115        1.99513511247294
C           -3.58916367939849        4.55854204458942        0.55173174798996
H           -4.76535085591096        0.96183956968812       -1.32138434408501
H           -6.94916330050134        0.24433730913499       -1.78127679518427
H           -7.26854852171056       -1.20741738096542       -2.76589689421443
H           -5.77200632439445       -0.27400577788798       -3.02068790853782
H           -4.86848131124374       -3.67934131309868        2.42476638596017
H           -5.28020747271354       -4.95036277893153        1.24321521033759
H           -3.60553888598456       -4.34914230721709        1.35431348269699
H           -3.07570722181509       -2.16581468661109        2.07091000243051
H           -2.19213010855115        0.09641825390814        1.95478685676554
H           -3.22464245704915        2.50236600795276       -1.86968834376281
H           -1.81320631828891        3.32635906975400       -1.22144358140562
H           -1.94268879360315        0.34217624653890       -1.73107200751581
H           -1.34346141259879        1.52118629532791       -2.89813342379316
H           -0.81044176271299        1.67925543125428        0.68871967038003
H            0.55029915572766        2.12824507148048       -1.24864808110235
H            2.18719045867419       -0.87639075267802        0.78795944350337
H            2.41629275334005        0.78258760576281        0.29597968878625
H            2.91053148224036       -0.07609451985539       -2.01117481936719
H            2.87107190796146       -1.73246304482246       -1.38285467899554
H            4.63837475433014        1.50425259434410       -1.24675116195736
H            6.98718442145334        1.72897484411147       -0.63616023768663
H            8.83005200388372        1.75916022873624        0.78439006422371
H            9.26556608151941        1.14337156852399       -0.83636919475508
H           10.23649777456841        0.67771441928884        0.58894551036532
H            7.41924407474671       -4.35854090184912        1.53668921214515
H            5.81180856787899       -3.64843986549483        1.84819394504187
H            6.25555696309110       -4.16835948810717        0.19669041711389
H            4.62447101878556       -2.52443878461122        0.15288949205200
H           -0.18253771858045       -1.54117715401224       -1.86253533848470
H           -1.09847021110962       -1.13185841046440       -0.39896966264590
H            0.46202049576471       -1.96174936791205       -0.24803485970600
H           -4.82482836279062        2.94980995618931       -0.12567944408322
H           -3.77334034496160        2.92815860462335        2.72838270189347
H           -4.89744113143544        1.74372407823444        2.05064078984363
H           -5.40143616646431        3.43398273333854        2.22371664799463
H           -2.75747987905641        4.72207100989879        1.23072534641655
H           -3.28762975771168        4.84838482751514       -0.45239353284002
H           -4.42310705430512        5.19263600879671        0.85436564875049
H           -0.66849982638295        2.92049457816217        2.60418597664206
72
 energy: 27.701483806010 xtb: 6.6.1 (8d0f1dd)
N           -1.62614353504639        3.01799079655677        2.15777283115631
C           -1.67556087077919        2.24327308213655        1.11481886299805
C           -2.89560637485859        2.13726365360703        0.22826439858107
C           -3.42959842942587        0.71600461104687        0.30245600483554
C           -4.42466123842202        0.28305822708381       -0.57568219792830
C           -4.93583423378174       -0.99780758413280       -0.51922809038023
O           -5.92876677628553       -1.49605445557160       -1.34096529114923
C           -6.51900185979939       -0.62640122514701       -2.26531331557117
C           -4.45191258950411       -1.90022862372719        0.44200612335834
O           -5.03762838457495       -3.15250105874371        0.42761225073691
C           -4.66322757488429       -4.06044846445485        1.42456753547633
C           -3.47130631452688       -1.47870964105295        1.31562567002126
C           -2.97033256905785       -0.18478478336723        1.24503514143095
C           -2.39392753807762        2.39877191477549       -1.22092021728835
C           -1.44562318243691        1.31980367786820       -1.83589986998528
C           -0.08267708525891        1.30265472419119       -1.12478341880622
N            0.69529867891915       -0.01470763426938       -0.68469549018969
C            2.06743966884300       -0.21624509351203       -0.06334071709876
C            3.12017836425561       -0.72810229524374       -1.08779842091448
C            4.51245661951451       -0.56835817712134       -0.58169282499337