25
 energy: 0.000000000000 xtb: 6.6.1 (8d0f1dd)
C            3.23720163006194        1.16630919979326        0.08434469647475
N            2.29877817382611        0.07527477071623        0.03981603040599
C            2.58028210190900       -1.21425402444508        0.03006176031096
N            1.43813958087363       -1.93419271955128        0.00098261760884
C            0.39035688448383       -1.05887472636071       -0.00790371836672
C            0.93510056364412        0.21347819449412        0.01709077491437
C            0.09450143893243        1.40504303904423       -0.00410947031874
O            0.49712751527797        2.54126714362870       -0.00342325688240
N           -1.25076640035757        1.06271879480407       -0.03085478223738
C           -2.21907211982101        2.15522099834493       -0.05001256985998
C           -1.81739487048744       -0.20012725993278       -0.04692818574614
O           -2.99983886758376       -0.37846417018721       -0.07008878229737
N           -0.92618586207120       -1.30210215599479       -0.03682761578324
C           -1.46982264913417       -2.64643102187190       -0.06029820460571
H            3.71247264356769        1.21471455160235        1.06488849150277
H            4.00791497605742        1.03430808813993       -0.67357694370751
H            2.69910007168542        2.09770118228144       -0.09130154882931
H            3.56654120610678       -1.63682992603973        0.04233140067262
H           -1.67107961066214        3.09322851271934       -0.02552706933167
H           -2.82428953597071        2.09428624779827       -0.95318082946668
H           -2.87644029173232        2.07745725625962        0.81450067533302
H           -1.17061996399332       -3.19584890659852        0.83242232437030
H           -1.14560257411436       -3.17511610292205       -0.95688275822323
H           -2.55549792440841       -2.55659984320617       -0.07459039797972
H            1.38130855184625       -2.94313852034425       -0.01389874181052
25
 energy: -3.254167489869 xtb: 6.6.1 (8d0f1dd)
C            3.23461742141330        1.19917971631292        0.06722099699036
N            2.30045088890323        0.10047848097882        0.02996578031833
C            2.59210939364313       -1.23359947332235        0.03687648981002
N            1.42212579915145       -1.94723992339615        0.00249919678975
C            0.39023014633385       -1.06550549613457       -0.00997264819987
C            0.92357727414147        0.21450770503421        0.01023515381969
C            0.09895558573058        1.38629686293783       -0.00224893787106
O            0.49877166117337        2.55037039741982        0.00402173010699
N           -1.26197269831471        1.04260314179449       -0.02672695768521
C           -2.21735023620739        2.14214489056706       -0.03891111955364
C           -1.82709379822554       -0.20791486471562       -0.04741826296249
O           -3.02384438684049       -0.38741765246751       -0.07068513964273
N           -0.94055100193760       -1.31061473908164       -0.03957750145957
C           -1.48300468907708       -2.65157283737924       -0.06583160263578
H            3.65940176809107        1.28566380130611        1.05129408075494
H            4.05865744130545        0.99161017692867       -0.61584911436343
H            2.82049899067314        2.21080868284226       -0.15146761917464
H            3.56798358276088       -1.66671058542141        0.05028074447297
H           -1.65233372242915        3.07149257698481       -0.01061031997191
H           -2.82317193748386        2.09429698653060       -0.94306108419318
H           -2.87327984597563        2.06940936954887        0.82764745328717
H           -1.18172093520053       -3.20713406093340        0.82428854343992
H           -1.15855832983412       -3.18149687050083       -0.96355111370333
H           -2.56829730660396       -2.55810156844025       -0.07887404292557
H            1.35601360274535       -2.95252611522147       -0.01251080930044
25
 energy: 5.616918018881 xtb: 6.6.1 (8d0f1dd)
C            3.23766532549155        1.24067987686271        0.03660460545737
N            2.29927287933516        0.13577010222621        0.00631466050593
C            2.60089929873537       -1.24716055087077        0.04569034961687
N            1.40146111996720       -1.95396850995542        0.00488380912428
C            0.38726702156703       -1.07449644703712       -0.01430605729213
C            0.90668998588823        0.21429078630786       -0.00298000540743
C            0.10358007630400        1.35597231100625        0.00246191999627
O            0.48700361249348        2.54153979879953        0.01904400535681
N           -1.27939570727859        1.01543037266288       -0.01780678605436
C           -2.21445119869981        2.12555793658302       -0.01724061146754
C           -1.83578432449480       -0.22046928012268       -0.04657901601170
O           -3.04188346609456       -0.40286264711718       -0.07084627858612
N           -0.95918522093433       -1.32278541971404       -0.04393043702521
C           -1.50331925043470       -2.66001734214301       -0.07600075046783
H            3.54404156902266        1.42097236362661        1.05012382478399
H            4.15837182661212        0.90182919293003       -0.50481028429538
H            3.02116283442344        2.36231909557044       -0.28789852591390
H            3.56086405979170       -1.70065209050471        0.05929909559643
H           -1.62389701854084        3.04091040582847        0.01823740002622
H           -2.82202532262160        2.09783890655218       -0.92159607092785
H           -2.86784249352378        2.05728277546663        0.85173316898161
H           -1.20340994899240       -3.22763928576330        0.80915588761106
H           -1.18431481626563       -3.19230617613643       -0.97647049700290
H           -2.58863078397658       -2.56092796598776       -0.08619945971912
H            1.32807461016199       -2.95807960689837       -0.00985005073802
25
 energy: 20.712585216184 xtb: 6.6.1 (8d0f1dd)
C            3.25092184371565        1.27400165548434        0.00547234705097
N            2.30362467203892        0.15962028438697       -0.03014697953232
C            2.60613893792316       -1.25651168374270        0.04332998176497
N            1.39087593485969       -1.95971061909442        0.00622228077475
C            0.38479581276678       -1.08602146757086       -0.02045585244109
C            0.89986570573556        0.20805458950581       -0.02071474869041
C            0.10578517849956        1.33559773853489        0.00833685655941
O            0.47352431091005        2.52873477608041        0.03349705350620
N           -1.29279720815616        0.99663211314787       -0.00735929440277
C           -2.21095104312599        2.11450213778181        0.00593963274841
C           -1.84202483184923       -0.23330598967716       -0.04480121475617
O           -3.05174694794731       -0.41857852706596       -0.07040168224598
N           -0.97100923245209       -1.33536658036220       -0.04701241475225
C           -1.52416269549013       -2.66889463124317       -0.08461020058771
H            3.39500008141774        1.57914321285485        1.05214535204883
H            4.25465974615202        0.82718777723979       -0.36613815864919
H            3.21017457919685        2.46632256519278       -0.43763281785228
H            3.55216273241988       -1.73404961947636        0.06143953420678
H           -1.59848079522387        3.01625893490188        0.04848779494236
H           -2.81970762358159        2.10478991791071       -0.89801335207192
H           -2.86127444235618        2.04789323472003        0.87695613995781
H           -1.23007972654492       -3.24807172773157        0.79592712509921
H           -1.21576731476533       -3.20317857948904       -0.98858035880222
H           -2.60980126540367       -2.56103482241421       -0.09147544456374
H            1.31248825919692       -2.96498608770248       -0.00337768316430
25
 energy: 34.177937783439 xtb: 6.6.1 (8d0f1dd)
C            3.26602954676638        1.29758204041909       -0.01423407528289
N            2.31326643478244        0.16798466428811       -0.07075681426382
C            2.60838049638734       -1.26539777953161        0.02664857286991
N            1.38916826386578       -1.96717284381353        0.00749628199626
C            0.38277692075614       -1.09961549488289       -0.02471874216377
C            0.90324036511849        0.19462192219759       -0.03532695840920
C            0.10859931140336        1.32280389566097        0.01523219344889
O            0.46525996091686        2.50885948844435        0.04514328303737
N           -1.29897774715802        0.98567061624526        0.00135275782758
C           -2.20515575445723        2.10856224767535        0.02185069846659
C           -1.84495801326360       -0.24486709011255       -0.04330810010525
O           -3.05286950483322       -0.43042369369107       -0.07271779411769
N           -0.97617193040095       -1.34725964153859       -0.04671786943724
C           -1.54365367818406       -2.67734867932819       -0.08844749122971
H            3.25752097098281        1.71489906710202        1.01507504271433
H            4.29213183903992        0.80632841115591       -0.22674155412105
H            3.38179157395915        2.54118261613328       -0.53064548937194
H            3.54198490470171       -1.76910540437086        0.05839646299649
H           -1.57824405835792        2.99953984217701        0.06937220171527
H           -2.81357987900194        2.11180635312667       -0.88172295346195
H           -2.85430649185987        2.04318377721110        0.89316486559778
H           -1.25918108377738       -3.26500661501272        0.78927822787851
H           -1.24744530949216       -3.21412943493675       -0.99492672232148
H           -2.62961617332189       -2.55856395994206       -0.09326929041612
H            1.30622370336427       -2.97510570250387        0.00755716230057
25
 energy: 43.820857067426 xtb: 6.6.1 (8d0f1dd)
C            3.27960830863424        1.30725499150101       -0.01965530748310
N            2.32424323365430        0.15948855045534       -0.10795828466376
C            2.60440422714213       -1.26867193449621       -0.00182022555998
N            1.39698412042533       -1.97309269729234        0.00595892748590
C            0.37949852519969       -1.11119887729471       -0.02646258035172
C            0.91490062656556        0.17736510015971       -0.04444172340563
C            0.11185211578663        1.32029240615261        0.01859776536788
O            0.46338643416162        2.48531843953106        0.05544937343615
N           -1.29568345042825        0.98337767174524        0.00705678359999
C           -2.19870250473550        2.10705804097774        0.03098735880580
C           -1.84544766787794       -0.25396205657526       -0.04165404669132
O           -3.04642507829434       -0.43531096370519       -0.07485204108599
N           -0.97386648730145       -1.35617209467832       -0.04300729132559
C           -1.55609020728128       -2.68467739851113       -0.08750900531638
H            3.12274711631362        1.80834332098238        0.92636362504946
H            4.26326000548821        0.81229650167561       -0.07233977035567
H            3.54607643785338        2.59497700154443       -0.57985887401853
H            3.52862484084678       -1.79642108978644        0.05473703140601
H           -1.56992723438389        2.99337683664602        0.08052391890301
H           -2.80690511586532        2.11617270682959       -0.87139866878653
H           -2.84784177809459        2.04129252755097        0.90169696368805
H           -1.28072780311189       -3.27551066729389        0.78900434835867
H           -1.27016491397404       -3.22164697462624       -0.99564253247155
H           -2.64217582360468       -2.55650431858966       -0.09117631015154
H            1.31058674081812       -2.98441642073031        0.01443446171378
25
 energy: 54.697117305829 xtb: 6.6.1 (8d0f1dd)
C            3.27422372998527        1.30114147566169       -0.02777566319044
N            2.32897559054189        0.13739041232823       -0.14231499089585
C            2.59892965201811       -1.27108414289749       -0.03895362452589
N            1.40648940162974       -1.98117332564165       -0.00858384672040
C            0.37696955220679       -1.11900280096079       -0.03148020447297
C            0.92464718353687        0.16250131387947       -0.05834674638549
C            0.12006892060808        1.31926224784549        0.01152250587118
O            0.47707324482611        2.47399238290865        0.06695768079855
N           -1.28162299371592        0.98273153891278        0.01150305351567
C           -2.19063865234790        2.10628720143082        0.04212748531447
C           -1.84296593814928       -0.25796328778004       -0.03542018992668
O           -3.04117060877771       -0.42945614093002       -0.06571945502973
N           -0.96874163635716       -1.36102367866073       -0.03707536223768
C           -1.55841888198926       -2.68887670226587       -0.08138388881854
H            2.91137391130645        1.90144981641299        0.83289031728902
H            4.26702764059678        0.77147802811877        0.13795623949886
H            3.69300974469969        2.64337178311679       -0.66020171148527
H            3.51892879228959       -1.80635993899771        0.04146389140273
H           -1.57406648247131        2.99898821469464        0.09099882157504
H           -2.80378759556049        2.11635243141739       -0.85689762932627
H           -2.83841768426388        2.03841296487258        0.91417074573883
H           -1.28268366185035       -3.27868331779876        0.79383963593874
H           -1.27820103994607       -3.22234092054086       -0.99189496023714
H           -2.64361693137782       -2.55570079199329       -0.08121159968089
H            1.31882941049827       -2.99266616096107        0.00086339213759
25
 energy: 60.549529301554 xtb: 6.6.1 (8d0f1dd)
C            3.25876793548243        1.26739284497310       -0.01889866842441
N            2.32985067388906        0.09582853049807       -0.12964422801278
C            2.58619047293430       -1.26517986209615       -0.06522723091718
N            1.41671913994813       -1.98486297193594       -0.01845381613708
C            0.37330765832043       -1.11945265461315       -0.02785373514908
C            0.93553028698976        0.15245509757932       -0.04834438274505
C            0.12402251484069        1.32255074501874        0.00312914636545
O            0.49250530391131        2.47092948434975        0.07821532287050
N           -1.25951943021068        0.98481884335539        0.00944047892427
C           -2.18344712397075        2.10597511660408        0.04099474024778
C           -1.83894982697870       -0.25887609490915       -0.03202846662036
O           -3.03337579478366       -0.41771603830086       -0.06132613767728
N           -0.96025518511229       -1.36107557200065       -0.03063066861379
C           -1.55272993144776       -2.69015983797065       -0.07603596653742
H            2.78477716177580        1.91690989640327        0.67190999934883
H            4.18328268675952        0.76607848566852        0.29088306863480
H            3.81574349057487        2.68526407693980       -0.66243683166193
H            3.51106017413766       -1.79161500166827        0.03713039467811
H           -1.58452087594105        3.01133907373854        0.08932357880473
H           -2.80073842630653        2.11064461415634       -0.85627889977458
H           -2.83187469255254        2.03450827884217        0.91342352967141
H           -1.27502099024138       -3.27602537342717        0.79957796871959
H           -1.27147825448002       -3.21894552021286       -0.98719253804621
H           -2.63660879031644       -2.55685354516699       -0.07532477091688
H            1.32897649071433       -2.99490401365325       -0.01731799088402
25
 energy: 69.227680703324 xtb: 6.6.1 (8d0f1dd)
C            3.24035676262314        1.22431606350574       -0.01828341155785
N            2.33156932548477        0.05251900263767       -0.09906203187617
C            2.57565661628353       -1.27652373419431       -0.08101868450825
N            1.41182983324320       -2.00050997143373       -0.02719754091715
C            0.37031168054338       -1.12688014313874       -0.02655116539401
C            0.94126780684075        0.13976583833044       -0.03666888156079
C            0.12677512388614        1.31382899819358        0.00640219928536
O            0.50366631618153        2.46222322929115        0.08809142199187
N           -1.24537169367249        0.98152456374371        0.01127082588320
C           -2.17641233413109        2.10320235543838        0.04256098423587
C           -1.83553147969555       -0.26036545335765       -0.02913019127711
O           -3.03000366207654       -0.40976773659054       -0.05697439746872
N           -0.96097561335151       -1.36484804213931       -0.02802711103166
C           -1.55386199875099       -2.69350911338293       -0.07495986486652
H            2.63886555392179        1.98540913939374        0.49998696291413
H            4.11407049548707        0.77019613730900        0.44040456235784
H            4.01853597091615        2.80384222638922       -0.67516815365255
H            3.50546492436381       -1.79479831551329        0.03343119546325
H           -1.58515864447704        3.01612736283437        0.09190497777783
H           -2.79540890738989        2.10379729512503       -0.85418498989425
H           -2.82437546140836        2.02737278146238        0.91535939498037
H           -1.27192360010655       -3.27885043416650        0.79998000292752
H           -1.27067073183392       -3.21979734884652       -0.98697313375088
H           -2.63678580196633       -2.56074106768035       -0.07268484699754
H            1.32032418702149       -3.00850503103856       -0.03547422691633
25
 energy: 72.126009256891 xtb: 6.6.1 (8d0f1dd)
C            3.20215665065516        1.14371647573940       -0.00672615363542
N            2.32976313232007       -0.00238662483108       -0.01889488194191
C            2.56660452058157       -1.29826271245418       -0.07522558930209
N            1.39195641689207       -2.02408675387817       -0.03199616712160
C            0.37128615684744       -1.13323536041570       -0.02916879314986
C            0.94004092225396        0.13415516856272       -0.02290425877009
C            0.12069939825699        1.29887214969177        0.01569456311680
O            0.50851328363972        2.46072363735658        0.08477782992815
N           -1.23769383693372        0.97756348917554        0.01019414229682
C           -2.17495211470176        2.10064863922383        0.03902809668828
C           -1.83060635257726       -0.25787779442460       -0.03096745796377
O           -3.03049049685281       -0.40404868290019       -0.05428585022193
N           -0.96838073799349       -1.36688137765036       -0.03212047957324
C           -1.55364941945536       -2.69418720786866       -0.07675461638363
H            2.57669348514910        2.00568515061416        0.30150877663430
H            4.03671258744886        0.80997630074723        0.51704981833386
H            4.21427643175312        2.98940451005660       -0.63299459341722
H            3.51155780178545       -1.79008827991709        0.03698259613675
H           -1.58497458490249        3.02001753244741        0.08956204561082
H           -2.79318795732447        2.09425245251961       -0.85889941099620
H           -2.82112546478660        2.01911615184825        0.91246427131073
H           -1.26347319131995       -3.27963244748181        0.79864926058946
H           -1.26347467836889       -3.22166245614374       -0.98822778746574
H           -2.63560074925604       -2.56585931764421       -0.07374067498256
H            1.29956346482587       -3.02689404020130       -0.04597078957327
25
 energy: 69.856316866096 xtb: 6.6.1 (8d0f1dd)
C            3.12468858317296        1.03182373387960        0.01943274316823
N            2.32477581271965       -0.03630044561912        0.06950833214170
C            2.57250066968137       -1.33482945216759       -0.04864669479730
N            1.35324969091321       -2.05207864415536       -0.03386929588792
C            0.38266483550552       -1.13980433904883       -0.04055331704678
C            0.92407113452983        0.14241475519862       -0.03140245533872
C            0.10839540311410        1.27609022443327        0.03444470539346
O            0.50706724483300        2.46711855601693        0.06330592141619
N           -1.24687353600612        0.97498904562352        0.00850048613690
C           -2.18037478300423        2.10075528192303        0.03250478163565
C           -1.82136186471071       -0.24929167866253       -0.03546781937057
O           -3.03501967099002       -0.40700796646169       -0.05407852898820
N           -0.98515807237695       -1.36717749651168       -0.04079973428025
C           -1.55416402224600       -2.69029569973651       -0.07802377795961
H            2.64715054157085        1.94919210775504        0.16641156005822
H            4.04446012033334        0.88097560517531        0.48457879663313
H            4.27955277904350        3.22966429345154       -0.55306555551917
H            3.53580019485347       -1.78858531816555        0.04636920039781
H           -1.58000430872698        3.01902018724512        0.08194353243928
H           -2.79349448696249        2.08719849558676       -0.86813008882983
H           -2.82294287673701        2.01568579178375        0.90617119397766
H           -1.25614624330195       -3.27931852084783        0.79909226424389
H           -1.25535419570109       -3.22558824443314       -0.98778307699684
H           -2.63580814341091       -2.56943853491162       -0.07571720359015
H            1.27453986184014       -3.04618313517907       -0.03769207288930
25
 energy: 70.489939428098 xtb: 6.6.1 (8d0f1dd)
C            3.08566458070659        0.96596302937958        0.03217087187708
N            2.31759625935406       -0.05321187671975        0.09366108987117
C            2.56662167777246       -1.37208727450582       -0.01751168289524
N            1.32830556378100       -2.07854240542972       -0.02548499628986
C            0.37637667256583       -1.16037012596332       -0.03763186479012
C            0.91123664586002        0.12369186286533       -0.02567315778848
C            0.10939153611725        1.26371432684706        0.04626376272356
O            0.51422655099629        2.44887077837027        0.06728051619061
N           -1.25431489545868        0.97699139380547        0.01157861288160
C           -2.18175728891793        2.10243890789097        0.03451250515067
C           -1.82258405689410       -0.25049880344225       -0.03612930922743
O           -3.03774773238818       -0.40993067955157       -0.05964348293077
N           -0.99689161604072       -1.37361001881458       -0.04734235920887
C           -1.55863365192997       -2.69519531026125       -0.08786155770753
H            2.67523009327198        1.99543429329799        0.04482637814419
H            4.08032229693167        0.88471564255622        0.46079682356941
H            4.36109888876798        3.47730447184106       -0.49262614425310
H            3.52961678935540       -1.81834323701897        0.07105945517625
H           -1.58378080893986        3.01701907857126        0.08169846608876
H           -2.79210924043831        2.08794482809025       -0.86648751689178
H           -2.82634603252898        2.01721030409653        0.90551619741561
H           -1.25812450515018       -3.28107837657713        0.78963420565271
H           -1.25377448908277       -3.22700489742630       -0.99687810596630
H           -2.64080874807347       -2.57940774717829       -0.08676500484600
H            1.26340017829909       -3.07298956255102       -0.03192980579870
25
 energy: 66.560595717201 xtb: 6.6.1 (8d0f1dd)
C            3.08924831895063        0.96583763366632        0.06260384747474
N            2.29845711691960       -0.02905623596986        0.06657996450726
C            2.55990291609525       -1.40032111521251        0.02405051491545
N            1.31485748915857       -2.09064295719067       -0.01057199520348
C            0.35935188139217       -1.18321260795507       -0.02897067917668
C            0.89092706243391        0.09768694049175       -0.01647508916989
C            0.11665685732982        1.26907842632766        0.04587501861589
O            0.51591731345540        2.42663055040710        0.07253559229039
N           -1.26996831774959        0.98426619769901        0.01041226766920
C           -2.18468429860344        2.10410809132978        0.03275055418550
C           -1.83270071938979       -0.25648317977249       -0.03788192199878
O           -3.04183543633817       -0.41646042788326       -0.06698907775365
N           -1.00460842075537       -1.37944447153540       -0.05355807159746
C           -1.56125743831732       -2.70310349328907       -0.09480777013036
H            2.77288674140905        1.95742197219156        0.07951183000944
H            4.15725163499669        0.83218703453218        0.29943740867461
H            4.32529808523979        3.73188840935285       -0.42286598852436
H            3.51443655071243       -1.85012593906299        0.09434310357337
H           -1.59058991395976        3.00885550748591        0.07692689414972
H           -2.79300662300845        2.09046295838365       -0.86801224426730
H           -2.83341515872173        2.02082164093313        0.90052277688826
H           -1.26087555198410       -3.27982790004891        0.78345364821983
H           -1.25323275507312       -3.22855123084236       -1.00178663728503
H           -2.64522459626836       -2.59071319620009       -0.09472872295706
H            1.26842193001235       -3.09227400566625       -0.02532132696218
25
 energy: 62.924109861266 xtb: 6.6.1 (8d0f1dd)
C            3.12252291869757        0.97319557882453        0.08695910038874
N            2.28176483446905       -0.04556137653788        0.06183546915005
C            2.53891653948669       -1.41496933641309        0.05782455011255
N            1.32320912785668       -2.09864191001963        0.00689713557891
C            0.33488475870879       -1.19965071112177       -0.01375073122750
C            0.88995209663040        0.06397764109666        0.01884047663361
C            0.12603234625366        1.28022825737420        0.03683959518824
O            0.51886186874272        2.40377329601313        0.07772118520241
N           -1.26536746480628        0.98343802789201        0.00746051395019
C           -2.18210722644765        2.10058250782026        0.03316886932783
C           -1.84675273183989       -0.26813443693173       -0.04195999708042
O           -3.04414079826600       -0.41349150604552       -0.07206316348867
N           -1.00222623895636       -1.38287807622343       -0.05851468634377
C           -1.56530885707477       -2.71218570967168       -0.10491415732309
H            2.80105111993800        2.00296000082789        0.03891650209447
H            4.16825211798702        0.72388786058710        0.22437833263825
H            4.34111862248507        3.95734468505900       -0.36892674975587
H            3.49468248438718       -1.86973322726719        0.09997178286211
H           -1.59597907060505        3.00738688797094        0.08222819252097
H           -2.79563811908227        2.09422064960290       -0.86693713779141
H           -2.83716687744137        2.01959438850457        0.89965943953909
H           -1.26454132370810       -3.28384799763287        0.77185619449818
H           -1.25449290848135       -3.22687541359722       -1.01271389648677
H           -2.64962664613135       -2.60067664950542       -0.10705946709907
H            1.27431409513406       -3.10491482843375       -0.03068345694158
25
 energy: 62.322659166342 xtb: 6.6.1 (8d0f1dd)
C            3.13149863280356        0.92450519971019        0.11642165888079
N            2.28446602046364       -0.06204985063938        0.07978868625421
C            2.53657123734082       -1.41928122927912        0.08155533168651
N            1.32572619538630       -2.09787265948907        0.01659024623410
C            0.33429874297762       -1.19727577522605       -0.01184480338643
C            0.89783620279304        0.06427837089183        0.02870745825165
C            0.12856395857006        1.27929079707194        0.03343096757039
O            0.52419741525990        2.41179074105659        0.07152439893883
N           -1.26199228970556        0.97730658085772        0.00078221220216
C           -2.18259199327212        2.09693559037648        0.02726567915192
C           -1.85022773090072       -0.26997193239082       -0.04794335119081
O           -3.04912251939469       -0.41248691863909       -0.07597266308084
N           -1.00322604930848       -1.38061657085337       -0.06319235724227
C           -1.56875725612599       -2.71205002972796       -0.10648056741167
H            2.86435721302232        1.96755141343754        0.06765658663670
H            4.20752452081264        0.69614912858529        0.08576457035978
H            4.22808347405459        4.08950484747978       -0.29786962351589
H            3.50031297890279       -1.87009045742715        0.09425832174156
H           -1.59373801427370        3.00787210574970        0.07943736212253
H           -2.79863681765777        2.09561639915666       -0.87304856636342
H           -2.83933479716116        2.01947963951949        0.89421554477864
H           -1.26652237646827       -3.28526073200056        0.77094048136592
H           -1.25595018377558       -3.22906120599018       -1.01433066653445
H           -2.65272108397009       -2.60357829757856       -0.11015268445213
H            1.27159918756329       -3.10165655247990       -0.02047032685034
25