25
 energy: 0.000000000000 xtb: 6.6.1 (8d0f1dd)
C            3.23720132972391        1.16630909158653        0.08434468864950
N            2.29877796055224        0.07527476373246        0.03981602671198
C            2.58028186251803       -1.21425391179017        0.03006175752192
N            1.43813944744728       -1.93419254010258        0.00098261751768
C            0.39035684826767       -1.05887462812143       -0.00790371763344
C            0.93510047688824        0.21347817468824        0.01709077332874
C            0.09450143016486        1.40504290868848       -0.00410946993748
O            0.49712746915594        2.54126690785742       -0.00342325656480
N           -1.25076628431515        1.06271869620815       -0.03085477937476
C           -2.21907191394203        2.15522079838987       -0.05001256521996
C           -1.81739470187490       -0.20012724136556       -0.04692818139228
O           -2.99983858926755       -0.37846413507442       -0.07008877579474
N           -0.92618577614240       -1.30210203518959       -0.03682761236648
C           -1.46982251276835       -2.64643077634382       -0.06029819901142
H            3.71247229913541        1.21471443890471        1.06488839270555
H            4.00791460421487        1.03430799217987       -0.67357688121503
H            2.69909982127087        2.09770098766290       -0.09130154035862
H            3.56654087521359       -1.63682977417947        0.04233139674524
H           -1.67107945562430        3.09322822573871       -0.02552706696334
H           -2.82428927394145        2.09428605349656       -0.95318074103337
H           -2.87644002486466        2.07745706351925        0.81450059976605
H           -1.17061985538665       -3.19584861009707        0.83242224714061
H           -1.14560246782873       -3.17511580834413       -0.95688266944647
H           -2.55549768731684       -2.55659960601237       -0.07459039105944
H            1.38130842369251       -2.94313824728853       -0.01389874052104
25
 energy: -5.449375006200 xtb: 6.6.1 (8d0f1dd)
C            3.23959402014658        1.23044999554557        0.07511372527892
N            2.32201577599586        0.13086310713002       -0.00419896620524
C            2.61726066554609       -1.22643324783678        0.04296830966985
N            1.43611009632447       -1.95238188990721        0.01893322950256
C            0.40412315557849       -1.08693292856543       -0.00360285110608
C            0.92871966737038        0.19838984589586        0.00615247747279
C            0.12649479056200        1.35621304472465        0.00028417862733
O            0.52328648255139        2.52413924515717        0.01159443027235
N           -1.25753506452187        1.02982690600874       -0.02780637391464
C           -2.19598770496006        2.13891143459506       -0.04721502193154
C           -1.81630176424861       -0.21242527342144       -0.04855816577309
O           -3.01782352081530       -0.38872502839422       -0.07692422533965
N           -0.94157391739577       -1.32013094855470       -0.03501980159697
C           -1.50299683908069       -2.65205870785762       -0.06390919670062
H            3.70480064544971        1.28189158491128        1.06585325243644
H            4.00754727361661        1.11452319161448       -0.69522207847299
H            2.71087843283844        2.17137128532334       -0.08934153413140
H            3.58742090860331       -1.64026416540327        0.09073904946560
H           -1.62571649155736        3.06546336566233       -0.02040899334370
H           -2.79920105069426        2.09495695693800       -0.95340321300892
H           -2.85369619111678        2.07589721666199        0.81835834212594
H           -1.21400528245342       -3.21503575753575        0.82630837537634
H           -1.18908555710262       -3.18864881918920       -0.96232904530119
H           -2.58778770359001       -2.54198731240857       -0.07855109959719
H            1.38140396981896       -2.96001796457601        0.01366574440537
25
 energy: -1.859845048954 xtb: 6.6.1 (8d0f1dd)
C            3.23994477035445        1.28636745487480        0.06361814010416
N            2.33764868428208        0.15976795299349       -0.04805122937568
C            2.60917999899382       -1.21837245441473        0.04246214483377
N            1.43810441690231       -1.96887356409455        0.03641535570363
C            0.40178651640382       -1.11163644122762        0.00114039990587
C            0.93484646357829        0.17252587038764       -0.00434384213068
C            0.13480951719008        1.32591152010773        0.00638623769635
O            0.54417626655875        2.48793961651276        0.03038574517626
N           -1.25007894371151        1.00749299337903       -0.02301391101881
C           -2.17203309472339        2.12814225560444       -0.04534875055887
C           -1.82019514477123       -0.22962653255515       -0.04984139279806
O           -3.02453718545777       -0.39324437222859       -0.08605399121735
N           -0.95069989020782       -1.34005110226115       -0.03218393662655
C           -1.53615422672524       -2.66336001777626       -0.06735641339185
H            3.69438414342916        1.34248963110046        1.06181565556413
H            4.00490353230479        1.19226180966474       -0.71625839471486
H            2.72348447618151        2.24051229903920       -0.08742691974296
H            3.57757154055767       -1.62863894082739        0.13767452586779
H           -1.58554409749141        3.04457646110955       -0.01673976043200
H           -2.77072931335470        2.09430670912742       -0.95472838709203
H           -2.83039382126781        2.07554308886303        0.81967130634346
H           -1.26107250820140       -3.23699163387119        0.82015795689775
H           -1.23520803789730       -3.20454158607041       -0.96737800203580
H           -2.61994309485905       -2.53343299766154       -0.08294131833772
H            1.39071024735230       -2.97924011225765        0.04081333862027
25
 energy: 4.741586921989 xtb: 6.6.1 (8d0f1dd)
C            3.24166539529024        1.34223732987270        0.05344036645062
N            2.35536772048706        0.18682689538219       -0.09156314686404
C            2.59735586588640       -1.21319805506537        0.03767212578460
N            1.43728489605468       -1.98734294573401        0.04913336080551
C            0.39854934458610       -1.13617515749710        0.00417627344274
C            0.94325004243011        0.14658114192360       -0.01510365367010
C            0.14422719793089        1.29466123602275        0.01181869031567
O            0.56531149423736        2.45039393092582        0.04885486340749
N           -1.24222047299451        0.98477028496296       -0.01820945425998
C           -2.14756408570610        2.11729369480629       -0.04330711886407
C           -1.82421774493688       -0.24686140182137       -0.05148973856123
O           -3.03138017806182       -0.39783493077162       -0.09628760452151
N           -0.96042616849264       -1.35980271886978       -0.02949780146676
C           -1.56914371879403       -2.67417579505215       -0.07041353019737
H            3.68248605025972        1.40299379322260        1.05987564915097
H            4.00276646095346        1.26839906976774       -0.73607313879874
H            2.73843238781204        2.30969967650356       -0.08573693397184
H            3.55786023313520       -1.62236699235622        0.17534670892299
H           -1.54560495150908        3.02373342915584       -0.01275100716632
H           -2.74234888628051        2.09389563266269       -0.95540266154731
H           -2.80657192760675        2.07506382778042        0.82101759677202
H           -1.30720166367581       -3.25739573767301        0.81469528541087
H           -1.28074079192143       -3.21929920144755       -0.97217378413524
H           -2.65152357438742       -2.52364564309422       -0.08668837098829
H            1.40018064345539       -3.00029353987177        0.06611117100741
25
 energy: 14.220814558167 xtb: 6.6.1 (8d0f1dd)
C            3.24630696643725        1.39999085717191        0.04223730611532
N            2.37601812757410        0.21374695918905       -0.13321317971897
C            2.58684673977958       -1.20742570722816        0.03479441019122
N            1.43610313474747       -2.00675836604598        0.05847407271403
C            0.39585273038409       -1.16015259794886        0.00667809945957
C            0.95285517356904        0.12171106517989       -0.02632374616919
C            0.15262466736566        1.26383943034656        0.01809428987406
O            0.57971966452570        2.41443192970124        0.06845185703330
N           -1.23366453225403        0.96232302677947       -0.01279039407317
C           -2.12332438165363        2.10587735277181       -0.04061786505233
C           -1.82528519997999       -0.26375814160721       -0.05419435316353
O           -3.03375785681611       -0.39861250820604       -0.11172209651930
N           -0.96929380038095       -1.37982600373267       -0.02696409360986
C           -1.60293514244287       -2.68447197163260       -0.07439486243053
H            3.67261241747817        1.46558536336186        1.05673614645752
H            4.00285771683604        1.34416876123983       -0.75688907144351
H            2.75602238477942        2.38034796733184       -0.08644527167688
H            3.54197598693662       -1.60943158912700        0.21474906348478
H           -1.50604109536671        3.00213839690475       -0.00831242622751
H           -2.71476043438836        2.09273339257302       -0.95503830855643
H           -2.78219094057305        2.07370856440075        0.82352136928169
H           -1.35602851723679       -3.27821001189488        0.80797769668672
H           -1.32763643085358       -3.23330871464069       -0.97798869519069
H           -2.68346579326967       -2.51246570645885       -0.09200278918125
H            1.40997926226652       -3.02282712983251        0.08379201134973
25
 energy: 26.793739444135 xtb: 6.6.1 (8d0f1dd)
C            3.25593167411886        1.45846783479496        0.03517098473156
N            2.39788889593368        0.24302670124426       -0.16987816174022
C            2.57389257916700       -1.19978233922659        0.03378236632991
N            1.43378005112887       -2.02705334373583        0.06357373869117
C            0.39075509560636       -1.18428962545685        0.00720795964621
C            0.96023054634084        0.09704229855343       -0.03873067057880
C            0.15733521294686        1.23217562069189        0.02190844805691
O            0.58583775655245        2.37800105236803        0.08561261937699
N           -1.22802903233665        0.93867752406463       -0.00848261634247
C           -2.09987384539649        2.09445021824833       -0.03868906474020
C           -1.82948350049057       -0.28125590848446       -0.05727131536739
O           -3.03979214342340       -0.39972961583690       -0.12479408620353
N           -0.98024670216250       -1.40035839668473       -0.02521094011381
C           -1.63710742409742       -2.69566096573233       -0.07692774595508
H            3.66760761087388        1.52631527537534        1.05652910649726
H            4.00520303529843        1.41616375280339       -0.77750708507239
H            2.77822069322115        2.45158284870301       -0.08241344155295
H            3.52215289342776       -1.59575200227778        0.24477681365678
H           -1.46555627192407        2.97922420452815       -0.00530904286659
H           -2.68833380964274        2.09222300894633       -0.95504390614008
H           -2.75725332954170        2.07312448168351        0.82610492152559
H           -1.40375020185930       -3.29879214207626        0.80283624634280
H           -1.37562009255821       -3.24888134941479       -0.98201648888864
H           -2.71547964690746       -2.50290887608966       -0.09446387947594
H            1.41933660674686       -3.04687275757330        0.09131898021648
25
 energy: 43.115899728881 xtb: 6.6.1 (8d0f1dd)
C            3.26627429908643        1.51836238050324        0.02827871041555
N            2.41841588368419        0.27136440450627       -0.21065029347447
C            2.55772202869031       -1.19328641002639        0.03652878617612
N            1.43137158905416       -2.05119806043527        0.06949099769810
C            0.38498688658991       -1.21146957597138        0.00533817278317
C            0.96787027271849        0.06803868038116       -0.04809586070364
C            0.16793502516151        1.19969947477213        0.02811700026304
O            0.60579963095987        2.33802601251417        0.10285500233862
N           -1.21742864425698        0.91817051888870       -0.00075474804350
C           -2.07310976025760        2.08471267131541       -0.03456796163612
C           -1.82653544649172       -0.29533672471652       -0.05965774032896
O           -3.03740634000728       -0.39056773549000       -0.13159300233569
N           -0.99070371785665       -1.42101367874538       -0.02595909774492
C           -1.67100548944922       -2.70598984076001       -0.08216729045960
H            3.65459442690521        1.58939502258260        1.05962996686946
H            4.00277120318843        1.48380606106209       -0.80273625270385
H            2.80251209249480        2.52300777681626       -0.08512575425197
H            3.50100404552800       -1.57996940134869        0.26713613588999
H           -1.42490460355297        2.95955226276473        0.00082409351771
H           -2.65752825761782        2.09183598824816       -0.95346142894894
H           -2.73129140916097        2.07306399514700        0.82901114645652
H           -1.44952336989191       -3.31736177094293        0.79523846975437
H           -1.42144871251136       -3.26278103363177       -0.98863451469305
H           -2.74680814624379       -2.49294600735608       -0.09964918526797
H            1.42836807846267       -3.07421134195294        0.10300331520774
25
 energy: 63.296869813290 xtb: 6.6.1 (8d0f1dd)
C            3.28658985974962        1.58333816313543        0.02727197179094
N            2.44908375087122        0.29830777104405       -0.24496671537323
C            2.53664357138433       -1.18573184536065        0.03789394844676
N            1.42368731135988       -2.07445731341716        0.07363782871181
C            0.37560772198245       -1.23728642966175        0.00311055654787
C            0.97408598517584        0.03879947739873       -0.05916644561701
C            0.17621391416226        1.16810831421724        0.03615160359585
O            0.62667846574613        2.29841162034637        0.11970939908659
N           -1.21039405821212        0.89728447805720        0.01026967774651
C           -2.04865936529564        2.07541910136908       -0.03283007834356
C           -1.82812698564113       -0.30948393329763       -0.05882618860788
O           -3.03800195653485       -0.38435101490396       -0.13632246833877
N           -1.00475356833879       -1.44156981821248       -0.02411713695547
C           -1.70553793291604       -2.71786751297404       -0.08547809013373
H            3.65609029927787        1.65445985992477        1.06750773154682
H            4.00675584381268        1.56183786734274       -0.82297293764188
H            2.82933954890313        2.59572575748431       -0.08021271596724
H            3.47698212519708       -1.56431730560322        0.27652930877666
H           -1.38600346193628        2.93927817312806        0.00327797794230
H           -2.62865577951876        2.09026924457382       -0.95458828890674
H           -2.70880825597789        2.07611887082747        0.82806524193972
H           -1.49507662805528       -3.33762933599653        0.78907751661722
H           -1.46539902875497       -3.27737622100984       -0.99302130840159
H           -2.77964150011754       -2.49026852697688       -0.10355894100309
H            1.43075533372787       -3.10045413301421        0.10983312012756
25
 energy: 160.772031728956 xtb: 6.6.1 (8d0f1dd)
C            3.32424260391245        1.71999212352049        0.02894124259094
N            2.71584484079766        0.60251232853057       -0.55700342013446
C            2.29287508059868       -1.13824580118129        0.17909800057308
N            1.35657302739048       -2.19673454004591        0.02485792079833
C            0.30108726548245       -1.34555373227501       -0.00732426821866
C            1.03946117076800       -0.15103981175303        0.09151892007159
C            0.25936760295419        1.07624439344421        0.09140451925960
O            0.68011617219366        2.20823163419848        0.14126529701668
N           -1.15609018435082        0.85362350442103        0.01487708626850
C           -1.99530443257595        2.05307239260645       -0.03213064777915
C           -1.82920996473580       -0.32673290130050       -0.06137622633189
O           -3.03865800064415       -0.36185694519327       -0.14074367136415
N           -1.05310963422102       -1.48415450216507       -0.03914254813839
C           -1.76254263138531       -2.74110452292127       -0.09524129571616
H            3.64556514846409        1.72671561637145        1.09297014223448
H            4.03512639603270        1.68354409323692       -0.85264303667846
H            2.88113174202890        2.74058559111579       -0.07565769674638
H            3.32088979319376       -1.42596337072770        0.31674341384295
H           -1.34218905889257        2.92041961386049        0.00909930993214
H           -2.58270909788911        2.07946046711750       -0.95253746501765
H           -2.67023386552049        2.06295455948778        0.82171257638278
H           -1.54395253754443       -3.35576439337841        0.78059476762408
H           -1.52184404324663       -3.29923179295239       -1.00161060842115
H           -2.82848517670019       -2.49198366686799       -0.10656036782596
H            1.41999756192741       -3.20115373697681        0.10154857387020
25
 energy: 167.933373174065 xtb: 6.6.1 (8d0f1dd)
C            3.33331241828474        1.86917323619232        0.08579834219214
N            2.95834208797968        0.80849601104212       -0.57710453696765
C            2.20684570393391       -1.18517725758580        0.14766098076296
N            1.31341352106895       -2.26522336486213        0.06425046400665
C            0.25430833129290       -1.40639261470083        0.00962168171056
C            1.03540852606761       -0.24043701657966        0.06245622764680
C            0.29737099857925        1.01335168839087        0.08127668026676
O            0.71709964320765        2.14865179354502        0.15239999863431
N           -1.13773516420781        0.82441851667017        0.02084902067353
C           -1.96168119393723        2.03862578192383       -0.02866143420604
C           -1.83689260900157       -0.33958038900569       -0.06307561438726
O           -3.04943406243976       -0.35465521145122       -0.14871724872694
N           -1.08738549138502       -1.51605645528510       -0.03234059809087
C           -1.81006637751966       -2.75858966577012       -0.09605127297242
H            3.62614687561087        1.82669811526903        1.15182737161982
H            3.97977453038796        1.69452285357042       -0.93938518008609
H            2.94790634713897        2.89265971412857       -0.08075266848480
H            3.25902795843815       -1.38565409409368        0.27942627873228
H           -1.29870938863475        2.89735101414680        0.01265225678673
H           -2.55212763579134        2.07727307021250       -0.94828707993067
H           -2.63978851471801        2.06305125762975        0.82328416560009
H           -1.59638352928720       -3.37818582376771        0.77645573154008
H           -1.57019851358088       -3.31348264990112       -1.00465561016179
H           -2.87053864709271       -2.49185096090954       -0.10953226015747
H            1.40890023897725       -3.26220174902128        0.11856110016495
25
 energy: 119.335293027570 xtb: 6.6.1 (8d0f1dd)
C            3.30715627902609        1.96881887023349        0.20909221867579
N            3.22454649754338        0.98370996630088       -0.57911366488663
C            2.17251457654312       -1.19789048047931        0.13039085467568
N            1.29748745718889       -2.29848383379463        0.08355722208945
C            0.23151380794582       -1.44427708243583        0.01795897213930
C            1.02827693874015       -0.28432275618638        0.05437825503429
C            0.31578617322386        0.97469138193531        0.07879919183321
O            0.74797375734871        2.10362778824125        0.15659448893551
N           -1.12094066580311        0.80651349610166        0.02118493205356
C           -1.93484780318860        2.02952135537293       -0.02745584299422
C           -1.83605210863992       -0.34859110026927       -0.06326974150776
O           -3.04744685237140       -0.34466540041259       -0.15223064478656
N           -1.10531958140964       -1.54101703841593       -0.02957888053384
C           -1.84837279690488       -2.77104931724170       -0.09611882672682
H            3.51404635252723        1.88682752435755        1.25548659212438
H            3.83534942196155        1.59008648402189       -1.20925033740610
H            3.06525850521686        2.99786851892014       -0.06840872102800
H            3.22913048831616       -1.35407367236358        0.26368183155858
H           -1.26094456710905        2.87813851468479        0.01534395010494
H           -2.52535414440984        2.07866970802174       -0.94716413696705
H           -2.61419823156123        2.06555033374889        0.82349404285250
H           -1.64390007541350       -3.39720156088738        0.77299212958049
H           -1.61792305930918       -3.32702304416230       -1.00619283791563
H           -2.90537464804819       -2.48954380648688       -0.10906489127225
H            1.40760652603732       -3.29486134311379        0.11790662350580
25
 energy: 105.861871996131 xtb: 6.6.1 (8d0f1dd)
C            3.32897360350280        2.03348243739024        0.20778580507564
N            3.27350012800146        1.04187065302487       -0.57077221974291
C            2.14465490668067       -1.20935003962129        0.13951488873082
N            1.28114334467959       -2.32837076063067        0.09352859021847
C            0.21334327885079       -1.47764635970959        0.02242507637050
C            1.02219399823373       -0.31768685196285        0.06642061743087
C            0.32958829579756        0.94324304275838        0.08956320849828
O            0.77298363896517        2.06475290736903        0.17287876390333
N           -1.10398559999514        0.79022325897042        0.02126496268867
C           -1.90353330635692        2.02205830519563       -0.02520362952468
C           -1.83570604186473       -0.35790451528204       -0.06155695841842
O           -3.04571723972717       -0.33191173583149       -0.15065328881042
N           -1.12370160617128       -1.56245458068310       -0.02875422473491
C           -1.88627245051066       -2.78231300470536       -0.09996011540258
H            3.47294601859191        1.94993806561462        1.26540722862078
H            3.80713514030871        1.58089235445766       -1.27729083441365
H            3.10210333484450        3.06868361465695       -0.07655442633200
H            3.20237816793056       -1.32160934165993        0.25898631742691
H           -1.21629240926111        2.85896329000099        0.02137240041190
H           -2.49017915625110        2.07898346268952       -0.94693991814053
H           -2.58444330510895        2.06704382241964        0.82399536661348
H           -1.69305894715673       -3.41580466807991        0.76632064499608
H           -1.66512829123876       -3.34046005348984       -1.01134635557104
H           -2.94057601604891       -2.48686526038199       -0.11279069207503
H            1.40293401144379       -3.32632384973461        0.11779661633073
25
 energy: 96.183026826082 xtb: 6.6.1 (8d0f1dd)
C            3.36646773104922        2.10028548856109        0.21166764136922
N            3.31812507390424        1.10298064142582       -0.54958258318329
C            2.11877989644849       -1.22260990403850        0.14954049238924
N            1.26232283039692       -2.35785529351683        0.10136437568489
C            0.19271717931693       -1.50890835893070        0.02798380935679
C            1.01338408740422       -0.34847774684911        0.08044648791970
C            0.34478577032555        0.91828624879976        0.09873153182576
O            0.79872939468883        2.03551191120962        0.18958889030412
N           -1.09020978107533        0.77439376618008        0.01731078316007
C           -1.87694304351502        2.01473415824146       -0.02608729857676
C           -1.84284619135852       -0.36709938934837       -0.05909571871638
O           -3.05403961506459       -0.32407267348349       -0.14373164717889
N           -1.14484795617761       -1.58256611295679       -0.02794853782748
C           -1.92313924102074       -2.79450243987795       -0.10242707062994
H            3.45720075325449        2.00960002793208        1.27783379815293
H            3.77680778753599        1.57779831448420       -1.33124122956414
H            3.15244516842241        3.14253934353071       -0.06400689892319
H            3.17802644048669       -1.29359287456160        0.24958664038434
H           -1.17726197293874        2.84037725742074        0.02403200747359
H           -2.46145777894684        2.08062689854830       -0.94829357038604
H           -2.56005444490357        2.06956355459408        0.82070914449164
H           -1.74069192499054       -3.43388696077650        0.76154297764036
H           -1.71090518488341       -3.35465915693534       -1.01474245028703
H           -2.97528111159765       -2.48986221798204       -0.11508151732065
H            1.39822765379571       -3.35715913009339        0.11817732031502
25
 energy: 90.205214847471 xtb: 6.6.1 (8d0f1dd)
C            3.38945196510974        2.16752234326204        0.21650148578501
N            3.38215671335994        1.17546926970569       -0.54748659702622
C            2.10881724191597       -1.24045443487638        0.15769695572727
N            1.25150824638577       -2.38221931854592        0.10013136265204
C            0.17872740706145       -1.53694577477082        0.03210678660743
C            1.01340013139328       -0.38049870313947        0.09532738178808
C            0.36570045591680        0.89440355671684        0.10257259215036
O            0.83389975175850        2.00527343633896        0.19762870157042
N           -1.07374869981932        0.75899283700850        0.01557035186225
C           -1.84739537761423        2.00810580646132       -0.02562774607950
C           -1.84807926302974       -0.37492636327284       -0.06012185147995
O           -3.06025632878303       -0.32084003478629       -0.14686711151008
N           -1.16232108398451       -1.60083484098691       -0.02818141749560
C           -1.95691285946608       -2.80597377100889       -0.10421196956191
H            3.41539055219913        2.05336018294887        1.28607056717480
H            3.78664318218629        1.63245396370165       -1.36516824859831
H            3.18417903281162        3.21409336173325       -0.06826449518366
H            3.17387153521277       -1.30458781731720        0.25712627291089
H           -1.13635138250828        2.82256096962945        0.02843819553715
H           -2.43153137945019        2.08049259886649       -0.94690098721776
H           -2.53244817712830        2.06785489381515        0.81837197837667
H           -1.78553452604344       -3.45069580210442        0.75777412200433
H           -1.75664547228255       -3.36863919359598       -1.01762573900260
H           -3.00813161912929       -2.49576295275894       -0.11563814235356
H            1.39132275430732       -3.37976651497795        0.12899425394012
25
 energy: 84.515082109714 xtb: 6.6.1 (8d0f1dd)
C            3.42929534508492        2.22539074285146        0.21838624620351
N            3.45119590036955        1.23511308384791       -0.54580950239765
C            2.09931533522542       -1.26079945250794        0.16127382648470
N            1.25077739597686       -2.41191025333428        0.09767396243633
C            0.16636422425169       -1.56950567753436        0.03569353469323
C            1.00771359091523       -0.41252536889289        0.10117960807261
C            0.37471704139235        0.86272372002504        0.09261526122787
O            0.85556409768468        1.96640824074727        0.18140736165331
N           -1.06359205137324        0.74150756176099        0.01476228954087
C           -1.82293400004693        1.99863933983551       -0.02331189474003
C           -1.85476107721269       -0.38310935137406       -0.06142222841176
O           -3.06726996708105       -0.32221897180536       -0.15206134440728
N           -1.17878649427583       -1.62104031917644       -0.02875356504158
C           -1.98998622277348       -2.81857898992422       -0.10924081291706
H            3.39044730862301        2.10619027944698        1.29476123773715
H            3.80144445747408        1.64493388488208       -1.41460038647227
H            3.24544673938329        3.27206446496244       -0.06669881585108
H            3.15775801358516       -1.28848577410651        0.24047774361972
H           -1.09958901552867        2.80140087947614        0.03470505593644
H           -2.40367406206356        2.08004102260222       -0.94506237379434
H           -2.51355115030788        2.05801654306523        0.81813168911082
H           -1.83239197422371       -3.46708843197951        0.75144039292153
H           -1.80073641223173       -3.38220237471708       -1.02430097824964
H           -3.03896494016099       -2.49897922803448       -0.12625125730540
H            1.38663059550227       -3.41259974647317        0.12919248757445
25