25
 energy: -42.443433540784 xtb: 6.6.1 (8d0f1dd)
C            3.28990198758703        1.27620700691241        0.12758460512896
N            2.39628084263555        0.14746450826596        0.07330545346931
C            2.72905230277923       -1.15040457081055        0.07999136631143
N            1.61078904228543       -1.91494043968225        0.07057068920038
C            0.50463783884524       -1.09321103981640        0.04589769025233
C            1.01004111499149        0.23228116222127        0.04565824672730
C            0.17930285993445        1.36724617629460       -0.01007274925897
O            0.53895197158036        2.54832556624344       -0.01257681952500
N           -1.18080936425152        0.99852606820948       -0.07163581217078
C           -2.16604420726503        2.06542720787266       -0.14652293533994
C           -1.70738542136596       -0.25816897798279       -0.06442116200091
O           -2.89848008658424       -0.45267530078373       -0.13470528157931
N           -0.81164630838273       -1.38158356138004        0.01944630006555
C           -1.45961866228320       -2.58454752725093       -0.10358662638098
H            3.89570943455670        1.25574852705067        1.03875041309326
H            3.95176894344413        1.28511205398253       -0.74205937263025
H            2.68871299664921        2.18472843697327        0.13140509020456
H            3.73317390422711       -1.52118987728353        0.12510969631244
H           -1.62272056059734        3.00554028068430       -0.12760897813645
H           -2.74164696691776        1.98040359835231       -1.06613398836416
H           -2.85539879116769        1.99335976535475        0.69378435531163
H           -0.90624161525936       -3.48748338457724       -0.07016414520364
H           -2.44483630742755       -2.51875542685221       -0.53589889563566
H           -3.74750040934921       -3.22521529993193        0.29639158039222
H            1.62671775313937       -2.92203249418233        0.07141493124572
