72
 energy: -99.294729053303 gnorm: 0.029367961923 xtb: 6.6.1 (8d0f1dd)
N           -1.63654847236181        3.56217020000340        0.51228898870717
C           -2.30625453128844        2.51571679112077        0.71751947058254
C           -2.94861634670201        1.55488684135483       -0.28906793941759
C           -3.43305178981117        0.80680741314216        0.95356933175229
C           -4.31201879454870       -0.27673024098962        1.19881258971486
C           -5.10309257746824       -1.13308092410151        0.45985525290272
O           -6.01300684352952       -1.92102220991399        1.06212783446817
C           -6.34493597686742       -1.80730029344130        2.42473348249805
C           -5.20746637741582       -1.47828953656118       -1.00949617195287
O           -6.48131755062855       -1.39191585591680       -1.42393460362892
C           -6.79055129589337       -1.83584439884510       -2.72573591868371
C           -4.13963918165249       -1.86615712283244       -1.71020559559353
C           -2.79543660969300        1.70598798736663        1.81231895217255
C           -1.89230509543491        0.80418775129219       -1.15656185320254
C           -1.01584983586409       -0.08390760143362       -0.39043156215115
C            0.03108728820196        0.42909904404013        0.51407643371667
N            0.91211583262389       -0.60987520253796        0.99153288782499
C            2.31344158963947       -0.26897089142831        1.05752723946936
C            2.96396889705648       -0.38685118528824       -0.33409461464740
C            4.42413519597813       -0.05048720938234       -0.27219217735160
C            4.86255928076100        1.25205210623118       -0.47250181671559
C            6.20896747037353        1.56983350075387       -0.40438912464364
C            7.15353349854152        0.58950808238836       -0.12718167866880
O            8.48128027683616        0.77911767394773       -0.04468649844165
C            9.01202532347038        2.06472082715539       -0.27232946276640
C            6.71433638044208       -0.74840981469248        0.09109769261697
O            7.69134184085720       -1.63467863507711        0.35437082386076
C            7.36108534130042       -2.98700676532663        0.56719154906829
C            5.35991174172085       -1.03983656683369        0.01602422789678
C            0.39130466818973       -1.38755137577158        2.08424827104708
C           -4.05085287900598        2.15990111057022       -1.17081159294873
C           -5.11747335265017        2.84076880474936       -0.31308543262712
C           -3.47072320067051        3.16101120052482       -2.16651278466720
H           -4.45349804152252       -0.39723589346098        2.26947508524234
H           -5.53190941915151       -2.15291888941546        3.07003737524164
H           -7.20777588948601       -2.45716083055862        2.56222482678754
H           -6.61631788004258       -0.78252824749376        2.68986823074027
H           -6.52067434965835       -2.88741259971452       -2.85951931249496
H           -7.86681846207810       -1.72011078699101       -2.83048824093502
H           -6.28274339334982       -1.22977689118917       -3.48223824291905
H           -4.19545111982068       -2.18203271842841       -2.73375035102347
H           -2.74011868238756        1.79442770821305        2.88114993005491
H           -2.42780959572045        0.23813567644809       -1.91894770794578
H           -1.30430180858231        1.59683760603101       -1.62964620015877
H           -3.18116065566236       -1.91849378780159       -1.23463005227805
H           -1.14805935341673       -1.15224138946084       -0.44020632171968
H           -0.46325338798561        0.94234951711532        1.36957528395803
H            0.61157026104782        1.21075439791976        0.00933701641266
H            2.81083013483907       -0.96165275839174        1.73825850477912
H            2.46738189224882        0.74953901746115        1.44342620971568
H            2.45875364291856        0.28717582200760       -1.02660723979015
H            2.82412884953770       -1.40785216444566       -0.69029251492693
H            4.14969215747205        2.03099571826411       -0.69600747840358
H            6.51794880616128        2.58829537394917       -0.57430170037111
H            8.64031655157943        2.78692083031102        0.46067881816883
H            8.78362095631244        2.41797504509749       -1.28229289148249
H           10.08952700305995        1.95964583229368       -0.16123872383379
H            8.30755409986807       -3.49470531237938        0.74268701857782
H            6.71702612131084       -3.10855178946010        1.44365453436104
H            6.87285274952577       -3.42300285763465       -0.30962130915753
H            5.01700594852547       -2.05071071230165        0.17051128843588
H           -0.64461879161117       -1.65042760581646        1.87704965631708
H            0.42624738642363       -0.84707946106386        3.03981862150083
H            0.96855475433024       -2.30474968459937        2.18462935745818
H           -4.52582124222111        1.33381421583815       -1.71451608633331
H           -4.68624930295883        3.66964575061150        0.24355071839300
H           -5.56266171424777        2.14110475943543        0.39065272521347
H           -5.90739887751948        3.23043940866061       -0.94956836302380
H           -2.85506467021342        3.88809841606611       -1.64253325648261
H           -2.86679667791205        2.66859878411599       -2.92379598741576
H           -4.27581023316085        3.68827938353306       -2.67121716458518
H           -1.31413608400424        4.08189713559438        1.32202258629374
72
 energy: -99.297660159455 gnorm: 0.014479901943 xtb: 6.6.1 (8d0f1dd)
N           -1.64797170458941        3.54466881800052        0.50958986193000
C           -2.31930126657264        2.49650096077825        0.70477609178224
C           -2.95855723712802        1.53979804142533       -0.30572475658735
C           -3.44448168026580        0.78595038421528        0.93373428854524
C           -4.31370391081254       -0.28709914842732        1.21067118351599
C           -5.10339909749383       -1.13057142657636        0.47572515483676
O           -6.01808741440192       -1.92231772708674        1.06439470115437
C           -6.35041329594017       -1.81418870286987        2.42828846115066
C           -5.18268477804427       -1.41869131187111       -0.99643093397757
O           -6.45970609234904       -1.35120740898032       -1.41479275372738
C           -6.77386192788212       -1.81977381266935       -2.70924499620825
C           -4.12044028786961       -1.82770964653381       -1.69509509842745
C           -2.81718729765538        1.67617126823267        1.78751945121902
C           -1.89193484229685        0.79772783946275       -1.16629705369726
C           -1.01645049699810       -0.08716522170175       -0.39429565601981
C            0.03010110203227        0.42794619691055        0.51000192270725
N            0.91151847962862       -0.60976584849306        0.99002149400440
C            2.31283432147037       -0.26849407258022        1.05643081632579
C            2.96388706693201       -0.38692914908292       -0.33494413471128
C            4.42409545662657       -0.05068282090815       -0.27269665695409
C            4.86244287000258        1.25187229521364       -0.47286065330192
C            6.20878158014875        1.56979689897611       -0.40409820329071
C            7.15326709056136        0.58946694100510       -0.12679951389150
O            8.48087218272181        0.77909895835945       -0.04418102284716
C            9.01173534397308        2.06463184705460       -0.27164929500292
C            6.71413754501728       -0.74857983857448        0.09127426079540
O            7.69121243525815       -1.63465721472745        0.35450504026602
C            7.36125649100501       -2.98713569242113        0.56706293913063
C            5.35979633659399       -1.04004665856055        0.01592544152687
C            0.39039171702797       -1.38562430989377        2.08503236948976
C           -4.05774194573226        2.15620550229832       -1.18120239735433
C           -5.11867341974946        2.83931258099490       -0.31750459516338
C           -3.47214744335736        3.15992944014061       -2.17084986894208
H           -4.44878225897078       -0.39956568757786        2.28270020899421
H           -5.53564163010661       -2.16051029401492        3.07160113911031
H           -7.21307877082094       -2.46411045663186        2.56486293148780
H           -6.62076511834457       -0.78885985312007        2.69527911639199
H           -6.50242908538121       -2.87241920485287       -2.83198282859266
H           -7.85171306076874       -1.71081755038108       -2.81315781062437
H           -6.27360058937775       -1.22419037417568       -3.47869459474772
H           -4.18540162482693       -2.16027815454945       -2.71497479589074
H           -2.76366753758113        1.76341169649546        2.85741585547198
H           -2.42176881804066        0.23166449589256       -1.93210330050834
H           -1.30474145230453        1.59455976459520       -1.63307966185097
H           -3.16445331455317       -1.90628706335599       -1.21752232330622
H           -1.14731027572471       -1.15484461671995       -0.44163677792893
H           -0.46401895654384        0.94314311320558        1.36436039755582
H            0.61055258586310        1.20847106702003        0.00401791571481
H            2.81021740079164       -0.96109420402289        1.73727024577846
H            2.46681570229165        0.75007761976420        1.44217293780384
H            2.45903174229048        0.28687124493734       -1.02792431147720
H            2.82403883514201       -1.40802616815900       -0.69086492181414
H            4.14958746738401        2.03071996771432       -0.69680167735261
H            6.51766017324160        2.58835572191478       -0.57354109941862
H            8.64028631108527        2.78673328292271        0.46156779726489
H            8.78320608755776        2.41816339287752       -1.28147413311032
H           10.08925968512539        1.95941234504686       -0.16079493102657
H            8.30779904027099       -3.49458943361259        0.74292436896343
H            6.71682890470850       -3.10896531950365        1.44319787857391
H            6.87358940459099       -3.42314247054896       -0.31004616533290
H            5.01689233166878       -2.05092588605454        0.17037914388922
H           -0.64552371878973       -1.64915796479159        1.87859916464846
H            0.42535287775864       -0.84283777188788        3.04016587778579
H            0.96785430265831       -2.30291615341696        2.18750838621545
H           -4.53609423341333        1.33423732712696       -1.72737147093882
H           -4.68344040104958        3.66598838969626        0.23960551164331
H           -5.56399865069211        2.14044794062340        0.38686752124263
H           -5.90932540495623        3.23307239573875       -0.95045419950585
H           -2.85514475828791        3.88329361399388       -1.64282799334461
H           -2.86816481838143        2.66819181684870       -2.92856341011511
H           -4.27501354687144        3.69152489638079       -2.67466439468385
H           -1.32796510954858        4.06090009609931        1.32296335732015
72
 energy: -99.299261902696 gnorm: 0.009293045199 xtb: 6.6.1 (8d0f1dd)
N           -1.66311998855321        3.52246557677074        0.50448882454383
C           -2.33527836900384        2.47410200949232        0.69006746798040
C           -2.97023219901103        1.52036223097341       -0.32658782821649
C           -3.45833092586517        0.76237754332689        0.91195279667783
C           -4.32084227092236       -0.29908749390584        1.23268258409064
C           -5.11330847652589       -1.13186248023561        0.50159652553275
O           -6.03225286290265       -1.93071510135403        1.07072183244817
C           -6.36053802716254       -1.82790552335389        2.43680229773842
C           -5.15939262071634       -1.37604524985643       -0.96718940093395
O           -6.43318708532944       -1.29951863071786       -1.40612430728225
C           -6.74716244727718       -1.78934235153960       -2.69330603360339
C           -4.09772693630445       -1.79569493200876       -1.66208433773810
C           -2.83995858302584        1.64421129202593        1.76257942686199
C           -1.89301431773178        0.78784103530373       -1.18156992612874
C           -1.01835194255559       -0.09272545781287       -0.40206863814346
C            0.02825635835184        0.42586144307033        0.50100003286209
N            0.90966843078901       -0.61004186365359        0.98588240722770
C            2.31084804033480       -0.26793329056145        1.05347265786650
C            2.96358079415222       -0.38719360019517       -0.33706438174914
C            4.42380116369657       -0.05102123912125       -0.27351341944774
C            4.86209823354353        1.25159040042343       -0.47328496560302
C            6.20834652645908        1.56974336778190       -0.40345773554114
C            7.15274326849510        0.58941098469215       -0.12600345193243
O            8.48017141230650        0.77905124203045       -0.04302454005045
C            9.01124565931204        2.06451002089958       -0.27011648783400
C            6.71366536555611       -0.74885036231922        0.09157223746411
O            7.69086953944628       -1.63463141463792        0.35475513212659
C            7.36146319516813       -2.98738979233868        0.56668791331587
C            5.35940479423846       -1.04039559935848        0.01566364415389
C            0.38816735566368       -1.38136312960872        2.08499286557493
C           -4.06617228943298        2.14721459830977       -1.19784679836731
C           -5.11995605414406        2.83320210730519       -0.32702532351686
C           -3.47465402409913        3.15531724419527       -2.17943857530926
H           -4.43428998861758       -0.40131754741355        2.30789924218112
H           -5.54260995665566       -2.17503805381261        3.07586510663936
H           -7.22243710881362       -2.47800584621275        2.57361330563980
H           -6.62964518850481       -0.80224148966623        2.70588033004321
H           -6.47715247654815       -2.84493020938578       -2.79505411869377
H           -7.82584173788349       -1.68279591732140       -2.79601823612742
H           -6.24867229394122       -1.20872231964686       -3.47510852683562
H           -4.15902215682617       -2.08459774621316       -2.69637198746857
H           -2.78788619129552        1.73064893879966        2.83382989120713
H           -2.41193315146469        0.21994701215781       -1.95367076752578
H           -1.30641771501238        1.58989506621527       -1.63977592824082
H           -3.14180440330489       -1.88336098897279       -1.18607637445375
H           -1.14793155659489       -1.16015605492493       -0.44457130062715
H           -0.46504728184338        0.94426367266969        1.35349975059798
H            0.60906931422304        1.20417640238796       -0.00761413489549
H            2.80779174477924       -0.96009344793958        1.73510843325889
H            2.46441756560772        0.75083111352378        1.43894188208475
H            2.45965473436673        0.28623434046661       -1.03107091471951
H            2.82396013555702       -1.40849925584340       -0.69246061424548
H            4.14928902871993        2.03030790612165       -0.69785058210569
H            6.51710686505799        2.58844865764463       -0.57217582609466
H            8.64021617342660        2.78639727513547        0.46351658070834
H            8.78248394290023        2.41856735268584       -1.27970033097803
H           10.08879805530742        1.95902592371635       -0.15966680486731
H            8.30814527945519       -3.49437498223049        0.74320349767556
H            6.71636267488615       -3.10981608972396        1.44221757808263
H            6.87482323738040       -3.42336006793845       -0.31099988300622
H            5.01651022411233       -2.05131340592636        0.16989495722575
H           -0.64775216246560       -1.64580965809211        1.88017944781619
H            0.42360443911175       -0.83411532157871        3.03816335865069
H            0.96590535795782       -2.29830005727138        2.19168731673702
H           -4.55204553075128        1.33359149110241       -1.74974095374662
H           -4.67788589947996        3.65640807016787        0.23021648215337
H           -5.56614388780209        2.13566802251378        0.37810126479043
H           -5.91137868360685        3.23346919857129       -0.95499508631328
H           -2.85629458059784        3.87266817510852       -1.64443839210094
H           -2.87022720748491        2.66617189231127       -2.93845354736123
H           -4.27395721384601        3.69403887151377       -2.68157160556787
H           -1.34609751950420        4.03468501590567        1.32161983797695
72
 energy: -99.299899158494 gnorm: 0.008069503630 xtb: 6.6.1 (8d0f1dd)
N           -1.67366800782460        3.50820369941749        0.49528081978671
C           -2.34472605706648        2.46031601035296        0.68062131739729
C           -2.97900185233702        1.50444499799068       -0.33667760668689
C           -3.46465650807104        0.74651179979001        0.90550322099007
C           -4.32380102935726       -0.31142960091813        1.25528846915464
C           -5.12040955020531       -1.13984896194121        0.52426311964316
O           -6.04483154257744       -1.94139421700381        1.07821491303803
C           -6.37090926071369       -1.84359385233949        2.44591987476405
C           -5.14790946081072       -1.35278967682344       -0.94559577155439
O           -6.41642435788686       -1.25828207684886       -1.40299967397985
C           -6.72400858075249       -1.75760161975421       -2.68663181465913
C           -4.08126492537501       -1.76095919593380       -1.63854528350118
C           -2.84869867623493        1.63106898204981        1.75379473263895
C           -1.89597539365745        0.77930676637378       -1.19109868164040
C           -1.01960914131644       -0.09865823879799       -0.40982043170644
C            0.02704307599782        0.42364670590539        0.49113184501611
N            0.90783648716634       -0.61074770962137        0.98082984751254
C            2.30871439174367       -0.26750514124688        1.04961993045764
C            2.96331631326147       -0.38774344382123       -0.33989712546163
C            4.42344151346034       -0.05143945893490       -0.27462490893439
C            4.86167598377510        1.25128785888027       -0.47382036113095
C            6.20781395595923        1.56970291124103       -0.40287004428465
C            7.15217189885078        0.58941512431098       -0.12514801808149
O            8.47949148591541        0.77908320455360       -0.04161370078973
C            9.01072485776269        2.06451913251218       -0.26837525636687
C            6.71313966475811       -0.74902260958983        0.09189242930204
O            7.69045256471040       -1.63453466411262        0.35524127962483
C            7.36157270838088       -2.98756405302480        0.56643680196691
C            5.35895665703705       -1.04073786603462        0.01517488294672
C            0.38560065519254       -1.37603809964786        2.08409525280258
C           -4.07196386214977        2.13604168551291       -1.20911094875831
C           -5.12275336967345        2.82455283331643       -0.33671925151035
C           -3.47643032128538        3.14633193220957       -2.18660657640272
H           -4.42513571242220       -0.39953976795398        2.33231029593943
H           -5.55115792192051       -2.19256295322012        3.08119257397986
H           -7.23281956245375       -2.49329539073461        2.58354049744616
H           -6.63789555854569       -0.81828644436395        2.71808742936478
H           -6.45217244037332       -2.81412126363934       -2.77360310672767
H           -7.80233798390323       -1.65160500949723       -2.79158608160338
H           -6.22332290902220       -1.18539617576251       -3.47259827322000
H           -4.13483604258335       -2.01874357928065       -2.68207188052193
H           -2.79651853349447        1.71952537501459        2.82502600844528
H           -2.40675349748665        0.21046568169503       -1.96813278461872
H           -1.31124760418420        1.58543518498392       -1.64432122767658
H           -3.13177452674925       -1.87507462541933       -1.15317505968293
H           -1.14825037719422       -1.16644249982894       -0.44784336867554
H           -0.46570256379873        0.94549980030354        1.34149231588159
H            0.60818414151314        1.19942821214063       -0.02097188694877
H            2.80507061118063       -0.95881050890352        1.73254786341105
H            2.46122251595288        0.75169019212657        1.43449602279346
H            2.46046504011175        0.28518724774211       -1.03516737285973
H            2.82417155145627       -1.40932289140780       -0.69466714991292
H            4.14890160248902        2.02990126869106       -0.69884872411226
H            6.51649014393859        2.58853007392549       -0.57099721272050
H            8.64002163924589        2.78619549660826        0.46563583658601
H            8.78174698550431        2.41901787634241       -1.27775859913547
H           10.08829088987160        1.95880240846067       -0.15826798603142
H            8.30838547170096       -3.49406099223672        0.74367113637385
H            6.71572388897602       -3.11063497295063        1.44130693675861
H            6.87602102190089       -3.42347929172349       -0.31187876093883
H            5.01609743068880       -2.05171627581103        0.16911514830894
H           -0.65040115914697       -1.64105076935779        1.88077955561183
H            0.42149336291894       -0.82364779851441        3.03429427479521
H            0.96309385777973       -2.29253098310640        2.19568046019235
H           -4.56245024253609        1.32838571235379       -1.76566438269605
H           -4.67593008697511        3.64520464581881        0.22058024129561
H           -5.57057352097103        2.12785678285146        0.36812576499039
H           -5.91347527129351        3.22921738970887       -0.96280476693969
H           -2.85727246004268        3.85998120232346       -1.64758156500585
H           -2.87205194554880        2.65955860932377       -2.94719790248558
H           -4.27324829768298        3.68982051835612       -2.68767028154498
H           -1.35844665662279        4.02021487954635        1.31303757285346
72
 energy: -99.300358575290 gnorm: 0.006206096923 xtb: 6.6.1 (8d0f1dd)
N           -1.68400318222540        3.49719695373405        0.48073499295280
C           -2.35332144213150        2.44955018564732        0.67163015585350
C           -2.98797229145087        1.48739095354719       -0.34128214346027
C           -3.47023473051086        0.73424881258281        0.90758401162045
C           -4.32768231970757       -0.32136974059179        1.27959108258272
C           -5.12892698542391       -1.14711641432767        0.54768871960591
O           -6.05802970812894       -1.95033616154553        1.08787663379524
C           -6.38169620101542       -1.86282901643145        2.45771249862866
C           -5.14166613550359       -1.33555015581224       -0.92436094691825
O           -6.40172970126418       -1.21211763040257       -1.40221958147528
C           -6.69825790939672       -1.71663720869746       -2.68466021686772
C           -4.06623403639066       -1.72651472873598       -1.61310498387033
C           -2.85103693741051        1.62556083441567        1.75115935387142
C           -1.90129577259196        0.76877064146595       -1.19726746349471
C           -1.02061687260447       -0.10672259867495       -0.41842152382825
C            0.02654360581687        0.42046821675535        0.47855104780892
N            0.90631187232685       -0.61205826786404        0.97412062965722
C            2.30672009048750       -0.26708158708408        1.04411313595005
C            2.96330763343251       -0.38857469096252       -0.34421271883569
C            4.42324438151796       -0.05198305265718       -0.27674143599893
C            4.86138532854831        1.25094982929806       -0.47487891780327
C            6.20735709965500        1.56968547799938       -0.40226506969378
C            7.15162807020660        0.58944791497817       -0.12404443663214
O            8.47885205287145        0.77914755971712       -0.03943485792947
C            9.01027716545942        2.06458147325067       -0.26576794713294
C            6.71261987528736       -0.74916713130539        0.09219234313268
O            7.68994141549560       -1.63442125013712        0.35616579557442
C            7.36147999204026       -2.98772779541397        0.56634697403915
C            5.35857983727832       -1.04115497732098        0.01396237748518
C            0.38263181479454       -1.36853365349375        2.08278307211283
C           -4.07806016895406        2.11999980467383       -1.21753934163315
C           -5.12864210857945        2.81146122617716       -0.34764621642831
C           -3.47774824272219        3.13032411341587       -2.19291338488664
H           -4.41648444445671       -0.39794194469201        2.35758023233185
H           -5.56007441117736       -2.21591998026797        3.08772244309720
H           -7.24349779495690       -2.51303270397504        2.59457858866687
H           -6.64726187944550       -0.83935501170132        2.73675522277017
H           -6.42276699943083       -2.77275775197628       -2.76107661265779
H           -7.77558359676553       -1.61150156601093       -2.79688039965426
H           -6.19288249727129       -1.14955989433015       -3.47071409577786
H           -4.10480308396681       -1.94805075535174       -2.66597833542445
H           -2.79674820362633        1.71747819623010        2.82150674263263
H           -2.40648692734687        0.19980398720669       -1.97783238130534
H           -1.32031212018588        1.57956721068647       -1.64680279848090
H           -3.12695999709947       -1.86670063764560       -1.11416879035833
H           -1.14778830325176       -1.17502274493904       -0.45197893705616
H           -0.46550378359856        0.94761789648021        1.32578042877944
H            0.60791741063168        1.19261668070126       -0.03888066346182
H            2.80266442474661       -0.95701899654253        1.72870153269447
H            2.45746924521527        0.75283930349403        1.42794333613495
H            2.46175437078692        0.28361382779326       -1.04115030743929
H            2.82486441185391       -1.41052214185567       -0.69816114614646
H            4.14866511937490        2.02947720647762       -0.70037323199780
H            6.51598410758037        2.58866392153214       -0.56957795127965
H            8.63985174995767        2.78599294568630        0.46865032385574
H            8.78114327175095        2.41956799968362       -1.27494622405505
H           10.08783877232499        1.95858269466196       -0.15593695458745
H            8.30834971557239       -3.49373539599656        0.74466819747278
H            6.71449071993624       -3.11154178388669        1.44025876123399
H            6.87739107145206       -3.42351166199205       -0.31284298950202
H            5.01573301125225       -2.05221593319579        0.16742420670714
H           -0.65357337676536       -1.63385256950095        1.88100419338791
H            0.41876035547466       -0.80898473921350        3.02861099492731
H            0.95917072831338       -2.28466532922666        2.20127434241003
H           -4.56989797300063        1.31598256072233       -1.77763896934123
H           -4.67919963414483        3.63037347424870        0.20994523815019
H           -5.57931489333657        2.11561614247203        0.35610447204716
H           -5.91701192497209        3.21906487964882       -0.97468868463636
H           -2.85741935394756        3.84142095884540       -1.65200559699936
H           -2.87426174774673        2.64468832605461       -2.95497465265116
H           -4.27258598056982        3.67730435574041       -2.69337085514156
H           -1.36883945141301        4.01087056036103        1.29728452543449
