      -----------------------------------------------------------      
     |                   =====================                   |     
     |                           x T B                           |     
     |                   =====================                   |     
     |                         S. Grimme                         |     
     |          Mulliken Center for Theoretical Chemistry        |     
     |                    University of Bonn                     |     
      -----------------------------------------------------------      

   * xtb version 6.6.1 (8d0f1dd) compiled by 'conda@1efc2f54142f' on 2023-08-01

   xtb is free software: you can redistribute it and/or modify it under
   the terms of the GNU Lesser General Public License as published by
   the Free Software Foundation, either version 3 of the License, or
   (at your option) any later version.
   
   xtb is distributed in the hope that it will be useful,
   but WITHOUT ANY WARRANTY; without even the implied warranty of
   MERCHANTABILITY or FITNESS FOR A PARTICULAR PURPOSE.  See the
   GNU Lesser General Public License for more details.
   
   Cite this work as:
   * C. Bannwarth, E. Caldeweyher, S. Ehlert, A. Hansen, P. Pracht,
     J. Seibert, S. Spicher, S. Grimme, WIREs Comput. Mol. Sci., 2020, 11,
     e01493. DOI: 10.1002/wcms.1493
   
   for GFN2-xTB:
   * C. Bannwarth, S. Ehlert and S. Grimme., J. Chem. Theory Comput., 2019,
     15, 1652-1671. DOI: 10.1021/acs.jctc.8b01176
   for GFN1-xTB:
   * S. Grimme, C. Bannwarth, P. Shushkov, J. Chem. Theory Comput., 2017,
     13, 1989-2009. DOI: 10.1021/acs.jctc.7b00118
   for GFN0-xTB:
   * P. Pracht, E. Caldeweyher, S. Ehlert, S. Grimme, ChemRxiv, 2019, preprint.
     DOI: 10.26434/chemrxiv.8326202.v1
   for GFN-FF:
   * S. Spicher and S. Grimme, Angew. Chem. Int. Ed., 2020, 59, 15665-15673.
     DOI: 10.1002/anie.202004239
   
   for ALPB and GBSA implicit solvation:
   * S. Ehlert, M. Stahn, S. Spicher, S. Grimme, J. Chem. Theory Comput.,
     2021, 17, 4250-4261. DOI: 10.1021/acs.jctc.1c00471
   
   for DFT-D4:
   * E. Caldeweyher, C. Bannwarth and S. Grimme, J. Chem. Phys., 2017,
     147, 034112. DOI: 10.1063/1.4993215
   * E. Caldeweyher, S. Ehlert, A. Hansen, H. Neugebauer, S. Spicher,
     C. Bannwarth and S. Grimme, J. Chem. Phys., 2019, 150, 154122.
     DOI: 10.1063/1.5090222
   * E. Caldeweyher, J.-M. Mewes, S. Ehlert and S. Grimme, Phys. Chem. Chem. Phys.
     2020, 22, 8499-8512. DOI: 10.1039/D0CP00502A
   
   for sTDA-xTB:
   * S. Grimme and C. Bannwarth, J. Chem. Phys., 2016, 145, 054103.
     DOI: 10.1063/1.4959605
   
   in the mass-spec context:
   * V. Asgeirsson, C. Bauer and S. Grimme, Chem. Sci., 2017, 8, 4879.
     DOI: 10.1039/c7sc00601b
   * J. Koopman and S. Grimme, ACS Omega 2019, 4, 12, 15120-15133.
     DOI: 10.1021/acsomega.9b02011
   
   for metadynamics refer to:
   * S. Grimme, J. Chem. Theory Comput., 2019, 155, 2847-2862
     DOI: 10.1021/acs.jctc.9b00143
   
   for SPH calculations refer to:
   * S. Spicher and S. Grimme, J. Chem. Theory Comput., 2021, 17, 1701-1714
     DOI: 10.1021/acs.jctc.0c01306
   
   with help from (in alphabetical order)
   P. Atkinson, C. Bannwarth, F. Bohle, G. Brandenburg, E. Caldeweyher
   M. Checinski, S. Dohm, S. Ehlert, S. Ehrlich, I. Gerasimov, C. Hölzer
   A. Katbashev, J. Koopman, C. Lavigne, S. Lehtola, F. März, M. Müller,
   F. Musil, H. Neugebauer, J. Pisarek, C. Plett, P. Pracht, F. Pultar,
   J. Seibert, P. Shushkov, S. Spicher, M. Stahn, M. Steiner, T. Strunk,
   J. Stückrath, T. Rose, and J. Unsleber
   
 * started run on 2024/06/05 at 19:58:42.967     

           -------------------------------------------------
          |                Calculation Setup                |
           -------------------------------------------------

          program call               : xtb struc.xyz --opt loose --input .xc1 --gfn2
          hostname                   : n-62-29-9
          coordinate file            : struc.xyz
          omp threads                :                     1

   ID    Z sym.   atoms
    1    6 C      1, 3, 5-7, 10, 11, 14
    2    7 N      2, 4, 9, 13
    3    8 O      8, 12
    4    1 H      15-25
constraining bond 3 13 to    5.9200000 Å, actual value:    3.5082066 Å

           -------------------------------------------------
          |                 G F N 2 - x T B                 |
           -------------------------------------------------

        Reference                      10.1021/acs.jctc.8b01176
      * Hamiltonian:
        H0-scaling (s, p, d)           1.850000    2.230000    2.230000
        zeta-weighting                 0.500000
      * Dispersion:
        s8                             2.700000
        a1                             0.520000
        a2                             5.000000
        s9                             5.000000
      * Repulsion:
        kExp                           1.500000    1.000000
        rExp                           1.000000
      * Coulomb:
        alpha                          2.000000
        third order                    shell-resolved
        anisotropic                    true
        a3                             3.000000
        a5                             4.000000
        cn-shift                       1.200000
        cn-exp                         4.000000
        max-rad                        5.000000


          ...................................................
          :                      SETUP                      :
          :.................................................:
          :  # basis functions                  67          :
          :  # atomic orbitals                  67          :
          :  # shells                           39          :
          :  # electrons                        74          :
          :  max. iterations                   250          :
          :  Hamiltonian                  GFN2-xTB          :
          :  restarted?                      false          :
          :  GBSA solvation                  false          :
          :  PC potential                    false          :
          :  electronic temp.         7500.0000000     K    :
          :  accuracy                    1.0000000          :
          :  -> integral cutoff          0.2500000E+02      :
          :  -> integral neglect         0.1000000E-07      :
          :  -> SCF convergence          0.1000000E-05 Eh   :
          :  -> wf. convergence          0.1000000E-03 e    :
          :  Broyden damping             0.4000000          :
          ...................................................

 iter      E             dE          RMSdq      gap      omega  full diag
   1    -42.5960780 -0.425961E+02  0.440E+00    3.52       0.0  T
   2    -42.7780033 -0.181925E+00  0.248E+00    3.37       1.0  T
   3    -42.7871777 -0.917437E-02  0.149E+00    3.50       1.0  T
   4    -42.7817164  0.546128E-02  0.642E-01    3.42       1.0  T
   5    -42.7911189 -0.940247E-02  0.115E-01    3.49       1.0  T
   6    -42.7912109 -0.920486E-04  0.685E-02    3.46       1.0  T
   7    -42.7912647 -0.537856E-04  0.265E-02    3.48       1.0  T
   8    -42.7912686 -0.385526E-05  0.113E-02    3.47       1.8  T
   9    -42.7912697 -0.111307E-05  0.441E-03    3.47       4.5  T
  10    -42.7912698 -0.733569E-07  0.139E-03    3.47      14.4  T
  11    -42.7912698 -0.243437E-08  0.602E-04    3.47      33.2  T
  12    -42.7912698 -0.222032E-08  0.181E-04    3.47     110.6  T

   *** convergence criteria satisfied after 12 iterations ***

         #    Occupation            Energy/Eh            Energy/eV
      -------------------------------------------------------------
         1        2.0000           -0.9116047             -24.8060
       ...           ...                  ...                  ...
        31        1.9942           -0.6212459             -16.9050
        32        1.9930           -0.6166804             -16.7807
        33        1.9876           -0.6031136             -16.4116
        34        1.9710           -0.5827317             -15.8569
        35        1.9403           -0.5651917             -15.3796
        36        1.9387           -0.5645672             -15.3627
        37        1.9155           -0.5566412             -15.1470 (HOMO)
        38        0.1907           -0.4290919             -11.6762 (LUMO)
        39        0.0640           -0.4015676             -10.9272
        40        0.0206           -0.3740689             -10.1789
        41        0.0006           -0.2879107              -7.8344
        42        0.0000           -0.2065811              -5.6214
       ...           ...                  ...                  ...
        67                          0.5613577              15.2753
      -------------------------------------------------------------
                  HL-Gap            0.1275493 Eh            3.4708 eV
             Fermi-level           -0.4825284 Eh          -13.1303 eV

 SCC (total)                   0 d,  0 h,  0 min,  0.036 sec
 SCC setup                      ...        0 min,  0.000 sec (  0.764%)
 Dispersion                     ...        0 min,  0.000 sec (  1.006%)
 classical contributions        ...        0 min,  0.000 sec (  0.306%)
 integral evaluation            ...        0 min,  0.005 sec ( 14.561%)
 iterations                     ...        0 min,  0.018 sec ( 50.798%)
 molecular gradient             ...        0 min,  0.012 sec ( 32.130%)
 printout                       ...        0 min,  0.000 sec (  0.399%)

         :::::::::::::::::::::::::::::::::::::::::::::::::::::
         ::                     SUMMARY                     ::
         :::::::::::::::::::::::::::::::::::::::::::::::::::::
         :: total energy             -31.874061342774 Eh    ::
         :: gradient norm              6.457906939811 Eh/a0 ::
         :: HOMO-LUMO gap              3.470793873671 eV    ::
         ::.................................................::
         :: SCC energy               -42.791269777655 Eh    ::
         :: -> isotropic ES            0.136760385929 Eh    ::
         :: -> anisotropic ES         -0.005341405309 Eh    ::
         :: -> anisotropic XC          0.011501049227 Eh    ::
         :: -> dispersion             -0.022650340738 Eh    ::
         :: repulsion energy           0.531105277918 Eh    ::
         :: add. restraining          10.385988997955 Eh    ::
         :: total charge               1.000000000010 e     ::
         :::::::::::::::::::::::::::::::::::::::::::::::::::::

      ----------------------------------------------------------- 
     |                   =====================                   |
     |                        A N C O P T                        |
     |                   =====================                   |
     |               Approximate Normal Coordinate               |
     |                Rational Function Optimizer                |
      ----------------------------------------------------------- 

          ...................................................
          :                      SETUP                      :
          :.................................................:
          :   optimization level             loose          :
          :   max. optcycles                   200          :
          :   ANC micro-cycles                  20          :
          :   degrees of freedom                69          :
          :.................................................:
          :   RF solver                   davidson          :
          :   write xtbopt.log                true          :
          :   linear?                        false          :
          :   energy convergence         0.5000000E-04 Eh   :
          :   grad. convergence          0.4000000E-02 Eh/α :
          :   maxmium RF displ.          1.0000000          :
          :   Hlow (freq-cutoff)         0.1000000E-01      :
          :   Hmax (freq-cutoff)         5.0000000          :
          :   S6 in model hess.         20.0000000          :
          ...................................................

generating ANC from model Hessian ...
Using Lindh-Hessian (1995)
 Shifting diagonal of input Hessian by    1.1445921313542466     
 Lowest  eigenvalues of input Hessian
    0.010000    0.639050    0.000000    0.000000    0.000000    0.000000
    0.000000    0.000000    1.148203    1.149865    1.151710    1.153745
    1.154624    1.156606    1.156688    1.159952    1.169233    1.170188
 Highest eigenvalues
    3.212727    3.261087    3.336484    3.525993    3.648133    4.711238


........................................................................
.............................. CYCLE    1 ..............................
........................................................................

 iter      E             dE          RMSdq      gap      omega  full diag
   1    -42.7912698 -0.427913E+02  0.838E-05    3.47       0.0  T
   2    -42.7912698 -0.247127E-10  0.452E-05    3.47     442.9  T
   3    -42.7912698 -0.149214E-11  0.279E-05    3.47     715.8  T
     SCC iter.                  ...        0 min,  0.005 sec
     gradient                   ...        0 min,  0.011 sec
 * total energy  :   -31.8740613 Eh     change       -0.2401990E-09 Eh
   gradient norm :     6.4579069 Eh/α   predicted     0.0000000E+00 (-100.00%)
   displ. norm   :     0.7237572 α      lambda       -0.4645617E+01
   maximum displ.:     0.6384730 α      in ANC's #69, #60, #58, ...

........................................................................
.............................. CYCLE    2 ..............................
........................................................................

 iter      E             dE          RMSdq      gap      omega  full diag
   1    -42.6721405 -0.426721E+02  0.127E+00    2.56       0.0  T
   2    -42.6738859 -0.174538E-02  0.102E+00    3.31       1.0  T
   3    -42.6900193 -0.161334E-01  0.546E-01    2.89       1.0  T
   4    -42.6900414 -0.221556E-04  0.291E-01    3.06       1.0  T
   5    -42.6920826 -0.204118E-02  0.879E-02    2.97       1.0  T
   6    -42.6922428 -0.160155E-03  0.272E-02    3.00       1.0  T
   7    -42.6922437 -0.971349E-06  0.859E-03    2.99       2.3  T
   8    -42.6922449 -0.113623E-05  0.330E-03    3.00       6.1  T
   9    -42.6922450 -0.179107E-06  0.139E-03    3.00      14.3  T
  10    -42.6922451 -0.110263E-07  0.652E-04    3.00      30.7  T
  11    -42.6922451 -0.310661E-08  0.200E-04    3.00      99.8  T
     SCC iter.                  ...        0 min,  0.016 sec
     gradient                   ...        0 min,  0.011 sec
 * total energy  :   -35.8424137 Eh     change       -0.3968352E+01 Eh
   gradient norm :     4.5668522 Eh/α   predicted    -0.3540783E+01 ( -10.77%)
   displ. norm   :     0.7700206 α      lambda       -0.3485710E+01
   maximum displ.:     0.6661340 α      in ANC's #69, #60, #39, ...

........................................................................
.............................. CYCLE    3 ..............................
........................................................................

 iter      E             dE          RMSdq      gap      omega  full diag
   1    -42.4084400 -0.424084E+02  0.144E+00    1.93       0.0  T
   2    -42.3543427  0.540973E-01  0.197E+00    2.69       1.0  T
   3    -42.4843350 -0.129992E+00  0.715E-01    2.62       1.0  T
   4    -42.4837040  0.630999E-03  0.545E-01    2.67       1.0  T
   5    -42.4864754 -0.277141E-02  0.317E-01    2.39       1.0  T
   6    -42.4902551 -0.377972E-02  0.554E-02    2.57       1.0  T
   7    -42.4902936 -0.384274E-04  0.344E-02    2.58       1.0  T
   8    -42.4903084 -0.148638E-04  0.157E-02    2.59       1.3  T
   9    -42.4903111 -0.262697E-05  0.514E-03    2.59       3.9  T
  10    -42.4903117 -0.652184E-06  0.155E-03    2.59      12.9  T
  11    -42.4903117 -0.290257E-10  0.816E-04    2.59      24.5  T
  12    -42.4903117 -0.114909E-07  0.228E-04    2.59      87.8  T
     SCC iter.                  ...        0 min,  0.017 sec
     gradient                   ...        0 min,  0.011 sec
 * total energy  :   -38.6890672 Eh     change       -0.2846654E+01 Eh
   gradient norm :     2.9769829 Eh/α   predicted    -0.2776250E+01 (  -2.47%)
   displ. norm   :     0.8075436 α      lambda       -0.2348613E+01
   maximum displ.:     0.5947529 α      in ANC's #69, #60, #39, ...

........................................................................
.............................. CYCLE    4 ..............................
........................................................................

 iter      E             dE          RMSdq      gap      omega  full diag
   1    -42.2084045 -0.422084E+02  0.135E+00    1.85       0.0  T
   2    -42.0243978  0.184007E+00  0.245E+00    1.30       1.0  T
   3    -42.2799301 -0.255532E+00  0.925E-01    1.72       1.0  T
   4    -42.2718638  0.806631E-02  0.972E-01    1.92       1.0  T
   5    -42.2989061 -0.270424E-01  0.439E-01    1.77       1.0  T
   6    -42.3028994 -0.399327E-02  0.121E-01    1.87       1.0  T
   7    -42.3032905 -0.391032E-03  0.649E-02    1.87       1.0  T
   8    -42.3033615 -0.710343E-04  0.269E-02    1.88       1.0  T
   9    -42.3033659 -0.445105E-05  0.145E-02    1.87       1.4  T
  10    -42.3033704 -0.448074E-05  0.451E-03    1.88       4.4  T
  11    -42.3033711 -0.660290E-06  0.199E-03    1.87      10.1  T
  12    -42.3033711 -0.403035E-07  0.575E-04    1.88      34.8  T
  13    -42.3033711 -0.404717E-08  0.193E-04    1.88     103.9  T
     SCC iter.                  ...        0 min,  0.018 sec
     gradient                   ...        0 min,  0.011 sec
 * total energy  :   -40.5927514 Eh     change       -0.1903684E+01 Eh
   gradient norm :     1.9003167 Eh/α   predicted    -0.1940162E+01 (   1.92%)
   displ. norm   :     0.6974805 α      lambda       -0.1312469E+01
   maximum displ.:     0.5979863 α      in ANC's #69, #60, #2, ...

........................................................................
.............................. CYCLE    5 ..............................
........................................................................

 iter      E             dE          RMSdq      gap      omega  full diag
   1    -42.1375252 -0.421375E+02  0.123E+00    1.38       0.0  T
   2    -41.7488821  0.388643E+00  0.281E+00    1.36       1.0  T
   3    -42.1708285 -0.421946E+00  0.597E-01    1.38       1.0  T
   4    -42.1678768  0.295175E-02  0.610E-01    1.36       1.0  T
   5    -42.1728675 -0.499073E-02  0.440E-01    1.36       1.0  T
   6    -42.1803280 -0.746052E-02  0.531E-02    1.36       1.0  T
   7    -42.1803879 -0.598870E-04  0.386E-02    1.36       1.0  T
   8    -42.1804227 -0.348174E-04  0.176E-02    1.36       1.1  T
   9    -42.1804237 -0.968089E-06  0.957E-03    1.36       2.1  T
  10    -42.1804254 -0.173665E-05  0.281E-03    1.36       7.1  T
  11    -42.1804256 -0.106170E-06  0.157E-03    1.36      12.7  T
  12    -42.1804256 -0.267046E-07  0.625E-04    1.36      32.0  T
  13    -42.1804256 -0.790664E-08  0.226E-04    1.36      88.7  T
     SCC iter.                  ...        0 min,  0.018 sec
     gradient                   ...        0 min,  0.011 sec
 * total energy  :   -41.5070453 Eh     change       -0.9142939E+00 Eh
   gradient norm :     0.7292995 Eh/α   predicted    -0.9754788E+00 (   6.69%)
   displ. norm   :     0.3976908 α      lambda       -0.2857023E+00
   maximum displ.:     0.3209292 α      in ANC's #69, #34, #48, ...

........................................................................
.............................. CYCLE    6 ..............................
........................................................................

 iter      E             dE          RMSdq      gap      omega  full diag
   1    -42.1307376 -0.421307E+02  0.730E-01    1.21       0.0  T
   2    -42.0583510  0.723867E-01  0.134E+00    1.03       1.0  T
   3    -42.1242008 -0.658499E-01  0.534E-01    1.15       1.0  T
   4    -42.1249083 -0.707435E-03  0.608E-01    1.07       1.0  T
   5    -42.1390836 -0.141754E-01  0.199E-01    1.07       1.0  T
   6    -42.1401148 -0.103119E-02  0.667E-02    1.09       1.0  T
   7    -42.1402234 -0.108556E-03  0.355E-02    1.10       1.0  T
   8    -42.1402639 -0.405421E-04  0.138E-02    1.10       1.4  T
   9    -42.1402677 -0.377760E-05  0.434E-03    1.10       4.6  T
  10    -42.1402682 -0.439696E-06  0.152E-03    1.10      13.2  T
  11    -42.1402682 -0.943145E-08  0.638E-04    1.10      31.4  T
  12    -42.1402682 -0.635771E-08  0.197E-04    1.10     101.5  T
     SCC iter.                  ...        0 min,  0.017 sec
     gradient                   ...        0 min,  0.011 sec
 * total energy  :   -41.6713197 Eh     change       -0.1642743E+00 Eh
   gradient norm :     0.2165264 Eh/α   predicted    -0.1654458E+00 (   0.71%)
   displ. norm   :     0.1636104 α      lambda       -0.3129986E-01
   maximum displ.:     0.0633381 α      in ANC's #18, #69, #34, ...

........................................................................
.............................. CYCLE    7 ..............................
........................................................................

 iter      E             dE          RMSdq      gap      omega  full diag
   1    -42.1561841 -0.421562E+02  0.314E-01    1.20       0.0  T
   2    -42.1381874  0.179967E-01  0.688E-01    0.99       1.0  T
   3    -42.1564482 -0.182608E-01  0.251E-01    1.12       1.0  T
   4    -42.1574097 -0.961555E-03  0.219E-01    1.10       1.0  T
   5    -42.1592169 -0.180715E-02  0.556E-02    1.11       1.0  T
   6    -42.1593047 -0.877770E-04  0.186E-02    1.11       1.1  T
   7    -42.1593073 -0.265665E-05  0.118E-02    1.12       1.7  T
   8    -42.1593118 -0.449328E-05  0.483E-03    1.12       4.1  T
   9    -42.1593120 -0.170614E-06  0.268E-03    1.12       7.5  T
  10    -42.1593122 -0.203915E-06  0.149E-03    1.12      13.5  T
  11    -42.1593122 -0.501930E-07  0.618E-04    1.12      32.4  T
  12    -42.1593122 -0.150713E-07  0.162E-04    1.12     123.7  T
     SCC iter.                  ...        0 min,  0.017 sec
     gradient                   ...        0 min,  0.011 sec
 * total energy  :   -41.6981672 Eh     change       -0.2684759E-01 Eh
   gradient norm :     0.2052875 Eh/α   predicted    -0.1606939E-01 ( -40.15%)
   displ. norm   :     0.5076848 α      lambda       -0.8312288E-01
   maximum displ.:     0.2225912 α      in ANC's #18, #34, #15, ...

........................................................................
.............................. CYCLE    8 ..............................
........................................................................

 iter      E             dE          RMSdq      gap      omega  full diag
   1    -42.2140477 -0.422140E+02  0.900E-01    1.61       0.0  T
   2    -42.1205693  0.934784E-01  0.165E+00    1.00       1.0  T
   3    -42.2139441 -0.933748E-01  0.730E-01    1.42       1.0  T
   4    -42.2294007 -0.154566E-01  0.479E-01    1.24       1.0  T
   5    -42.2375807 -0.817997E-02  0.166E-01    1.27       1.0  T
   6    -42.2382050 -0.624293E-03  0.522E-02    1.29       1.0  T
   7    -42.2382495 -0.445137E-04  0.248E-02    1.30       1.0  T
   8    -42.2382681 -0.186249E-04  0.694E-03    1.31       2.9  T
   9    -42.2382687 -0.643523E-06  0.323E-03    1.31       6.2  T
  10    -42.2382686  0.190507E-06  0.298E-03    1.30       6.7  T
  11    -42.2382689 -0.305827E-06  0.139E-03    1.31      14.3  T
  12    -42.2382689 -0.520095E-07  0.347E-04    1.31      57.6  T
  13    -42.2382689 -0.277689E-08  0.131E-04    1.31     153.1  T
     SCC iter.                  ...        0 min,  0.018 sec
     gradient                   ...        0 min,  0.011 sec
 * total energy  :   -41.7586928 Eh     change       -0.6052560E-01 Eh
   gradient norm :     0.2245974 Eh/α   predicted    -0.5227392E-01 ( -13.63%)
   displ. norm   :     0.4228573 α      lambda       -0.4734211E-01
   maximum displ.:     0.2070508 α      in ANC's #18, #15, #21, ...

........................................................................
.............................. CYCLE    9 ..............................
........................................................................

 iter      E             dE          RMSdq      gap      omega  full diag
   1    -42.2855578 -0.422856E+02  0.579E-01    1.56       0.0  T
   2    -42.2826957  0.286210E-02  0.564E-01    1.34       1.0  T
   3    -42.2903190 -0.762330E-02  0.282E-01    1.57       1.0  T
   4    -42.2808130  0.950608E-02  0.462E-01    1.34       1.0  T
   5    -42.2918194 -0.110065E-01  0.130E-01    1.50       1.0  T
   6    -42.2924245 -0.605064E-03  0.249E-02    1.48       1.0  T
   7    -42.2924367 -0.122508E-04  0.110E-02    1.48       1.8  T
   8    -42.2924373 -0.567930E-06  0.431E-03    1.48       4.6  T
   9    -42.2924377 -0.413675E-06  0.213E-03    1.48       9.4  T
  10    -42.2924379 -0.152716E-06  0.984E-04    1.48      20.3  T
  11    -42.2924379 -0.964434E-09  0.541E-04    1.48      36.9  T
     SCC iter.                  ...        0 min,  0.015 sec
     gradient                   ...        0 min,  0.011 sec
 * total energy  :   -41.7938389 Eh     change       -0.3514608E-01 Eh
   gradient norm :     0.2128044 Eh/α   predicted    -0.2790373E-01 ( -20.61%)
   displ. norm   :     0.4013040 α      lambda       -0.4055242E-01
   maximum displ.:     0.2101053 α      in ANC's #18, #15, #38, ...

........................................................................
.............................. CYCLE   10 ..............................
........................................................................

 iter      E             dE          RMSdq      gap      omega  full diag
   1    -42.3143618 -0.423144E+02  0.551E-01    1.41       0.0  T
   2    -42.2699689  0.443929E-01  0.104E+00    1.99       1.0  T
   3    -42.3227560 -0.527871E-01  0.304E-01    1.57       1.0  T
   4    -42.3225537  0.202313E-03  0.245E-01    1.64       1.0  T
   5    -42.3240009 -0.144726E-02  0.102E-01    1.59       1.0  T
   6    -42.3243092 -0.308315E-03  0.253E-02    1.60       1.0  T
   7    -42.3243243 -0.150525E-04  0.149E-02    1.60       1.3  T
   8    -42.3243265 -0.219624E-05  0.931E-03    1.60       2.1  T
   9    -42.3243285 -0.202466E-05  0.273E-03    1.60       7.3  T
  10    -42.3243286 -0.128252E-06  0.140E-03    1.60      14.3  T
  11    -42.3243287 -0.371614E-07  0.476E-04    1.60      42.0  T
  12    -42.3243287 -0.650582E-08  0.157E-04    1.60     127.2  T
     SCC iter.                  ...        0 min,  0.017 sec
     gradient                   ...        0 min,  0.011 sec
 * total energy  :   -41.8238205 Eh     change       -0.2998156E-01 Eh
   gradient norm :     0.1580269 Eh/α   predicted    -0.2354164E-01 ( -21.48%)
   displ. norm   :     0.3531799 α      lambda       -0.2834735E-01
   maximum displ.:     0.1879384 α      in ANC's #18, #15, #38, ...

........................................................................
.............................. CYCLE   11 ..............................
........................................................................

 iter      E             dE          RMSdq      gap      omega  full diag
   1    -42.3327473 -0.423327E+02  0.526E-01    1.36       0.0  T
   2    -42.2815626  0.511847E-01  0.111E+00    2.14       1.0  T
   3    -42.3432064 -0.616439E-01  0.254E-01    1.67       1.0  T
   4    -42.3425311  0.675339E-03  0.237E-01    1.66       1.0  T
   5    -42.3437674 -0.123630E-02  0.976E-02    1.65       1.0  T
   6    -42.3440819 -0.314530E-03  0.324E-02    1.63       1.0  T
   7    -42.3441203 -0.384171E-04  0.127E-02    1.64       1.6  T
   8    -42.3441222 -0.185103E-05  0.765E-03    1.64       2.6  T
   9    -42.3441231 -0.908064E-06  0.229E-03    1.63       8.8  T
  10    -42.3441232 -0.526683E-07  0.104E-03    1.63      19.3  T
  11    -42.3441232 -0.246419E-07  0.422E-04    1.63      47.4  T
  12    -42.3441232 -0.181659E-08  0.135E-04    1.63     147.6  T
     SCC iter.                  ...        0 min,  0.017 sec
     gradient                   ...        0 min,  0.011 sec
 * total energy  :   -41.8440756 Eh     change       -0.2025510E-01 Eh
   gradient norm :     0.1680943 Eh/α   predicted    -0.1594177E-01 ( -21.30%)
   displ. norm   :     0.2835348 α      lambda       -0.2226190E-01
   maximum displ.:     0.1419925 α      in ANC's #18, #15, #38, ...

........................................................................
.............................. CYCLE   12 ..............................
........................................................................

 iter      E             dE          RMSdq      gap      omega  full diag
   1    -42.3551890 -0.423552E+02  0.390E-01    1.39       0.0  T
   2    -42.3351052  0.200838E-01  0.702E-01    1.97       1.0  T
   3    -42.3591331 -0.240279E-01  0.177E-01    1.55       1.0  T
   4    -42.3587957  0.337436E-03  0.167E-01    1.59       1.0  T
   5    -42.3593145 -0.518850E-03  0.712E-02    1.59       1.0  T
   6    -42.3595227 -0.208158E-03  0.272E-02    1.56       1.0  T
   7    -42.3595513 -0.285849E-04  0.769E-03    1.57       2.6  T
   8    -42.3595521 -0.878497E-06  0.365E-03    1.57       5.5  T
   9    -42.3595523 -0.133130E-06  0.160E-03    1.57      12.5  T
  10    -42.3595523 -0.227488E-07  0.678E-04    1.57      29.5  T
  11    -42.3595523 -0.129996E-07  0.216E-04    1.57      92.6  T
     SCC iter.                  ...        0 min,  0.016 sec
     gradient                   ...        0 min,  0.011 sec
 * total energy  :   -41.8616036 Eh     change       -0.1752802E-01 Eh
   gradient norm :     0.1716121 Eh/α   predicted    -0.1202585E-01 ( -31.39%)
   displ. norm   :     0.3551645 α      lambda       -0.2923621E-01
   maximum displ.:     0.1532857 α      in ANC's #18, #15, #42, ...

........................................................................
.............................. CYCLE   13 ..............................
........................................................................

 iter      E             dE          RMSdq      gap      omega  full diag
   1    -42.3783017 -0.423783E+02  0.475E-01    1.24       0.0  T
   2    -42.3655073  0.127944E-01  0.577E-01    1.75       1.0  T
   3    -42.3755502 -0.100429E-01  0.360E-01    1.18       1.0  T
   4    -42.3800190 -0.446877E-02  0.224E-01    1.42       1.0  T
   5    -42.3810300 -0.101098E-02  0.936E-02    1.42       1.0  T
   6    -42.3814312 -0.401284E-03  0.304E-02    1.38       1.0  T
   7    -42.3814625 -0.312909E-04  0.875E-03    1.39       2.3  T
   8    -42.3814631 -0.522263E-06  0.436E-03    1.39       4.6  T
   9    -42.3814634 -0.323105E-06  0.180E-03    1.38      11.1  T
  10    -42.3814634 -0.518544E-07  0.818E-04    1.39      24.4  T
  11    -42.3814634 -0.827704E-08  0.422E-04    1.38      47.4  T
     SCC iter.                  ...        0 min,  0.016 sec
     gradient                   ...        0 min,  0.011 sec
 * total energy  :   -41.8820753 Eh     change       -0.2047174E-01 Eh
   gradient norm :     0.1381250 Eh/α   predicted    -0.1646207E-01 ( -19.59%)
   displ. norm   :     0.3049282 α      lambda       -0.1626329E-01
   maximum displ.:     0.1349030 α      in ANC's #18, #15, #42, ...

........................................................................
.............................. CYCLE   14 ..............................
........................................................................

 iter      E             dE          RMSdq      gap      omega  full diag
   1    -42.3983915 -0.423984E+02  0.470E-01    1.00       0.0  T
   2    -42.3755097  0.228818E-01  0.719E-01    1.55       1.0  T
   3    -42.3995215 -0.240118E-01  0.306E-01    1.01       1.0  T
   4    -42.4018427 -0.232121E-02  0.246E-01    1.25       1.0  T
   5    -42.4036360 -0.179327E-02  0.649E-02    1.21       1.0  T
   6    -42.4037709 -0.134925E-03  0.216E-02    1.19       1.0  T
   7    -42.4037852 -0.143140E-04  0.697E-03    1.19       2.9  T
   8    -42.4037856 -0.337269E-06  0.377E-03    1.19       5.3  T
   9    -42.4037858 -0.233796E-06  0.145E-03    1.19      13.8  T
  10    -42.4037858 -0.298335E-07  0.687E-04    1.19      29.1  T
  11    -42.4037858 -0.296777E-08  0.374E-04    1.19      53.5  T
     SCC iter.                  ...        0 min,  0.016 sec
     gradient                   ...        0 min,  0.011 sec
 * total energy  :   -41.8945668 Eh     change       -0.1249143E-01 Eh
   gradient norm :     0.1267606 Eh/α   predicted    -0.8887833E-02 ( -28.85%)
   displ. norm   :     0.3669618 α      lambda       -0.1996323E-01
   maximum displ.:     0.1450724 α      in ANC's #18, #15, #42, ...

........................................................................
.............................. CYCLE   15 ..............................
........................................................................

 iter      E             dE          RMSdq      gap      omega  full diag
   1    -42.4190027 -0.424190E+02  0.667E-01    0.63       0.0  T
   2    -42.3482988  0.707039E-01  0.125E+00    1.20       1.0  T
   3    -42.4269046 -0.786057E-01  0.415E-01    0.70       1.0  T
   4    -42.4327094 -0.580485E-02  0.254E-01    0.99       1.0  T
   5    -42.4340766 -0.136723E-02  0.110E-01    0.94       1.0  T
   6    -42.4344769 -0.400232E-03  0.285E-02    0.93       1.0  T
   7    -42.4345013 -0.244059E-04  0.115E-02    0.92       1.7  T
   8    -42.4345040 -0.273830E-05  0.607E-03    0.92       3.3  T
   9    -42.4345047 -0.644948E-06  0.192E-03    0.92      10.4  T
  10    -42.4345047 -0.472488E-07  0.707E-04    0.92      28.3  T
  11    -42.4345047 -0.192941E-08  0.373E-04    0.92      53.6  T
     SCC iter.                  ...        0 min,  0.016 sec
     gradient                   ...        0 min,  0.011 sec
 * total energy  :   -41.9100763 Eh     change       -0.1550951E-01 Eh
   gradient norm :     0.1198642 Eh/α   predicted    -0.1132599E-01 ( -26.97%)
   displ. norm   :     0.3961572 α      lambda       -0.2089928E-01
   maximum displ.:     0.1404012 α      in ANC's #15, #18, #34, ...

........................................................................
.............................. CYCLE   16 ..............................
........................................................................

 iter      E             dE          RMSdq      gap      omega  full diag
   1    -42.4469178 -0.424469E+02  0.695E-01    0.33       0.0  T
   2    -42.3585743  0.883435E-01  0.139E+00    0.89       1.0  T
   3    -42.4562371 -0.976627E-01  0.458E-01    0.42       1.0  T
   4    -42.4637243 -0.748724E-02  0.235E-01    0.69       1.0  T
   5    -42.4644536 -0.729269E-03  0.126E-01    0.67       1.0  T
   6    -42.4649726 -0.519004E-03  0.348E-02    0.66       1.0  T
   7    -42.4650121 -0.395075E-04  0.163E-02    0.64       1.2  T
   8    -42.4650189 -0.684219E-05  0.650E-03    0.64       3.1  T
   9    -42.4650196 -0.655598E-06  0.265E-03    0.64       7.5  T
  10    -42.4650198 -0.204029E-06  0.994E-04    0.64      20.1  T
  11    -42.4650198 -0.100254E-07  0.428E-04    0.64      46.8  T
     SCC iter.                  ...        0 min,  0.016 sec
     gradient                   ...        0 min,  0.011 sec
 * total energy  :   -41.9252657 Eh     change       -0.1518944E-01 Eh
   gradient norm :     0.1301677 Eh/α   predicted    -0.1208962E-01 ( -20.41%)
   displ. norm   :     0.3377472 α      lambda       -0.1520447E-01
   maximum displ.:     0.1123842 α      in ANC's #34, #15, #6, ...

........................................................................
.............................. CYCLE   17 ..............................
........................................................................

 iter      E             dE          RMSdq      gap      omega  full diag
   1    -42.4724225 -0.424724E+02  0.461E-01    0.25       0.0  T
   2    -42.4348794  0.375432E-01  0.890E-01    0.69       1.0  T
   3    -42.4753349 -0.404556E-01  0.298E-01    0.32       1.0  T
   4    -42.4771583 -0.182338E-02  0.207E-01    0.47       1.0  T
   5    -42.4782480 -0.108971E-02  0.633E-02    0.46       1.0  T
   6    -42.4783827 -0.134648E-03  0.174E-02    0.45       1.1  T
   7    -42.4783869 -0.424407E-05  0.994E-03    0.44       2.0  T
   8    -42.4783899 -0.301457E-05  0.466E-03    0.45       4.3  T
   9    -42.4783902 -0.313713E-06  0.173E-03    0.45      11.6  T
  10    -42.4783904 -0.109088E-06  0.703E-04    0.45      28.4  T
  11    -42.4783904 -0.512623E-08  0.263E-04    0.45      76.2  T
     SCC iter.                  ...        0 min,  0.016 sec
     gradient                   ...        0 min,  0.011 sec
 * total energy  :   -41.9363612 Eh     change       -0.1109552E-01 Eh
   gradient norm :     0.1091376 Eh/α   predicted    -0.8469528E-02 ( -23.67%)
   displ. norm   :     0.2346170 α      lambda       -0.1082678E-01
   maximum displ.:     0.0766774 α      in ANC's #34, #30, #6, ...

........................................................................
.............................. CYCLE   18 ..............................
........................................................................

 iter      E             dE          RMSdq      gap      omega  full diag
   1    -42.4795401 -0.424795E+02  0.294E-01    0.24       0.0  T
   2    -42.4702825  0.925754E-02  0.471E-01    0.58       1.0  T
   3    -42.4793718 -0.908931E-02  0.211E-01    0.24       1.0  T
   4    -42.4800950 -0.723172E-03  0.148E-01    0.35       1.0  T
   5    -42.4809145 -0.819463E-03  0.431E-02    0.34       1.0  T
   6    -42.4809630 -0.485811E-04  0.111E-02    0.33       1.8  T
   7    -42.4809651 -0.201846E-05  0.786E-03    0.33       2.5  T
   8    -42.4809665 -0.146335E-05  0.309E-03    0.33       6.5  T
   9    -42.4809668 -0.304625E-06  0.103E-03    0.33      19.5  T
  10    -42.4809668 -0.529503E-08  0.571E-04    0.33      35.0  T
  11    -42.4809668 -0.805740E-08  0.234E-04    0.33      85.5  T
     SCC iter.                  ...        0 min,  0.016 sec
     gradient                   ...        0 min,  0.011 sec
 * total energy  :   -41.9437031 Eh     change       -0.7341903E-02 Eh
   gradient norm :     0.0789896 Eh/α   predicted    -0.5711416E-02 ( -22.21%)
   displ. norm   :     0.1511521 α      lambda       -0.6406246E-02
   maximum displ.:     0.0522759 α      in ANC's #21, #23, #45, ...

........................................................................
.............................. CYCLE   19 ..............................
........................................................................

 iter      E             dE          RMSdq      gap      omega  full diag
   1    -42.4820457 -0.424820E+02  0.184E-01    0.26       0.0  T
   2    -42.4811122  0.933420E-03  0.212E-01    0.37       1.0  T
   3    -42.4818465 -0.734269E-03  0.137E-01    0.22       1.0  T
   4    -42.4819558 -0.109270E-03  0.107E-01    0.34       1.0  T
   5    -42.4825120 -0.556194E-03  0.374E-02    0.28       1.0  T
   6    -42.4825600 -0.480098E-04  0.662E-03    0.29       3.0  T
   7    -42.4825607 -0.700759E-06  0.430E-03    0.29       4.6  T
   8    -42.4825608 -0.163853E-06  0.255E-03    0.29       7.9  T
   9    -42.4825611 -0.252083E-06  0.591E-04    0.29      33.9  T
  10    -42.4825611  0.133582E-09  0.389E-04    0.29      51.4  T
     SCC iter.                  ...        0 min,  0.014 sec
     gradient                   ...        0 min,  0.011 sec
 * total energy  :   -41.9486200 Eh     change       -0.4916883E-02 Eh
   gradient norm :     0.0777152 Eh/α   predicted    -0.3276361E-02 ( -33.37%)
   displ. norm   :     0.2186283 α      lambda       -0.8251956E-02
   maximum displ.:     0.0759381 α      in ANC's #21, #23, #18, ...

........................................................................
.............................. CYCLE   20 ..............................
........................................................................

 iter      E             dE          RMSdq      gap      omega  full diag
   1    -42.4834387 -0.424834E+02  0.246E-01    0.25       0.0  T
   2    -42.4830460  0.392631E-03  0.227E-01    0.30       1.0  T
   3    -42.4837979 -0.751905E-03  0.132E-01    0.22       1.0  T
   4    -42.4820203  0.177759E-02  0.199E-01    0.38       1.0  T
   5    -42.4840617 -0.204140E-02  0.540E-02    0.24       1.0  T
   6    -42.4842065 -0.144811E-03  0.791E-03    0.26       2.5  T
   7    -42.4842074 -0.866925E-06  0.397E-03    0.26       5.0  T
   8    -42.4842076 -0.175073E-06  0.129E-03    0.26      15.6  T
   9    -42.4842076 -0.139264E-08  0.786E-04    0.26      25.5  T
  10    -42.4842076 -0.176570E-07  0.577E-04    0.26      34.7  T
     SCC iter.                  ...        0 min,  0.014 sec
     gradient                   ...        0 min,  0.011 sec
 * total energy  :   -41.9542469 Eh     change       -0.5626887E-02 Eh
   gradient norm :     0.0732105 Eh/α   predicted    -0.4323197E-02 ( -23.17%)
   displ. norm   :     0.1901869 α      lambda       -0.4512151E-02
   maximum displ.:     0.1225215 α      in ANC's #1, #23, #21, ...
 * RMSD in coord.:     0.9908181 α      energy gain  -0.1008019E+02 Eh

generating ANC from model Hessian ...
Using Lindh-Hessian (1995)
 Shifting diagonal of input Hessian by    9.8269087949283199E-003
 Lowest  eigenvalues of input Hessian
    0.000000    0.000000    0.000000    0.000000    0.000000    0.000000
    0.010000    0.010131    0.010821    0.011606    0.011868    0.013399
    0.014724    0.015909    0.017103    0.019341    0.021020    0.023904
 Highest eigenvalues
    1.746231    2.033180    2.187846    2.437098    2.570646    2.739487


........................................................................
.............................. CYCLE   21 ..............................
........................................................................

 iter      E             dE          RMSdq      gap      omega  full diag
   1    -42.4853925 -0.424854E+02  0.203E-01    0.25       0.0  T
   2    -42.4853980 -0.548334E-05  0.135E-01    0.26       1.0  T
   3    -42.4853543  0.437165E-04  0.945E-02    0.25       1.0  T
   4    -42.4855207 -0.166350E-03  0.390E-02    0.26       1.0  T
   5    -42.4855681 -0.474092E-04  0.108E-02    0.25       1.8  T
   6    -42.4855669  0.118260E-05  0.115E-02    0.26       1.7  T
   7    -42.4855731 -0.620280E-05  0.411E-03    0.25       4.9  T
   8    -42.4855734 -0.267634E-06  0.205E-03    0.25       9.8  T
   9    -42.4855735 -0.152122E-06  0.775E-04    0.25      25.8  T
  10    -42.4855735 -0.121167E-07  0.316E-04    0.25      63.3  T
     SCC iter.                  ...        0 min,  0.014 sec
     gradient                   ...        0 min,  0.011 sec
 * total energy  :   -41.9571154 Eh     change       -0.2868529E-02 Eh
   gradient norm :     0.0563773 Eh/α   predicted     0.0000000E+00 (-100.00%)
   displ. norm   :     0.5360838 α      lambda       -0.1325942E-01
   maximum displ.:     0.3231261 α      in ANC's #8, #7, #13, ...

........................................................................
.............................. CYCLE   22 ..............................
........................................................................

 iter      E             dE          RMSdq      gap      omega  full diag
   1    -42.5011048 -0.425011E+02  0.231E-01    0.23       0.0  T
   2    -42.5006762  0.428612E-03  0.185E-01    0.18       1.0  T
   3    -42.5007117 -0.355277E-04  0.168E-01    0.29       1.0  T
   4    -42.5000729  0.638779E-03  0.161E-01    0.14       1.0  T
   5    -42.5015438 -0.147091E-02  0.317E-02    0.23       1.0  T
   6    -42.5015880 -0.441767E-04  0.876E-03    0.22       2.3  T
   7    -42.5015889 -0.868990E-06  0.619E-03    0.22       3.2  T
   8    -42.5015896 -0.673638E-06  0.388E-03    0.22       5.2  T
   9    -42.5015900 -0.447085E-06  0.108E-03    0.22      18.5  T
  10    -42.5015900 -0.350124E-07  0.448E-04    0.22      44.7  T
  11    -42.5015900 -0.342342E-08  0.166E-04    0.22     120.4  T
     SCC iter.                  ...        0 min,  0.016 sec
     gradient                   ...        0 min,  0.011 sec
 * total energy  :   -41.9672598 Eh     change       -0.1014438E-01 Eh
   gradient norm :     0.0224306 Eh/α   predicted    -0.8548437E-02 ( -15.73%)
   displ. norm   :     0.6155518 α      lambda       -0.8148586E-02
   maximum displ.:     0.4034382 α      in ANC's #8, #7, #15, ...

........................................................................
.............................. CYCLE   23 ..............................
........................................................................

 iter      E             dE          RMSdq      gap      omega  full diag
   1    -42.5100952 -0.425101E+02  0.217E-01    0.18       0.0  T
   2    -42.5098540  0.241206E-03  0.154E-01    0.16       1.0  T
   3    -42.5095542  0.299773E-03  0.163E-01    0.23       1.0  T
   4    -42.5090823  0.471885E-03  0.147E-01    0.11       1.0  T
   5    -42.5103010 -0.121862E-02  0.329E-02    0.19       1.0  T
   6    -42.5103479 -0.469646E-04  0.869E-03    0.18       2.3  T
   7    -42.5103491 -0.119108E-05  0.588E-03    0.18       3.4  T
   8    -42.5103497 -0.585603E-06  0.297E-03    0.18       6.7  T
   9    -42.5103500 -0.294940E-06  0.723E-04    0.18      27.7  T
  10    -42.5103500 -0.148171E-07  0.309E-04    0.18      64.6  T
     SCC iter.                  ...        0 min,  0.014 sec
     gradient                   ...        0 min,  0.011 sec
 * total energy  :   -41.9730807 Eh     change       -0.5820838E-02 Eh
   gradient norm :     0.0199681 Eh/α   predicted    -0.5618061E-02 (  -3.48%)
   displ. norm   :     0.4646891 α      lambda       -0.3240285E-02
   maximum displ.:     0.2982292 α      in ANC's #7, #8, #13, ...

........................................................................
.............................. CYCLE   24 ..............................
........................................................................

 iter      E             dE          RMSdq      gap      omega  full diag
   1    -42.5116962 -0.425117E+02  0.153E-01    0.15       0.0  T
   2    -42.5115294  0.166817E-03  0.119E-01    0.14       1.0  T
   3    -42.5113908  0.138603E-03  0.115E-01    0.18       1.0  T
   4    -42.5111007  0.290049E-03  0.112E-01    0.09       1.0  T
   5    -42.5117902 -0.689501E-03  0.221E-02    0.15       1.0  T
   6    -42.5118095 -0.192502E-04  0.541E-03    0.14       3.7  T
   7    -42.5118094  0.513915E-07  0.355E-03    0.14       5.6  T
   8    -42.5118097 -0.282230E-06  0.158E-03    0.15      12.6  T
   9    -42.5118098 -0.114253E-06  0.425E-04    0.15      47.0  T
  10    -42.5118098 -0.332393E-08  0.202E-04    0.15      99.0  T
     SCC iter.                  ...        0 min,  0.014 sec
     gradient                   ...        0 min,  0.011 sec
 * total energy  :   -41.9751250 Eh     change       -0.2044364E-02 Eh
   gradient norm :     0.0175676 Eh/α   predicted    -0.1970008E-02 (  -3.64%)
   displ. norm   :     0.2379099 α      lambda       -0.1126672E-02
   maximum displ.:     0.1487878 α      in ANC's #7, #8, #16, ...

........................................................................
.............................. CYCLE   25 ..............................
........................................................................

 iter      E             dE          RMSdq      gap      omega  full diag
   1    -42.5119659 -0.425120E+02  0.117E-01    0.13       0.0  T
   2    -42.5118234  0.142490E-03  0.979E-02    0.12       1.0  T
   3    -42.5117681  0.552616E-04  0.892E-02    0.16       1.0  T
   4    -42.5116228  0.145383E-03  0.910E-02    0.09       1.0  T
   5    -42.5120294 -0.406610E-03  0.195E-02    0.14       1.0  T
   6    -42.5120471 -0.177334E-04  0.417E-03    0.13       4.8  T
   7    -42.5120473 -0.219178E-06  0.223E-03    0.13       9.0  T
   8    -42.5120475 -0.150548E-06  0.924E-04    0.13      21.6  T
   9    -42.5120475 -0.278784E-07  0.291E-04    0.13      68.6  T
     SCC iter.                  ...        0 min,  0.013 sec
     gradient                   ...        0 min,  0.011 sec
 * total energy  :   -41.9756841 Eh     change       -0.5591173E-03 Eh
   gradient norm :     0.0117680 Eh/α   predicted    -0.5952716E-03 (   6.47%)
   displ. norm   :     0.1511325 α      lambda       -0.6105569E-03
   maximum displ.:     0.0765842 α      in ANC's #7, #11, #10, ...

........................................................................
.............................. CYCLE   26 ..............................
........................................................................

 iter      E             dE          RMSdq      gap      omega  full diag
   1    -42.5116536 -0.425117E+02  0.934E-02    0.11       0.0  T
   2    -42.5116056  0.480213E-04  0.719E-02    0.12       1.0  T
   3    -42.5116313 -0.257831E-04  0.550E-02    0.11       1.0  T
   4    -42.5116953 -0.639634E-04  0.165E-02    0.12       1.2  T
   5    -42.5116966 -0.127943E-05  0.118E-02    0.11       1.7  T
   6    -42.5117038 -0.724821E-05  0.322E-03    0.12       6.2  T
   7    -42.5117040 -0.211210E-06  0.158E-03    0.12      12.6  T
   8    -42.5117041 -0.410174E-07  0.591E-04    0.12      33.9  T
   9    -42.5117041 -0.925205E-08  0.306E-04    0.12      65.4  T
     SCC iter.                  ...        0 min,  0.013 sec
     gradient                   ...        0 min,  0.011 sec
 * total energy  :   -41.9760948 Eh     change       -0.4106765E-03 Eh
   gradient norm :     0.0079033 Eh/α   predicted    -0.3122540E-03 ( -23.97%)
   displ. norm   :     0.2595103 α      lambda       -0.6342046E-03
   maximum displ.:     0.1069959 α      in ANC's #6, #11, #10, ...

........................................................................
.............................. CYCLE   27 ..............................
........................................................................

 iter      E             dE          RMSdq      gap      omega  full diag
   1    -42.5079306 -0.425079E+02  0.148E-01    0.10       0.0  T
   2    -42.5077029  0.227681E-03  0.120E-01    0.15       1.0  T
   3    -42.5073547  0.348274E-03  0.124E-01    0.07       1.0  T
   4    -42.5072693  0.853008E-04  0.124E-01    0.16       1.0  T
   5    -42.5080306 -0.761230E-03  0.167E-02    0.11       1.2  T
   6    -42.5080385 -0.793170E-05  0.501E-03    0.11       4.0  T
   7    -42.5080387 -0.150084E-06  0.285E-03    0.11       7.0  T
   8    -42.5080389 -0.243048E-06  0.101E-03    0.11      19.8  T
   9    -42.5080389 -0.259180E-07  0.512E-04    0.11      39.0  T
  10    -42.5080389 -0.539487E-08  0.274E-04    0.11      73.1  T
     SCC iter.                  ...        0 min,  0.014 sec
     gradient                   ...        0 min,  0.011 sec
 * total energy  :   -41.9766656 Eh     change       -0.5707915E-03 Eh
   gradient norm :     0.0139239 Eh/α   predicted    -0.3384691E-03 ( -40.70%)
   displ. norm   :     0.7439314 α      lambda       -0.1875591E-02
   maximum displ.:     0.3214825 α      in ANC's #6, #11, #10, ...

........................................................................
.............................. CYCLE   28 ..............................
........................................................................

 iter      E             dE          RMSdq      gap      omega  full diag
   1    -42.4789440 -0.424789E+02  0.483E-01    0.07       0.0  T
   2    -42.4664953  0.124487E-01  0.631E-01    0.42       1.0  T
   3    -42.4755381 -0.904283E-02  0.368E-01    0.15       1.0  T
   4    -42.4744638  0.107437E-02  0.383E-01    0.24       1.0  T
   5    -42.4812363 -0.677248E-02  0.643E-02    0.10       1.0  T
   6    -42.4813467 -0.110406E-03  0.229E-02    0.09       1.0  T
   7    -42.4813533 -0.664748E-05  0.152E-02    0.09       1.3  T
   8    -42.4813596 -0.625060E-05  0.538E-03    0.09       3.7  T
   9    -42.4813602 -0.650476E-06  0.208E-03    0.09       9.6  T
  10    -42.4813603 -0.517843E-07  0.947E-04    0.09      21.1  T
  11    -42.4813603 -0.720519E-08  0.375E-04    0.09      53.3  T
     SCC iter.                  ...        0 min,  0.015 sec
     gradient                   ...        0 min,  0.011 sec
 * total energy  :   -41.9768815 Eh     change       -0.2158807E-03 Eh
   gradient norm :     0.0541733 Eh/α   predicted    -0.1456842E-02 ( 574.84%)
   displ. norm   :     0.2414093 α      lambda       -0.3046688E-02
   maximum displ.:     0.1519740 α      in ANC's #2, #6, #7, ...

........................................................................
.............................. CYCLE   29 ..............................
........................................................................

 iter      E             dE          RMSdq      gap      omega  full diag
   1    -42.5017769 -0.425018E+02  0.203E-01    0.14       0.0  T
   2    -42.4995664  0.221049E-02  0.277E-01    0.09       1.0  T
   3    -42.5015548 -0.198840E-02  0.145E-01    0.17       1.0  T
   4    -42.5013195  0.235344E-03  0.150E-01    0.07       1.0  T
   5    -42.5023850 -0.106546E-02  0.290E-02    0.10       1.0  T
   6    -42.5024089 -0.239242E-04  0.106E-02    0.10       1.9  T
   7    -42.5024103 -0.140437E-05  0.662E-03    0.10       3.0  T
   8    -42.5024111 -0.773946E-06  0.280E-03    0.10       7.1  T
   9    -42.5024113 -0.248606E-06  0.794E-04    0.10      25.2  T
  10    -42.5024113 -0.124962E-07  0.367E-04    0.10      54.5  T
     SCC iter.                  ...        0 min,  0.014 sec
     gradient                   ...        0 min,  0.011 sec
 * total energy  :   -41.9781025 Eh     change       -0.1221000E-02 Eh
   gradient norm :     0.0297110 Eh/α   predicted    -0.1612124E-02 (  32.03%)
   displ. norm   :     0.1715731 α      lambda       -0.1702445E-02
   maximum displ.:     0.0878727 α      in ANC's #2, #3, #6, ...

........................................................................
.............................. CYCLE   30 ..............................
........................................................................

 iter      E             dE          RMSdq      gap      omega  full diag
   1    -42.5099296 -0.425099E+02  0.127E-01    0.14       0.0  T
   2    -42.5088626  0.106695E-02  0.185E-01    0.07       1.0  T
   3    -42.5099246 -0.106201E-02  0.829E-02    0.14       1.0  T
   4    -42.5096548  0.269830E-03  0.103E-01    0.08       1.0  T
   5    -42.5101249 -0.470097E-03  0.191E-02    0.11       1.0  T
   6    -42.5101360 -0.110666E-04  0.566E-03    0.11       3.5  T
   7    -42.5101365 -0.472788E-06  0.381E-03    0.11       5.2  T
   8    -42.5101368 -0.333743E-06  0.192E-03    0.11      10.4  T
   9    -42.5101369 -0.138828E-06  0.339E-04    0.11      59.0  T
  10    -42.5101369 -0.454783E-09  0.221E-04    0.11      90.4  T
     SCC iter.                  ...        0 min,  0.014 sec
     gradient                   ...        0 min,  0.011 sec
 * total energy  :   -41.9789967 Eh     change       -0.8942175E-03 Eh
   gradient norm :     0.0220519 Eh/α   predicted    -0.8762834E-03 (  -2.01%)
   displ. norm   :     0.5255718 α      lambda       -0.2605873E-02
   maximum displ.:     0.2423744 α      in ANC's #6, #9, #3, ...

........................................................................
.............................. CYCLE   31 ..............................
........................................................................

 iter      E             dE          RMSdq      gap      omega  full diag
   1    -42.5022159 -0.425022E+02  0.316E-01    0.08       0.0  T
   2    -42.4978391  0.437673E-02  0.371E-01    0.32       1.0  T
   3    -42.4997508 -0.191163E-02  0.266E-01    0.08       1.0  T
   4    -42.5004774 -0.726690E-03  0.235E-01    0.20       1.0  T
   5    -42.5029231 -0.244562E-02  0.263E-02    0.13       1.0  T
   6    -42.5029413 -0.182441E-04  0.119E-02    0.12       1.7  T
   7    -42.5029414 -0.108468E-06  0.843E-03    0.12       2.4  T
   8    -42.5029440 -0.258809E-05  0.282E-03    0.12       7.1  T
   9    -42.5029442 -0.221733E-06  0.116E-03    0.12      17.3  T
  10    -42.5029442 -0.981208E-08  0.653E-04    0.12      30.6  T
  11    -42.5029442 -0.964416E-08  0.206E-04    0.12      97.0  T
     SCC iter.                  ...        0 min,  0.015 sec
     gradient                   ...        0 min,  0.011 sec
 * total energy  :   -41.9816528 Eh     change       -0.2656090E-02 Eh
   gradient norm :     0.0252443 Eh/α   predicted    -0.1662841E-02 ( -37.40%)
   displ. norm   :     0.9057092 α      lambda       -0.5059127E-02
   maximum displ.:     0.3999741 α      in ANC's #6, #9, #3, ...

........................................................................
.............................. CYCLE   32 ..............................
........................................................................

 iter      E             dE          RMSdq      gap      omega  full diag
   1    -42.4662590 -0.424663E+02  0.622E-01    0.10       0.0  T
   2    -42.4222440  0.440149E-01  0.109E+00    0.76       1.0  T
   3    -42.4688775 -0.466335E-01  0.350E-01    0.06       1.0  T
   4    -42.4612108  0.766675E-02  0.488E-01    0.31       1.0  T
   5    -42.4718465 -0.106357E-01  0.658E-02    0.14       1.0  T
   6    -42.4719443 -0.978140E-04  0.289E-02    0.12       1.0  T
   7    -42.4719536 -0.925070E-05  0.177E-02    0.12       1.1  T
   8    -42.4719639 -0.103043E-04  0.468E-03    0.12       4.3  T
   9    -42.4719642 -0.359089E-06  0.208E-03    0.12       9.6  T
  10    -42.4719642  0.363270E-07  0.156E-03    0.12      12.9  T
  11    -42.4719643 -0.682794E-07  0.467E-04    0.12      42.8  T
  12    -42.4719643 -0.370684E-08  0.247E-04    0.12      81.1  T
     SCC iter.                  ...        0 min,  0.017 sec
     gradient                   ...        0 min,  0.011 sec
 * total energy  :   -41.9826504 Eh     change       -0.9975523E-03 Eh
   gradient norm :     0.0685816 Eh/α   predicted    -0.4604597E-02 ( 361.59%)
   displ. norm   :     0.3133257 α      lambda       -0.5466437E-02
   maximum displ.:     0.1371560 α      in ANC's #11, #3, #6, ...

........................................................................
.............................. CYCLE   33 ..............................
........................................................................

 iter      E             dE          RMSdq      gap      omega  full diag
   1    -42.4991493 -0.424991E+02  0.314E-01    0.29       0.0  T
   2    -42.4790176  0.201318E-01  0.714E-01    0.33       1.0  T
   3    -42.5015790 -0.225615E-01  0.183E-01    0.16       1.0  T
   4    -42.5003197  0.125934E-02  0.214E-01    0.08       1.0  T
   5    -42.5021012 -0.178153E-02  0.404E-02    0.14       1.0  T
   6    -42.5021304 -0.291475E-04  0.159E-02    0.16       1.3  T
   7    -42.5021415 -0.111649E-04  0.734E-03    0.15       2.7  T
   8    -42.5021420 -0.498441E-06  0.487E-03    0.15       4.1  T
   9    -42.5021429 -0.905776E-06  0.138E-03    0.15      14.5  T
  10    -42.5021430 -0.326300E-07  0.568E-04    0.15      35.2  T
  11    -42.5021430 -0.182593E-08  0.290E-04    0.15      69.0  T
     SCC iter.                  ...        0 min,  0.015 sec
     gradient                   ...        0 min,  0.011 sec
 * total energy  :   -41.9848317 Eh     change       -0.2181386E-02 Eh
   gradient norm :     0.0449420 Eh/α   predicted    -0.3001566E-02 (  37.60%)
   displ. norm   :     0.3369636 α      lambda       -0.3787038E-02
   maximum displ.:     0.1672613 α      in ANC's #2, #6, #3, ...

........................................................................
.............................. CYCLE   34 ..............................
........................................................................

 iter      E             dE          RMSdq      gap      omega  full diag
   1    -42.4993746 -0.424994E+02  0.271E-01    0.16       0.0  T
   2    -42.4989351  0.439499E-03  0.222E-01    0.08       1.0  T
   3    -42.4985134  0.421655E-03  0.180E-01    0.24       1.0  T
   4    -42.4964297  0.208375E-02  0.259E-01    0.07       1.0  T
   5    -42.4997646 -0.333493E-02  0.436E-02    0.14       1.0  T
   6    -42.4998288 -0.642313E-04  0.113E-02    0.14       1.8  T
   7    -42.4998294 -0.616410E-06  0.635E-03    0.14       3.1  T
   8    -42.4998303 -0.825693E-06  0.254E-03    0.14       7.9  T
   9    -42.4998305 -0.263603E-06  0.882E-04    0.14      22.7  T
  10    -42.4998305 -0.137093E-07  0.383E-04    0.14      52.3  T
     SCC iter.                  ...        0 min,  0.014 sec
     gradient                   ...        0 min,  0.011 sec
 * total energy  :   -41.9847256 Eh     change        0.1061717E-03 Eh
   gradient norm :     0.0515380 Eh/α   predicted    -0.2108522E-02 (*******%)
   displ. norm   :     0.2254672 α      lambda       -0.4928452E-02
   maximum displ.:     0.1157595 α      in ANC's #3, #8, #9, ...

........................................................................
.............................. CYCLE   35 ..............................
........................................................................

 iter      E             dE          RMSdq      gap      omega  full diag
   1    -42.5070812 -0.425071E+02  0.236E-01    0.08       0.0  T
   2    -42.5031075  0.397364E-02  0.365E-01    0.33       1.0  T
   3    -42.5072566 -0.414905E-02  0.164E-01    0.07       1.0  T
   4    -42.5073009 -0.443083E-04  0.162E-01    0.22       1.0  T
   5    -42.5082431 -0.942234E-03  0.513E-02    0.15       1.0  T
   6    -42.5083318 -0.886904E-04  0.101E-02    0.14       2.0  T
   7    -42.5083342 -0.239220E-05  0.599E-03    0.14       3.3  T
   8    -42.5083347 -0.466524E-06  0.237E-03    0.14       8.4  T
   9    -42.5083349 -0.168634E-06  0.776E-04    0.14      25.8  T
  10    -42.5083349 -0.140956E-07  0.404E-04    0.14      49.5  T
     SCC iter.                  ...        0 min,  0.014 sec
     gradient                   ...        0 min,  0.011 sec
 * total energy  :   -41.9878281 Eh     change       -0.3102565E-02 Eh
   gradient norm :     0.0319265 Eh/α   predicted    -0.2589498E-02 ( -16.54%)
   displ. norm   :     0.5198832 α      lambda       -0.4405722E-02
   maximum displ.:     0.2248122 α      in ANC's #10, #9, #4, ...

........................................................................
.............................. CYCLE   36 ..............................
........................................................................

 iter      E             dE          RMSdq      gap      omega  full diag
   1    -42.5026914 -0.425027E+02  0.279E-01    0.07       0.0  T
   2    -42.4984952  0.419620E-02  0.344E-01    0.32       1.0  T
   3    -42.5010349 -0.253971E-02  0.230E-01    0.06       1.0  T
   4    -42.5019051 -0.870206E-03  0.181E-01    0.17       1.0  T
   5    -42.5032788 -0.137366E-02  0.153E-02    0.13       1.3  T
   6    -42.5032813 -0.253394E-05  0.737E-03    0.12       2.7  T
   7    -42.5032815 -0.165265E-06  0.453E-03    0.12       4.4  T
   8    -42.5032820 -0.485783E-06  0.118E-03    0.12      17.0  T
   9    -42.5032820 -0.169981E-07  0.668E-04    0.12      30.0  T
  10    -42.5032820 -0.261826E-08  0.385E-04    0.12      52.0  T
     SCC iter.                  ...        0 min,  0.014 sec
     gradient                   ...        0 min,  0.011 sec
 * total energy  :   -41.9902636 Eh     change       -0.2435443E-02 Eh
   gradient norm :     0.0546476 Eh/α   predicted    -0.2798247E-02 (  14.90%)
   displ. norm   :     0.5046774 α      lambda       -0.4785121E-02
   maximum displ.:     0.2398524 α      in ANC's #9, #6, #8, ...

........................................................................
.............................. CYCLE   37 ..............................
........................................................................

 iter      E             dE          RMSdq      gap      omega  full diag
   1    -42.5065139 -0.425065E+02  0.270E-01    0.04       0.0  T
   2    -42.5014028  0.511109E-02  0.372E-01    0.32       1.0  T
   3    -42.5057187 -0.431586E-02  0.200E-01    0.05       1.0  T
   4    -42.5062325 -0.513756E-03  0.156E-01    0.14       1.0  T
   5    -42.5072158 -0.983370E-03  0.336E-02    0.11       1.0  T
   6    -42.5072507 -0.348529E-04  0.985E-03    0.10       2.0  T
   7    -42.5072517 -0.995716E-06  0.565E-03    0.10       3.5  T
   8    -42.5072521 -0.467106E-06  0.218E-03    0.10       9.2  T
   9    -42.5072523 -0.182964E-06  0.859E-04    0.10      23.3  T
  10    -42.5072523 -0.881796E-08  0.467E-04    0.10      42.9  T
     SCC iter.                  ...        0 min,  0.014 sec
     gradient                   ...        0 min,  0.011 sec
 * total energy  :   -41.9939187 Eh     change       -0.3655161E-02 Eh
   gradient norm :     0.0555733 Eh/α   predicted    -0.3001946E-02 ( -17.87%)
   displ. norm   :     0.5670024 α      lambda       -0.8343502E-02
   maximum displ.:     0.2174612 α      in ANC's #8, #6, #2, ...

........................................................................
.............................. CYCLE   38 ..............................
........................................................................

 iter      E             dE          RMSdq      gap      omega  full diag
   1    -42.5302955 -0.425303E+02  0.325E-01    0.06       0.0  T
   2    -42.5303815 -0.860508E-04  0.217E-01    0.05       1.0  T
   3    -42.5302352  0.146285E-03  0.164E-01    0.13       1.0  T
   4    -42.5276387  0.259655E-02  0.254E-01    0.12       1.0  T
   5    -42.5309865 -0.334777E-02  0.418E-02    0.08       1.0  T
   6    -42.5310631 -0.766562E-04  0.118E-02    0.07       1.7  T
   7    -42.5310635 -0.361573E-06  0.828E-03    0.06       2.4  T
   8    -42.5310654 -0.193470E-05  0.269E-03    0.07       7.4  T
   9    -42.5310656 -0.192649E-06  0.930E-04    0.07      21.5  T
  10    -42.5310656 -0.697027E-08  0.437E-04    0.07      45.8  T
     SCC iter.                  ...        0 min,  0.014 sec
     gradient                   ...        0 min,  0.011 sec
 * total energy  :   -41.9990472 Eh     change       -0.5128418E-02 Eh
   gradient norm :     0.0414358 Eh/α   predicted    -0.5512935E-02 (   7.50%)
   displ. norm   :     0.7455916 α      lambda       -0.6440939E-02
   maximum displ.:     0.3306217 α      in ANC's #9, #4, #8, ...

........................................................................
.............................. CYCLE   39 ..............................
........................................................................

 iter      E             dE          RMSdq      gap      omega  full diag
   1    -42.5127341 -0.425127E+02  0.405E-01    0.12       0.0  T
   2    -42.5006244  0.121098E-01  0.536E-01    0.32       1.0  T
   3    -42.5094279 -0.880352E-02  0.342E-01    0.22       1.0  T
   4    -42.5136669 -0.423903E-02  0.155E-01    0.02       1.0  T
   5    -42.5144021 -0.735158E-03  0.532E-02    0.02       1.0  T
   6    -42.5144965 -0.943607E-04  0.144E-02    0.02       1.4  T
   7    -42.5144991 -0.260708E-05  0.738E-03    0.02       2.7  T
   8    -42.5145000 -0.909520E-06  0.199E-03    0.02      10.0  T
   9    -42.5145000 -0.351315E-07  0.106E-03    0.02      18.9  T
  10    -42.5145000 -0.129962E-07  0.441E-04    0.02      45.3  T
  11    -42.5145000 -0.747299E-09  0.193E-04    0.02     103.6  T
     SCC iter.                  ...        0 min,  0.015 sec
     gradient                   ...        0 min,  0.011 sec
 * total energy  :   -42.0034601 Eh     change       -0.4412911E-02 Eh
   gradient norm :     0.0585655 Eh/α   predicted    -0.5010749E-02 (  13.55%)
   displ. norm   :     0.5088409 α      lambda       -0.6198244E-02
   maximum displ.:     0.2598946 α      in ANC's #8, #10, #9, ...

........................................................................
.............................. CYCLE   40 ..............................
........................................................................

 iter      E             dE          RMSdq      gap      omega  full diag
   1    -42.5225924 -0.425226E+02  0.273E-01    0.01       0.0  T
   2    -42.5224354  0.157012E-03  0.202E-01    0.07       1.0  T
   3    -42.5202899  0.214545E-02  0.247E-01    0.14       1.0  T
   4    -42.5222650 -0.197507E-02  0.157E-01    0.11       1.0  T
   5    -42.5232553 -0.990339E-03  0.403E-02    0.01       1.0  T
   6    -42.5233166 -0.613381E-04  0.111E-02    0.02       1.8  T
   7    -42.5233191 -0.249543E-05  0.631E-03    0.02       3.2  T
   8    -42.5233197 -0.552004E-06  0.315E-03    0.02       6.4  T
   9    -42.5233200 -0.272890E-06  0.104E-03    0.02      19.3  T
  10    -42.5233200 -0.159091E-07  0.492E-04    0.02      40.7  T
  11    -42.5233200 -0.303650E-08  0.208E-04    0.02      96.1  T
     SCC iter.                  ...        0 min,  0.016 sec
     gradient                   ...        0 min,  0.011 sec
 * total energy  :   -42.0056549 Eh     change       -0.2194800E-02 Eh
   gradient norm :     0.0806627 Eh/α   predicted    -0.3901550E-02 (  77.76%)
   displ. norm   :     0.4443822 α      lambda       -0.7714259E-02
   maximum displ.:     0.2512754 α      in ANC's #8, #4, #12, ...

........................................................................
.............................. CYCLE   41 ..............................
........................................................................

 iter      E             dE          RMSdq      gap      omega  full diag
   1    -42.5358941 -0.425359E+02  0.271E-01    0.07       0.0  T
   2    -42.5363559 -0.461826E-03  0.241E-01    0.08       1.0  T
   3    -42.5374381 -0.108220E-02  0.103E-01    0.06       1.0  T
   4    -42.5371477  0.290442E-03  0.876E-02    0.11       1.0  T
   5    -42.5372169 -0.691441E-04  0.677E-02    0.02       1.0  T
   6    -42.5374717 -0.254847E-03  0.138E-02    0.07       1.4  T
   7    -42.5374759 -0.416948E-05  0.777E-03    0.06       2.6  T
   8    -42.5374771 -0.123542E-05  0.319E-03    0.06       6.3  T
   9    -42.5374774 -0.275159E-06  0.106E-03    0.06      18.8  T
  10    -42.5374774 -0.134803E-07  0.420E-04    0.06      47.7  T
  11    -42.5374774 -0.855927E-09  0.172E-04    0.06     116.3  T
     SCC iter.                  ...        0 min,  0.016 sec
     gradient                   ...        0 min,  0.011 sec
 * total energy  :   -42.0097599 Eh     change       -0.4104995E-02 Eh
   gradient norm :     0.0366800 Eh/α   predicted    -0.4618821E-02 (  12.52%)
   displ. norm   :     0.5921361 α      lambda       -0.5432941E-02
   maximum displ.:     0.3038051 α      in ANC's #8, #6, #9, ...

........................................................................
.............................. CYCLE   42 ..............................
........................................................................

 iter      E             dE          RMSdq      gap      omega  full diag
   1    -42.5299048 -0.425299E+02  0.311E-01    0.21       0.0  T
   2    -42.5245702  0.533453E-02  0.373E-01    0.09       1.0  T
   3    -42.5269333 -0.236307E-02  0.282E-01    0.31       1.0  T
   4    -42.5303326 -0.339927E-02  0.986E-02    0.09       1.0  T
   5    -42.5306362 -0.303658E-03  0.310E-02    0.12       1.0  T
   6    -42.5306714 -0.351333E-04  0.960E-03    0.13       2.1  T
   7    -42.5306726 -0.125884E-05  0.558E-03    0.13       3.6  T
   8    -42.5306732 -0.582107E-06  0.187E-03    0.13      10.7  T
   9    -42.5306733 -0.988054E-07  0.872E-04    0.13      22.9  T
  10    -42.5306733 -0.547810E-08  0.404E-04    0.13      49.5  T
     SCC iter.                  ...        0 min,  0.014 sec
     gradient                   ...        0 min,  0.011 sec
 * total energy  :   -42.0122388 Eh     change       -0.2478921E-02 Eh
   gradient norm :     0.0446848 Eh/α   predicted    -0.3668939E-02 (  48.01%)
   displ. norm   :     0.3387710 α      lambda       -0.4163099E-02
   maximum displ.:     0.1555992 α      in ANC's #8, #15, #9, ...
 * RMSD in coord.:     1.2735849 α      energy gain  -0.5799186E-01 Eh

generating ANC from model Hessian ...
Using Lindh-Hessian (1995)
 Shifting diagonal of input Hessian by    9.4612927004033252E-003
 Lowest  eigenvalues of input Hessian
    0.000000    0.000000    0.000000    0.000000    0.000000    0.000000
    0.010000    0.010669    0.011262    0.012503    0.013017    0.014482
    0.016773    0.017164    0.018590    0.020510    0.024031    0.025932
 Highest eigenvalues
    1.742091    2.022152    2.243709    2.383698    2.639222    2.854448


........................................................................
.............................. CYCLE   43 ..............................
........................................................................

 iter      E             dE          RMSdq      gap      omega  full diag
   1    -42.5508281 -0.425508E+02  0.192E-01    0.12       0.0  T
   2    -42.5504790  0.349088E-03  0.167E-01    0.20       1.0  T
   3    -42.5496139  0.865078E-03  0.176E-01    0.03       1.0  T
   4    -42.5503175 -0.703651E-03  0.130E-01    0.22       1.0  T
   5    -42.5511269 -0.809316E-03  0.310E-02    0.13       1.0  T
   6    -42.5511664 -0.395118E-04  0.844E-03    0.14       2.4  T
   7    -42.5511676 -0.125387E-05  0.399E-03    0.14       5.0  T
   8    -42.5511678 -0.157524E-06  0.135E-03    0.14      14.8  T
   9    -42.5511678 -0.247345E-07  0.492E-04    0.14      40.6  T
  10    -42.5511678 -0.284686E-09  0.300E-04    0.14      66.6  T
     SCC iter.                  ...        0 min,  0.014 sec
     gradient                   ...        0 min,  0.011 sec
 * total energy  :   -42.0141809 Eh     change       -0.1942140E-02 Eh
   gradient norm :     0.0433372 Eh/α   predicted     0.0000000E+00 (-100.00%)
   displ. norm   :     0.3355637 α      lambda       -0.3815752E-02
   maximum displ.:     0.2407761 α      in ANC's #5, #6, #7, ...

........................................................................
.............................. CYCLE   44 ..............................
........................................................................

 iter      E             dE          RMSdq      gap      omega  full diag
   1    -42.5486789 -0.425487E+02  0.237E-01    0.18       0.0  T
   2    -42.5478181  0.860797E-03  0.192E-01    0.06       1.0  T
   3    -42.5440051  0.381303E-02  0.303E-01    0.35       1.0  T
   4    -42.5486632 -0.465806E-02  0.768E-02    0.12       1.0  T
   5    -42.5488956 -0.232403E-03  0.189E-02    0.16       1.1  T
   6    -42.5489065 -0.109382E-04  0.848E-03    0.15       2.4  T
   7    -42.5489076 -0.108784E-05  0.432E-03    0.15       4.6  T
   8    -42.5489080 -0.403610E-06  0.138E-03    0.15      14.5  T
   9    -42.5489080 -0.590166E-07  0.465E-04    0.15      43.0  T
  10    -42.5489080 -0.117181E-08  0.274E-04    0.15      73.0  T
     SCC iter.                  ...        0 min,  0.014 sec
     gradient                   ...        0 min,  0.011 sec
 * total energy  :   -42.0167480 Eh     change       -0.2567118E-02 Eh
   gradient norm :     0.0177284 Eh/α   predicted    -0.2127309E-02 ( -17.13%)
   displ. norm   :     0.5219103 α      lambda       -0.3630291E-02
   maximum displ.:     0.3029044 α      in ANC's #5, #6, #10, ...

........................................................................
.............................. CYCLE   45 ..............................
........................................................................

 iter      E             dE          RMSdq      gap      omega  full diag
   1    -42.5492566 -0.425493E+02  0.292E-01    0.18       0.0  T
   2    -42.5494047 -0.148087E-03  0.192E-01    0.16       1.0  T
   3    -42.5491192  0.285518E-03  0.142E-01    0.22       1.0  T
   4    -42.5471285  0.199068E-02  0.221E-01    0.04       1.0  T
   5    -42.5496692 -0.254076E-02  0.411E-02    0.20       1.0  T
   6    -42.5497547 -0.854985E-04  0.105E-02    0.17       1.9  T
   7    -42.5497573 -0.256758E-05  0.547E-03    0.17       3.7  T
   8    -42.5497577 -0.434331E-06  0.185E-03    0.17      10.8  T
   9    -42.5497578 -0.939562E-07  0.712E-04    0.17      28.1  T
  10    -42.5497578 -0.419423E-08  0.412E-04    0.17      48.5  T
     SCC iter.                  ...        0 min,  0.014 sec
     gradient                   ...        0 min,  0.011 sec
 * total energy  :   -42.0187094 Eh     change       -0.1961380E-02 Eh
   gradient norm :     0.0358226 Eh/α   predicted    -0.2309577E-02 (  17.75%)
   displ. norm   :     0.4381576 α      lambda       -0.2525873E-02
   maximum displ.:     0.3146033 α      in ANC's #5, #6, #13, ...

........................................................................
.............................. CYCLE   46 ..............................
........................................................................

 iter      E             dE          RMSdq      gap      omega  full diag
   1    -42.5468175 -0.425468E+02  0.228E-01    0.26       0.0  T
   2    -42.5437339  0.308362E-02  0.276E-01    0.04       1.0  T
   3    -42.5455403 -0.180641E-02  0.197E-01    0.32       1.0  T
   4    -42.5469690 -0.142875E-02  0.556E-02    0.23       1.0  T
   5    -42.5471472 -0.178115E-03  0.163E-02    0.21       1.2  T
   6    -42.5471554 -0.824497E-05  0.549E-03    0.21       3.6  T
   7    -42.5471556 -0.211553E-06  0.363E-03    0.21       5.5  T
   8    -42.5471559 -0.311840E-06  0.120E-03    0.21      16.6  T
   9    -42.5471560 -0.386222E-07  0.496E-04    0.21      40.3  T
  10    -42.5471560 -0.899746E-09  0.264E-04    0.21      75.7  T
     SCC iter.                  ...        0 min,  0.014 sec
     gradient                   ...        0 min,  0.011 sec
 * total energy  :   -42.0206415 Eh     change       -0.1932072E-02 Eh
   gradient norm :     0.0360266 Eh/α   predicted    -0.1505398E-02 ( -22.08%)
   displ. norm   :     0.4706105 α      lambda       -0.3119778E-02
   maximum displ.:     0.3351095 α      in ANC's #5, #6, #13, ...

........................................................................
.............................. CYCLE   47 ..............................
........................................................................

 iter      E             dE          RMSdq      gap      omega  full diag
   1    -42.5536358 -0.425536E+02  0.214E-01    0.27       0.0  T
   2    -42.5519723  0.166351E-02  0.218E-01    0.11       1.0  T
   3    -42.5513301  0.642222E-03  0.229E-01    0.37       1.0  T
   4    -42.5535966 -0.226655E-02  0.759E-02    0.22       1.0  T
   5    -42.5538566 -0.259952E-03  0.171E-02    0.23       1.2  T
   6    -42.5538655 -0.893094E-05  0.517E-03    0.23       3.9  T
   7    -42.5538658 -0.258320E-06  0.301E-03    0.23       6.6  T
   8    -42.5538659 -0.108187E-06  0.112E-03    0.23      17.8  T
   9    -42.5538659 -0.193191E-07  0.412E-04    0.23      48.5  T
  10    -42.5538659  0.185622E-09  0.276E-04    0.23      72.5  T
     SCC iter.                  ...        0 min,  0.014 sec
     gradient                   ...        0 min,  0.011 sec
 * total energy  :   -42.0228705 Eh     change       -0.2229024E-02 Eh
   gradient norm :     0.0224626 Eh/α   predicted    -0.1905365E-02 ( -14.52%)
   displ. norm   :     0.5544974 α      lambda       -0.2276952E-02
   maximum displ.:     0.3532253 α      in ANC's #5, #6, #10, ...

........................................................................
.............................. CYCLE   48 ..............................
........................................................................

 iter      E             dE          RMSdq      gap      omega  full diag
   1    -42.5578508 -0.425579E+02  0.263E-01    0.32       0.0  T
[...]
C            3.60390409334648       -0.53433359394439        0.63742407590873
N            1.41825181518415       -2.01495799830198       -2.04914128401309
C            1.60339667449129       -1.04239476525237       -1.38616866979922
C            1.58233018798690       -0.03968982466006       -0.50826748672141
C            0.46434260874740        0.96977765342774       -0.71462189934676
O            0.71787535240854        2.06711790461998       -1.15976622177438
N           -0.79553863132947        0.53343769443574       -0.43856634584662
C           -1.91804478729411        1.36399431067702       -0.81026781728380
C           -1.02817655089535       -0.63002253493860        0.35112331268314
O           -0.07508774917700       -1.18513953389714        0.89823817509723
N           -2.29557235534514       -0.96467961565917        0.41076414510762
C           -2.82305571516007       -2.02913513098556        1.14728137181090
H            1.66636196392903        1.61126316438226        1.64943731169798
H            3.44245105437023        1.62213199528460        1.71365748055526
H            2.59242944224718        2.34858397440330        0.32767771313164
H            3.73365484548371       -1.51485539603812        0.21063488628304
H           -1.58939499787596        2.08659017879357       -1.55725217366786
H           -2.71180030204048        0.73267193214259       -1.20981281072941
H           -2.30596230490780        1.90074217631291        0.05898687442581
H           -2.11634719648780       -2.42666229488418        1.88921675379957
H           -3.11855680361249       -2.83943805183891        0.46813163029036
H           -3.73229029279108       -1.68378124555906        1.65301696973276
H            1.63192233060173       -2.30538549548347       -2.98768145300373

 Bond Distances (Angstroems)
 ---------------------------
C1-N2=1.4510         C1-H15=1.0903        C1-H16=1.0883        C1-H17=1.0910        N2-C1=1.4510         N2-C3=1.2763         
N2-C6=1.4084         C3-N2=1.2763         C3-H18=1.0772        N4-C5=1.1915         N4-H25=1.0054        C5-N4=1.1915         
C5-C6=1.3329         C6-N2=1.4084         C6-C5=1.3329         C6-C7=1.5204         C7-C6=1.5204         C7-O8=1.2110         
C7-N9=1.3616         O8-C7=1.2110         N9-C7=1.3616         N9-C10=1.4450        N9-C11=1.4253        C10-N9=1.4450        
C10-H19=1.0900       C10-H20=1.0901       C10-H21=1.0928       C11-N9=1.4253        C11-O12=1.2312       C11-N13=1.3122       
O12-C11=1.2312       N13-C11=1.3122       N13-C14=1.3978       C14-N13=1.3978       C14-H22=1.0991       C14-H23=1.0978       
C14-H24=1.0962       H15-C1=1.0903        H16-C1=1.0883        H17-C1=1.0910        H18-C3=1.0772        H19-C10=1.0900       
H20-C10=1.0901       H21-C10=1.0928       H22-C14=1.0991       H23-C14=1.0978       H24-C14=1.0962       H25-N4=1.0054        
 C  H  Rav=1.0913 sigma=0.0058  Rmin=1.0772  Rmax=1.0991    10
 C  C  Rav=1.4266 sigma=0.0937  Rmin=1.3329  Rmax=1.5204     2
 N  H  Rav=1.0054 sigma=0.0000  Rmin=1.0054  Rmax=1.0054     1
 N  C  Rav=1.3632 sigma=0.0824  Rmin=1.1915  Rmax=1.4510     9
 O  C  Rav=1.2211 sigma=0.0101  Rmin=1.2110  Rmax=1.2312     2

 selected bond angles (degree)
 --------------------
H15-C1-N2=110.22               H16-C1-N2=108.65               H16-C1-H15=109.33              H17-C1-N2=110.17               
H17-C1-H15=108.86              H17-C1-H16=109.60              C3-N2-C1=118.80                C6-N2-C1=116.77                
C6-N2-C3=124.41                H18-C3-N2=125.07               H25-N4-C5=136.23               C6-C5-N4=167.98                
C5-C6-N2=124.13                C7-C6-N2=119.74                C7-C6-C5=114.94                O8-C7-C6=119.84                
N9-C7-C6=116.11                N9-C7-O8=123.96                C10-N9-C7=118.85               C11-N9-C7=121.67               
C11-N9-C10=119.01              H19-C10-N9=108.85              H20-C10-N9=109.09              H20-C10-H19=110.63             
H21-C10-N9=110.70              H21-C10-H19=109.06             H21-C10-H20=108.51             

 selected dihedral angles (degree)
 ---------------------------------
C3-N2-C1-H15=240.78           C3-N2-C1-H16=  0.56           C3-N2-C1-H17=120.63           C6-N2-C1-H15= 59.60           
C6-N2-C1-H16=179.37           C6-N2-C1-H17=299.44           H18-C3-N2-C1=178.65           H18-C3-N2-C6=359.93           
C6-C5-N4-H25=153.73           C5-C6-N2-C1=166.94            C5-C6-N2-C3=345.68            C7-C6-N2-C1=  0.00            
C7-C6-N2-C3=178.75            N2-C6-C5-N4=121.13            C7-C6-C5-N4=288.62            O8-C7-C6-N2= 61.36            
O8-C7-C6-C5=253.27            N9-C7-C6-N2=238.08            N9-C7-C6-C5= 70.00            C10-N9-C7-C6=189.63           
C10-N9-C7-O8=  6.21           C11-N9-C7-C6= 17.66           C11-N9-C7-O8=194.24           H19-C10-N9-C7= 18.47          
H19-C10-N9-C11=190.65         H20-C10-N9-C7=139.27          H20-C10-N9-C11=311.46         H21-C10-N9-C7=258.61          
H21-C10-N9-C11= 70.79         
           -------------------------------------------------
          |                Final Singlepoint                |
           -------------------------------------------------

          ...................................................
          :                      SETUP                      :
          :.................................................:
          :  # basis functions                  67          :
          :  # atomic orbitals                  67          :
          :  # shells                           39          :
          :  # electrons                        74          :
          :  max. iterations                   250          :
          :  Hamiltonian                  GFN2-xTB          :
          :  restarted?                      false          :
          :  GBSA solvation                  false          :
          :  PC potential                    false          :
          :  electronic temp.         7500.0000000     K    :
          :  accuracy                    1.0000000          :
          :  -> integral cutoff          0.2500000E+02      :
          :  -> integral neglect         0.1000000E-07      :
          :  -> SCF convergence          0.1000000E-05 Eh   :
          :  -> wf. convergence          0.1000000E-03 e    :
          :  Broyden damping             0.4000000          :
          ...................................................

 iter      E             dE          RMSdq      gap      omega  full diag
   1    -42.6024160 -0.426024E+02  0.822E-05    0.21       0.0  T
   2    -42.6024160  0.873968E-12  0.662E-05    0.21     302.1  T
   3    -42.6024160 -0.293880E-10  0.461E-05    0.21     433.4  T

   *** convergence criteria satisfied after 3 iterations ***

         #    Occupation            Energy/Eh            Energy/eV
      -------------------------------------------------------------
         1        2.0000           -0.8869432             -24.1350
       ...           ...                  ...                  ...
        31        1.9825           -0.6211771             -16.9031
        32        1.9494           -0.5955657             -16.2062
        33        1.9034           -0.5796282             -15.7725
        34        1.8846           -0.5751680             -15.6511
        35        1.6938           -0.5494528             -14.9514
        36        1.5761           -0.5400166             -14.6946
        37        1.5070           -0.5353655             -14.5680 (HOMO)
        38        1.3757           -0.5275920             -14.3565 (LUMO)
        39        0.0878           -0.4356448             -11.8545
        40        0.0808           -0.4335877             -11.7985
        41        0.0196           -0.3991736             -10.8621
        42        0.0021           -0.3463585              -9.4249
       ...           ...                  ...                  ...
        67                          0.9215701              25.0772
      -------------------------------------------------------------
                  HL-Gap            0.0077735 Eh            0.2115 eV
             Fermi-level           -0.5088249 Eh          -13.8458 eV

 SCC (total)                   0 d,  0 h,  0 min,  0.021 sec
 SCC setup                      ...        0 min,  0.000 sec (  0.837%)
 Dispersion                     ...        0 min,  0.000 sec (  0.938%)
 classical contributions        ...        0 min,  0.000 sec (  0.321%)
 integral evaluation            ...        0 min,  0.004 sec ( 20.777%)
 iterations                     ...        0 min,  0.005 sec ( 22.679%)
 molecular gradient             ...        0 min,  0.011 sec ( 53.876%)
 printout                       ...        0 min,  0.000 sec (  0.516%)

         :::::::::::::::::::::::::::::::::::::::::::::::::::::
         ::                     SUMMARY                     ::
         :::::::::::::::::::::::::::::::::::::::::::::::::::::
         :: total energy             -42.049570619552 Eh    ::
         :: gradient norm              0.003563038094 Eh/a0 ::
         :: HOMO-LUMO gap              0.211526893235 eV    ::
         ::.................................................::
         :: SCC energy               -42.602415979011 Eh    ::
         :: -> isotropic ES            0.136874204448 Eh    ::
         :: -> anisotropic ES         -0.012940749465 Eh    ::
         :: -> anisotropic XC          0.027331074091 Eh    ::
         :: -> dispersion             -0.021729875312 Eh    ::
         :: repulsion energy           0.552611905167 Eh    ::
         :: add. restraining           0.000000458371 Eh    ::
         :: total charge               1.000000000009 e     ::
         :::::::::::::::::::::::::::::::::::::::::::::::::::::

           -------------------------------------------------
          |                Property Printout                |
           -------------------------------------------------

    * Orbital Energies and Occupations

         #    Occupation            Energy/Eh            Energy/eV
      -------------------------------------------------------------
         1        2.0000           -0.8869432             -24.1350
       ...           ...                  ...                  ...
        25        1.9970           -0.6629326             -18.0393
        26        1.9953           -0.6526992             -17.7608
        27        1.9917           -0.6389107             -17.3856
        28        1.9891           -0.6324299             -17.2093
        29        1.9881           -0.6304404             -17.1552
        30        1.9856           -0.6257872             -17.0285
        31        1.9825           -0.6211771             -16.9031
        32        1.9494           -0.5955657             -16.2062
        33        1.9034           -0.5796282             -15.7725
        34        1.8846           -0.5751680             -15.6511
        35        1.6938           -0.5494528             -14.9514
        36        1.5761           -0.5400166             -14.6946
        37        1.5070           -0.5353655             -14.5680 (HOMO)
        38        1.3757           -0.5275920             -14.3565 (LUMO)
        39        0.0878           -0.4356448             -11.8545
        40        0.0808           -0.4335877             -11.7985
        41        0.0196           -0.3991736             -10.8621
        42        0.0021           -0.3463585              -9.4249
        43        0.0009           -0.3260430              -8.8721
        44        0.0000           -0.1841308              -5.0105
        45        0.0000           -0.1506761              -4.1001
        46                         -0.1072957              -2.9197
        47                         -0.0796194              -2.1666
        48                         -0.0410150              -1.1161
       ...                                ...                  ...
        67                          0.9215701              25.0772
      -------------------------------------------------------------
                  HL-Gap            0.0077735 Eh            0.2115 eV
             Fermi-level           -0.5088249 Eh          -13.8458 eV

     #   Z          covCN         q      C6AA      α(0)
     1   6 C        3.723    -0.085    22.234     6.734
     2   7 N        2.732     0.146    18.766     6.434
     3   6 C        1.890    -0.056    32.633     9.226
     4   7 N        1.772    -0.115    24.238     7.290
     5   6 C        1.911     0.133    27.860     8.524
     6   6 C        2.903     0.022    27.520     8.602
     7   6 C        2.780     0.286    22.164     7.711
     8   8 O        0.858    -0.331    20.353     6.049
     9   7 N        2.746    -0.068    22.549     7.053
    10   6 C        3.700    -0.066    21.934     6.698
    11   6 C        2.705     0.327    21.440     7.579
    12   8 O        0.858    -0.400    21.690     6.244
    13   7 N        1.835    -0.188    25.889     7.540
    14   6 C        3.694    -0.032    21.318     6.606
    15   1 H        0.924     0.105     1.741     2.064
    16   1 H        0.925     0.124     1.585     1.969
    17   1 H        0.924     0.124     1.578     1.964
    18   1 H        0.926     0.115     1.656     2.013
    19   1 H        0.925     0.118     1.626     1.994
    20   1 H        0.925     0.115     1.655     2.012
    21   1 H        0.924     0.108     1.714     2.047
    22   1 H        0.923     0.112     1.676     2.025
    23   1 H        0.924     0.120     1.610     1.984
    24   1 H        0.924     0.123     1.589     1.971
    25   1 H        0.860     0.262     0.838     1.434

 Mol. C6AA /au·bohr⁶  :       6626.563697
 Mol. C8AA /au·bohr⁸  :     152644.301005
 Mol. α(0) /au        :        123.765401


Wiberg/Mayer (AO) data.
largest (>0.10) Wiberg bond orders for each atom

 ---------------------------------------------------------------------------
     #   Z sym  total        # sym  WBO       # sym  WBO       # sym  WBO
 ---------------------------------------------------------------------------
     1   6 C    3.880 --     2 N    0.970    16 H    0.962    15 H    0.952
                            17 H    0.945
     2   7 N    3.696 --     3 C    1.639     6 C    1.037     1 C    0.970
     3   6 C    2.734 --     2 N    1.639    18 H    0.923
     4   7 N    3.283 --     5 C    2.197    25 H    0.883
     5   6 C    3.797 --     4 N    2.197     6 C    1.474
     6   6 C    3.676 --     5 C    1.474     2 N    1.037     7 C    0.898
     7   6 C    3.903 --     8 O    1.687     9 N    1.196     6 C    0.898
     8   8 O    1.975 --     7 C    1.687     9 N    0.139
     9   7 N    3.447 --     7 C    1.196    11 C    0.990    10 C    0.986
                             8 O    0.139
    10   6 C    3.872 --     9 N    0.986    19 H    0.955    20 H    0.944
                            21 H    0.943
    11   6 C    3.905 --    12 O    1.511    13 N    1.342     9 N    0.990
    12   8 O    1.753 --    11 C    1.511    13 N    0.105
    13   7 N    2.607 --    11 C    1.342    14 C    1.097    12 O    0.105
    14   6 C    3.838 --    13 N    1.097    24 H    0.909    22 H    0.905
                            23 H    0.899
    15   1 H    0.978 --     1 C    0.952
    16   1 H    0.976 --     1 C    0.962
    17   1 H    0.971 --     1 C    0.945
    18   1 H    0.945 --     3 C    0.923
    19   1 H    0.971 --    10 C    0.955
    20   1 H    0.964 --    10 C    0.944
    21   1 H    0.959 --    10 C    0.943
    22   1 H    0.908 --    14 C    0.905
    23   1 H    0.917 --    14 C    0.899
    24   1 H    0.924 --    14 C    0.909
    25   1 H    0.919 --     4 N    0.883
 ---------------------------------------------------------------------------

Topologies differ in total number of bonds
Writing topology from bond orders to xtbtopo.mol

molecular dipole:
                 x           y           z       tot (Debye)
 q only:        0.560      -0.742      -0.573
   full:        0.499      -0.971      -0.770       3.395
molecular quadrupole (traceless):
                xx          xy          yy          xz          yz          zz
 q only:       19.026       4.331      -9.144      -3.977       9.615      -9.882
  q+dip:       15.621       3.565      -9.432      -8.054      12.464      -6.189
   full:       15.730       3.592     -10.202      -8.366      11.617      -5.528

           -------------------------------------------------
          |                Geometry Summary                 |
           -------------------------------------------------

      molecular mass/u    :      195.1988581
   center of mass at/Å    :        0.3587751      -0.1122402      -0.1456867
  moments of inertia/u·Å² :        0.5096078E+03   0.9436498E+03   0.1071646E+04
rotational constants/cm⁻¹ :        0.3307962E-01   0.1786429E-01   0.1573060E-01

 * 21 selected distances

     #   Z          #   Z                                           value/Å
     1   6 C        2   7 N                                       1.4509623 (max)
     2   7 N        3   6 C                                       1.2762959
     4   7 N        5   6 C                                       1.1915078
     2   7 N        6   6 C                                       1.4083546
     5   6 C        6   6 C                                       1.3328810
     7   6 C        8   8 O                                       1.2110278
     7   6 C        9   7 N                                       1.3615801
     9   7 N       10   6 C                                       1.4449937
     9   7 N       11   6 C                                       1.4252615
    11   6 C       12   8 O                                       1.2312060
    11   6 C       13   7 N                                       1.3121909
    13   7 N       14   6 C                                       1.3977704
     1   6 C       15   1 H                                       1.0903488
     1   6 C       16   1 H                                       1.0883145 (min)
     1   6 C       17   1 H                                       1.0909977
    10   6 C       19   1 H                                       1.0900190
    10   6 C       20   1 H                                       1.0900698
    10   6 C       21   1 H                                       1.0927864
    14   6 C       22   1 H                                       1.0990601
    14   6 C       23   1 H                                       1.0977961
    14   6 C       24   1 H                                       1.0962416

 * 4 distinct bonds (by element types)

   Z      Z             #   av. dist./Å        max./Å        min./Å
   1 H    6 C           9     1.0928482     1.0990601     1.0883145
   6 C    6 C           1     1.3328810     1.3328810     1.3328810
   6 C    7 N           9     1.3632130     1.4509623     1.1915078
   6 C    8 O           2     1.2211169     1.2312060     1.2110278


optimized geometry written to: xtbopt.xyz


           -------------------------------------------------
          | TOTAL ENERGY              -42.049570619552 Eh   |
          | GRADIENT NORM               0.003563038094 Eh/α |
          | HOMO-LUMO GAP               0.211526893235 eV   |
           -------------------------------------------------

------------------------------------------------------------------------
 * finished run on 2024/06/05 at 19:58:46.286     
------------------------------------------------------------------------
 total:
 * wall-time:     0 d,  0 h,  0 min,  3.319 sec
 *  cpu-time:     0 d,  0 h,  0 min,  3.295 sec
 * ratio c/w:     0.993 speedup
 SCF:
 * wall-time:     0 d,  0 h,  0 min,  0.036 sec
 *  cpu-time:     0 d,  0 h,  0 min,  0.036 sec
 * ratio c/w:     1.000 speedup
 ANC optimizer:
 * wall-time:     0 d,  0 h,  0 min,  3.251 sec
 *  cpu-time:     0 d,  0 h,  0 min,  3.246 sec
 * ratio c/w:     0.999 speedup

