      -----------------------------------------------------------      
     |                   =====================                   |     
     |                           x T B                           |     
     |                   =====================                   |     
     |                         S. Grimme                         |     
     |          Mulliken Center for Theoretical Chemistry        |     
     |                    University of Bonn                     |     
      -----------------------------------------------------------      

   * xtb version 6.6.1 (8d0f1dd) compiled by 'conda@1efc2f54142f' on 2023-08-01

   xtb is free software: you can redistribute it and/or modify it under
   the terms of the GNU Lesser General Public License as published by
   the Free Software Foundation, either version 3 of the License, or
   (at your option) any later version.
   
   xtb is distributed in the hope that it will be useful,
   but WITHOUT ANY WARRANTY; without even the implied warranty of
   MERCHANTABILITY or FITNESS FOR A PARTICULAR PURPOSE.  See the
   GNU Lesser General Public License for more details.
   
   Cite this work as:
   * C. Bannwarth, E. Caldeweyher, S. Ehlert, A. Hansen, P. Pracht,
     J. Seibert, S. Spicher, S. Grimme, WIREs Comput. Mol. Sci., 2020, 11,
     e01493. DOI: 10.1002/wcms.1493
   
   for GFN2-xTB:
   * C. Bannwarth, S. Ehlert and S. Grimme., J. Chem. Theory Comput., 2019,
     15, 1652-1671. DOI: 10.1021/acs.jctc.8b01176
   for GFN1-xTB:
   * S. Grimme, C. Bannwarth, P. Shushkov, J. Chem. Theory Comput., 2017,
     13, 1989-2009. DOI: 10.1021/acs.jctc.7b00118
   for GFN0-xTB:
   * P. Pracht, E. Caldeweyher, S. Ehlert, S. Grimme, ChemRxiv, 2019, preprint.
     DOI: 10.26434/chemrxiv.8326202.v1
   for GFN-FF:
   * S. Spicher and S. Grimme, Angew. Chem. Int. Ed., 2020, 59, 15665-15673.
     DOI: 10.1002/anie.202004239
   
   for ALPB and GBSA implicit solvation:
   * S. Ehlert, M. Stahn, S. Spicher, S. Grimme, J. Chem. Theory Comput.,
     2021, 17, 4250-4261. DOI: 10.1021/acs.jctc.1c00471
   
   for DFT-D4:
   * E. Caldeweyher, C. Bannwarth and S. Grimme, J. Chem. Phys., 2017,
     147, 034112. DOI: 10.1063/1.4993215
   * E. Caldeweyher, S. Ehlert, A. Hansen, H. Neugebauer, S. Spicher,
     C. Bannwarth and S. Grimme, J. Chem. Phys., 2019, 150, 154122.
     DOI: 10.1063/1.5090222
   * E. Caldeweyher, J.-M. Mewes, S. Ehlert and S. Grimme, Phys. Chem. Chem. Phys.
     2020, 22, 8499-8512. DOI: 10.1039/D0CP00502A
   
   for sTDA-xTB:
   * S. Grimme and C. Bannwarth, J. Chem. Phys., 2016, 145, 054103.
     DOI: 10.1063/1.4959605
   
   in the mass-spec context:
   * V. Asgeirsson, C. Bauer and S. Grimme, Chem. Sci., 2017, 8, 4879.
     DOI: 10.1039/c7sc00601b
   * J. Koopman and S. Grimme, ACS Omega 2019, 4, 12, 15120-15133.
     DOI: 10.1021/acsomega.9b02011
   
   for metadynamics refer to:
   * S. Grimme, J. Chem. Theory Comput., 2019, 155, 2847-2862
     DOI: 10.1021/acs.jctc.9b00143
   
   for SPH calculations refer to:
   * S. Spicher and S. Grimme, J. Chem. Theory Comput., 2021, 17, 1701-1714
     DOI: 10.1021/acs.jctc.0c01306
   
   with help from (in alphabetical order)
   P. Atkinson, C. Bannwarth, F. Bohle, G. Brandenburg, E. Caldeweyher
   M. Checinski, S. Dohm, S. Ehlert, S. Ehrlich, I. Gerasimov, C. Hölzer
   A. Katbashev, J. Koopman, C. Lavigne, S. Lehtola, F. März, M. Müller,
   F. Musil, H. Neugebauer, J. Pisarek, C. Plett, P. Pracht, F. Pultar,
   J. Seibert, P. Shushkov, S. Spicher, M. Stahn, M. Steiner, T. Strunk,
   J. Stückrath, T. Rose, and J. Unsleber
   
 * started run on 2024/06/05 at 19:58:54.708     

           -------------------------------------------------
          |                Calculation Setup                |
           -------------------------------------------------

          program call               : xtb xtbopt.xyz --opt crude --input .xc2 --gfn2
          hostname                   : n-62-29-9
          coordinate file            : xtbopt.xyz
          omp threads                :                     1

   ID    Z sym.   atoms
    1    6 C      1, 3, 5-7, 10, 11, 14
    2    7 N      2, 4, 9, 13
    3    8 O      8, 12
    4    1 H      15-25

molecular fragmentation (1/2 indicates fragments):
1111111111111111111112111
# atoms in fragment 1/2:    24     1
 fragment masses (1/2) :      194.19        1.01
CMA distance (Bohr)    :  10.359
constraining FC (au)   :  0.0500
########################################################################
[WARNING] Please study the warnings concerning your input carefully
-1- readin_getIntValue: could not parse ''
########################################################################

           -------------------------------------------------
          |                 G F N 2 - x T B                 |
           -------------------------------------------------

        Reference                      10.1021/acs.jctc.8b01176
      * Hamiltonian:
        H0-scaling (s, p, d)           1.850000    2.230000    2.230000
        zeta-weighting                 0.500000
      * Dispersion:
        s8                             2.700000
        a1                             0.520000
        a2                             5.000000
        s9                             5.000000
      * Repulsion:
        kExp                           1.500000    1.000000
        rExp                           1.000000
      * Coulomb:
        alpha                          2.000000
        third order                    shell-resolved
        anisotropic                    true
        a3                             3.000000
        a5                             4.000000
        cn-shift                       1.200000
        cn-exp                         4.000000
        max-rad                        5.000000

q/qsh data taken from xtbrestart
CAMM data taken from xtbrestart

          ...................................................
          :                      SETUP                      :
          :.................................................:
          :  # basis functions                  67          :
          :  # atomic orbitals                  67          :
          :  # shells                           39          :
          :  # electrons                        74          :
          :  max. iterations                   250          :
          :  Hamiltonian                  GFN2-xTB          :
          :  restarted?                       true          :
          :  GBSA solvation                  false          :
          :  PC potential                    false          :
          :  electronic temp.         7500.0000000     K    :
          :  accuracy                    1.0000000          :
          :  -> integral cutoff          0.2500000E+02      :
          :  -> integral neglect         0.1000000E-07      :
          :  -> SCF convergence          0.1000000E-05 Eh   :
          :  -> wf. convergence          0.1000000E-03 e    :
          :  Broyden damping             0.4000000          :
          ...................................................

 iter      E             dE          RMSdq      gap      omega  full diag
   1    -42.6526824 -0.426527E+02  0.390E-05    0.30       0.0  T
   2    -42.6526824  0.457518E-10  0.539E-05    0.30     370.7  T
   3    -42.6526824 -0.790266E-10  0.128E-05    0.30    1559.2  T

   *** convergence criteria satisfied after 3 iterations ***

         #    Occupation            Energy/Eh            Energy/eV
      -------------------------------------------------------------
         1        2.0000           -0.9141521             -24.8753
       ...           ...                  ...                  ...
        31        1.9920           -0.6197459             -16.8641
        32        1.9869           -0.6078706             -16.5410
        33        1.9737           -0.5912752             -16.0894
        34        1.9720           -0.5897633             -16.0483
        35        1.9384           -0.5706059             -15.5270
        36        1.9372           -0.5701074             -15.5134
        37        1.0887           -0.4928954             -13.4124 (HOMO)
        38        0.8550           -0.4817354             -13.1087 (LUMO)
        39        0.1998           -0.4364615             -11.8767
        40        0.0547           -0.4038428             -10.9891
        41        0.0184           -0.3775360             -10.2733
        42        0.0005           -0.2930905              -7.9754
       ...           ...                  ...                  ...
        67                          0.5384508              14.6520
      -------------------------------------------------------------
                  HL-Gap            0.0111600 Eh            0.3037 eV
             Fermi-level           -0.4886719 Eh          -13.2974 eV

 SCC (total)                   0 d,  0 h,  0 min,  0.028 sec
 SCC setup                      ...        0 min,  0.000 sec (  0.848%)
 Dispersion                     ...        0 min,  0.000 sec (  0.973%)
 classical contributions        ...        0 min,  0.000 sec (  0.259%)
 integral evaluation            ...        0 min,  0.005 sec ( 16.853%)
 iterations                     ...        0 min,  0.005 sec ( 19.938%)
 molecular gradient             ...        0 min,  0.017 sec ( 60.553%)
 printout                       ...        0 min,  0.000 sec (  0.533%)

         :::::::::::::::::::::::::::::::::::::::::::::::::::::
         ::                     SUMMARY                     ::
         :::::::::::::::::::::::::::::::::::::::::::::::::::::
         :: total energy             -42.135724073239 Eh    ::
         :: gradient norm              0.003042971353 Eh/a0 ::
         :: HOMO-LUMO gap              0.303677933194 eV    ::
         ::.................................................::
         :: SCC energy               -42.652682374640 Eh    ::
         :: -> isotropic ES            0.137792541265 Eh    ::
         :: -> anisotropic ES         -0.005731030317 Eh    ::
         :: -> anisotropic XC          0.012633361099 Eh    ::
         :: -> dispersion             -0.022696540245 Eh    ::
         :: repulsion energy           0.516864720273 Eh    ::
         :: add. restraining           0.000000000000 Eh    ::
         :: total charge               0.999999999978 e     ::
         :::::::::::::::::::::::::::::::::::::::::::::::::::::

      ----------------------------------------------------------- 
     |                   =====================                   |
     |                        A N C O P T                        |
     |                   =====================                   |
     |               Approximate Normal Coordinate               |
     |                Rational Function Optimizer                |
      ----------------------------------------------------------- 

          ...................................................
          :                      SETUP                      :
          :.................................................:
          :   optimization level             crude          :
          :   max. optcycles                   200          :
          :   ANC micro-cycles                  20          :
          :   degrees of freedom                69          :
          :.................................................:
          :   RF solver                   davidson          :
          :   write xtbopt.log                true          :
          :   linear?                        false          :
          :   energy convergence         0.5000000E-03 Eh   :
          :   grad. convergence          0.1000000E-01 Eh/α :
          :   maxmium RF displ.          1.0000000          :
          :   Hlow (freq-cutoff)         0.1000000E-01      :
          :   Hmax (freq-cutoff)         5.0000000          :
          :   S6 in model hess.         20.0000000          :
          ...................................................

generating ANC from model Hessian ...
Using Lindh-Hessian (1995)
 Shifting diagonal of input Hessian by    1.0126580165708034E-002
 Lowest  eigenvalues of input Hessian
    0.010000    0.010038    0.000000    0.000000    0.000000    0.000000
    0.000000    0.000000    0.011245    0.012915    0.014210    0.016323
    0.018647    0.020594    0.022919    0.024651    0.025374    0.028146
 Highest eigenvalues
    2.114043    2.126471    2.193952    2.272275    2.392955    2.527427


........................................................................
.............................. CYCLE    1 ..............................
........................................................................

 iter      E             dE          RMSdq      gap      omega  full diag
   1    -42.6526824 -0.426527E+02  0.105E-05    0.30       0.0  T
   2    -42.6526824  0.186873E-11  0.124E-05    0.30    1610.9  T
   3    -42.6526824 -0.387246E-11  0.407E-06    0.30    4918.7  T
     SCC iter.                  ...        0 min,  0.006 sec
     gradient                   ...        0 min,  0.011 sec
 * total energy  :   -42.1357241 Eh     change       -0.6536993E-12 Eh
   gradient norm :     0.0030430 Eh/α   predicted     0.0000000E+00 (-100.00%)
   displ. norm   :     0.0813836 α      lambda       -0.9009960E-04
   maximum displ.:     0.0674751 α      in ANC's #3, #1, #6, ...

   *** GEOMETRY OPTIMIZATION CONVERGED AFTER 1 ITERATIONS ***

------------------------------------------------------------------------
 total energy gain   :        -0.0000000 Eh       -0.0000 kcal/mol
 total RMSD          :         0.0000000 a0        0.0000 Å
 total power (kW/mol):        -0.0000000 (step)   -0.0000 (real)
------------------------------------------------------------------------

 ANCopt (total)                0 d,  0 h,  0 min,  0.039 sec
 optimizer setup                ...        0 min,  0.000 sec (  1.060%)
 model hessian                  ...        0 min,  0.012 sec ( 30.026%)
 ANC generation                 ...        0 min,  0.002 sec (  4.189%)
 coordinate transformation      ...        0 min,  0.000 sec (  0.053%)
 single point calculation       ...        0 min,  0.024 sec ( 60.324%)
 optimization log               ...        0 min,  0.001 sec (  3.570%)
 hessian update                 ...        0 min,  0.000 sec (  0.003%)
 rational function              ...        0 min,  0.000 sec (  0.512%)

================
 final structure:
================
25
 xtb: 6.6.1 (8d0f1dd)
C            3.23336184017848        1.18428937501889        0.04712602362471
N            2.27511534817022        0.11494232963422       -0.02047721489940
C            2.54166246618448       -1.19370123603938       -0.06821937886890
N            1.38632121318446       -1.89854125309424       -0.12111395871575
C            0.34715223429340       -1.00469860529751       -0.10222209288698
C            0.90738579360669        0.26920977654723       -0.03813515765242
C            0.10582834115329        1.46538520764195       -0.02308475090712
O            0.52192394089510        2.60670614020234       -0.00616047959615
N           -1.26456354620086        1.16360604357066       -0.03362539595009
C           -2.19649809054440        2.28289238591296        0.00869209036446
C           -1.85825241897937       -0.07204661075360       -0.07321161566195
O           -3.04795981393170       -0.23407363255319       -0.06005877402191
N           -0.99161256772203       -1.23090986561949       -0.14187172155327
C           -1.56801701681405       -2.43957806534605       -0.25333399210788
H            3.73459233103851        1.18627652820333        1.01683876909570
H            3.98395107134014        1.07011403018174       -0.73460558913041
H            2.71032833704397        2.13166712170184       -0.08089981155805
H            3.52064744417691       -1.62873139748858       -0.06917636468638
H           -1.61784603659887        3.20379787468141        0.01734164765179
H           -2.84927906473616        2.25294787809071       -0.86402439256958
H           -2.81687125468920        2.21438416953779        0.90243065858485
H           -1.59730427289310       -4.91707972368264        1.44926376996088
H           -0.97584962371426       -3.33230482151470       -0.28849130825048
H           -2.64097184071205       -2.47086179847591       -0.27829463378376
H            1.31718670037036       -2.90545330945940       -0.15351470858196

 Bond Distances (Angstroems)
 ---------------------------
C1-N2=1.4375         C1-H15=1.0916        C1-H16=1.0897        C1-H17=1.0897        N2-C1=1.4375         N2-C3=1.3364         
N2-C6=1.3765         C3-N2=1.3364         C3-N4=1.3544         C3-H18=1.0713        N4-C3=1.3544         N4-C5=1.3708         
N4-H25=1.0098        C5-N4=1.3708         C5-C6=1.3931         C5-N13=1.3583        C6-N2=1.3765         C6-C5=1.3931         
C6-C7=1.4400         C7-C6=1.4400         C7-O8=1.2149         C7-N9=1.4033         O8-C7=1.2149         N9-C7=1.4033         
N9-C10=1.4571        N9-C11=1.3714        C10-N9=1.4571        C10-H19=1.0876       C10-H20=1.0903       C10-H21=1.0901       
C11-N9=1.3714        C11-O12=1.2008       C11-N13=1.4487       O12-C11=1.2008       N13-C5=1.3583        N13-C11=1.4487       
N13-C14=1.3437       C14-N13=1.3437       C14-H23=1.0718       C14-H24=1.0737       H15-C1=1.0916        H16-C1=1.0897        
H17-C1=1.0897        H18-C3=1.0713        H19-C10=1.0876       H20-C10=1.0903       H21-C10=1.0901       H23-C14=1.0718       
H24-C14=1.0737       H25-N4=1.0098        
 C  H  Rav=1.0840 sigma=0.0084  Rmin=1.0713  Rmax=1.0916     9
 C  C  Rav=1.4166 sigma=0.0234  Rmin=1.3931  Rmax=1.4400     2
 N  H  Rav=1.0098 sigma=0.0000  Rmin=1.0098  Rmax=1.0098     1
 N  C  Rav=1.3871 sigma=0.0410  Rmin=1.3364  Rmax=1.4571    11
 O  C  Rav=1.2078 sigma=0.0071  Rmin=1.2008  Rmax=1.2149     2

 selected bond angles (degree)
 --------------------
H15-C1-N2=110.44               H16-C1-N2=110.33               H16-C1-H15=108.73              H17-C1-N2=108.74               
H17-C1-H15=108.86              H17-C1-H16=109.72              C3-N2-C1=126.67                C6-N2-C1=125.42                
C6-N2-C3=107.91                N4-C3-N2=109.93                H18-C3-N2=125.45               H18-C3-N4=124.62               
C5-N4-C3=107.87                H25-N4-C3=125.35               H25-N4-C5=126.78               C6-C5-N4=106.98                
N13-C5-N4=129.65               N13-C5-C6=123.37               C5-C6-N2=107.32                C7-C6-N2=130.24                
C7-C6-C5=122.43                O8-C7-C6=126.15                N9-C7-C6=111.40                N9-C7-O8=122.45                
C10-N9-C7=117.33               C11-N9-C7=128.08               C11-N9-C10=114.59              H19-C10-N9=108.08              
H20-C10-N9=109.79              H20-C10-H19=110.38             H21-C10-N9=109.85              H21-C10-H19=110.45             
H21-C10-H20=108.29             

 selected dihedral angles (degree)
 ---------------------------------
C3-N2-C1-H15=290.78           C3-N2-C1-H16= 51.02           C3-N2-C1-H17=171.40           C6-N2-C1-H15=110.31           
C6-N2-C1-H16=230.55           C6-N2-C1-H17=350.93           N4-C3-N2-C1=179.80            N4-C3-N2-C6=  0.20            
H18-C3-N2-C1=359.56           H18-C3-N2-C6=179.96           C5-N4-C3-N2=359.81            C5-N4-C3-H18=180.06           
H25-N4-C3-N2=180.70           H25-N4-C3-H18=  0.94          C6-C5-N4-C3=  0.09            C6-C5-N4-H25=179.19           
N13-C5-N4-C3=179.78           N13-C5-N4-H25=358.88          C5-C6-N2-C1=180.25            C5-C6-N2-C3=359.86            
C7-C6-N2-C1=  1.38            C7-C6-N2-C3=180.98            N2-C6-C5-N4=  0.03            N2-C6-C5-N13=180.32           
C7-C6-C5-N4=179.01            C7-C6-C5-N13=359.30           O8-C7-C6-N2=  0.92            O8-C7-C6-C5=182.19            
N9-C7-C6-N2=180.77            N9-C7-C6-C5=  2.05            C10-N9-C7-C6=178.72           C10-N9-C7-O8=358.58           
C11-N9-C7-C6=359.05           C11-N9-C7-O8=178.91           H19-C10-N9-C7=  1.41          H19-C10-N9-C11=181.12         
H20-C10-N9-C7=121.86          H20-C10-N9-C11=301.57         H21-C10-N9-C7=240.83          H21-C10-N9-C11= 60.55         

 CMA Distance (Angstroems)
 ---------------------------
R(CMA):  5.4818
           -------------------------------------------------
          |                Final Singlepoint                |
           -------------------------------------------------

          ...................................................
          :                      SETUP                      :
          :.................................................:
          :  # basis functions                  67          :
          :  # atomic orbitals                  67          :
          :  # shells                           39          :
          :  # electrons                        74          :
          :  max. iterations                   250          :
          :  Hamiltonian                  GFN2-xTB          :
          :  restarted?                      false          :
          :  GBSA solvation                  false          :
          :  PC potential                    false          :
          :  electronic temp.         7500.0000000     K    :
          :  accuracy                    1.0000000          :
          :  -> integral cutoff          0.2500000E+02      :
          :  -> integral neglect         0.1000000E-07      :
          :  -> SCF convergence          0.1000000E-05 Eh   :
          :  -> wf. convergence          0.1000000E-03 e    :
          :  Broyden damping             0.4000000          :
          ...................................................

 iter      E             dE          RMSdq      gap      omega  full diag
   1    -42.6526824 -0.426527E+02  0.309E-06    0.30       0.0  T
   2    -42.6526824 -0.781597E-13  0.364E-06    0.30    5487.2  T
   3    -42.6526824 -0.362377E-12  0.132E-06    0.30   15165.1  T

   *** convergence criteria satisfied after 3 iterations ***

         #    Occupation            Energy/Eh            Energy/eV
      -------------------------------------------------------------
         1        2.0000           -0.9141521             -24.8753
       ...           ...                  ...                  ...
        31        1.9920           -0.6197459             -16.8641
        32        1.9869           -0.6078706             -16.5410
        33        1.9737           -0.5912752             -16.0894
        34        1.9720           -0.5897633             -16.0483
        35        1.9384           -0.5706059             -15.5270
        36        1.9372           -0.5701074             -15.5134
        37        1.0887           -0.4928954             -13.4124 (HOMO)
        38        0.8550           -0.4817355             -13.1087 (LUMO)
        39        0.1998           -0.4364615             -11.8767
        40        0.0547           -0.4038428             -10.9891
        41        0.0184           -0.3775360             -10.2733
        42        0.0005           -0.2930905              -7.9754
       ...           ...                  ...                  ...
        67                          0.5384508              14.6520
      -------------------------------------------------------------
                  HL-Gap            0.0111599 Eh            0.3037 eV
             Fermi-level           -0.4886719 Eh          -13.2974 eV

 SCC (total)                   0 d,  0 h,  0 min,  0.021 sec
 SCC setup                      ...        0 min,  0.000 sec (  0.833%)
 Dispersion                     ...        0 min,  0.000 sec (  0.935%)
 classical contributions        ...        0 min,  0.000 sec (  0.308%)
 integral evaluation            ...        0 min,  0.005 sec ( 21.354%)
 iterations                     ...        0 min,  0.005 sec ( 22.850%)
 molecular gradient             ...        0 min,  0.011 sec ( 53.077%)
 printout                       ...        0 min,  0.000 sec (  0.586%)

         :::::::::::::::::::::::::::::::::::::::::::::::::::::
         ::                     SUMMARY                     ::
         :::::::::::::::::::::::::::::::::::::::::::::::::::::
         :: total energy             -42.135724073240 Eh    ::
         :: gradient norm              0.003043008037 Eh/a0 ::
         :: HOMO-LUMO gap              0.303676907156 eV    ::
         ::.................................................::
         :: SCC energy               -42.652682374641 Eh    ::
         :: -> isotropic ES            0.137792443928 Eh    ::
         :: -> anisotropic ES         -0.005731022765 Eh    ::
         :: -> anisotropic XC          0.012633356593 Eh    ::
         :: -> dispersion             -0.022696539521 Eh    ::
         :: repulsion energy           0.516864720273 Eh    ::
         :: add. restraining           0.000000000000 Eh    ::
         :: total charge               0.999999999978 e     ::
         :::::::::::::::::::::::::::::::::::::::::::::::::::::

           -------------------------------------------------
          |                Property Printout                |
           -------------------------------------------------

    * Orbital Energies and Occupations

         #    Occupation            Energy/Eh            Energy/eV
      -------------------------------------------------------------
         1        2.0000           -0.9141521             -24.8753
       ...           ...                  ...                  ...
        25        1.9992           -0.6753201             -18.3764
        26        1.9990           -0.6699041             -18.2290
        27        1.9989           -0.6659671             -18.1219
        28        1.9962           -0.6373805             -17.3440
        29        1.9958           -0.6351139             -17.2823
        30        1.9957           -0.6344822             -17.2651
        31        1.9920           -0.6197459             -16.8641
        32        1.9869           -0.6078706             -16.5410
        33        1.9737           -0.5912752             -16.0894
        34        1.9720           -0.5897633             -16.0483
        35        1.9384           -0.5706059             -15.5270
        36        1.9372           -0.5701074             -15.5134
        37        1.0887           -0.4928954             -13.4124 (HOMO)
        38        0.8550           -0.4817355             -13.1087 (LUMO)
        39        0.1998           -0.4364615             -11.8767
        40        0.0547           -0.4038428             -10.9891
        41        0.0184           -0.3775360             -10.2733
        42        0.0005           -0.2930905              -7.9754
        43        0.0000           -0.2140836              -5.8255
        44        0.0000           -0.2023920              -5.5074
        45        0.0000           -0.1514552              -4.1213
        46        0.0000           -0.1388344              -3.7779
        47                         -0.0693083              -1.8860
        48                         -0.0402539              -1.0954
       ...                                ...                  ...
        67                          0.5384508              14.6520
      -------------------------------------------------------------
                  HL-Gap            0.0111599 Eh            0.3037 eV
             Fermi-level           -0.4886719 Eh          -13.2974 eV

     #   Z          covCN         q      C6AA      α(0)
     1   6 C        3.691    -0.094    22.485     6.786
     2   7 N        2.824     0.076    19.915     6.628
     3   6 C        3.039     0.047    26.908     8.508
     4   7 N        2.782    -0.058    22.359     7.023
     5   6 C        3.033     0.091    25.939     8.354
     6   6 C        3.102    -0.013    28.213     8.704
     7   6 C        2.763     0.262    22.589     7.783
     8   8 O        0.858    -0.357    20.833     6.120
     9   7 N        2.744    -0.072    22.646     7.068
    10   6 C        3.711    -0.063    21.853     6.680
    11   6 C        2.735     0.307    21.781     7.641
    12   8 O        0.859    -0.332    20.374     6.052
    13   7 N        2.736     0.013    21.037     6.812
    14   6 C        2.798    -0.055    29.353     8.875
    15   1 H        0.924     0.111     1.692     2.034
    16   1 H        0.925     0.108     1.717     2.049
    17   1 H        0.925     0.138     1.477     1.901
    18   1 H        0.926     0.126     1.568     1.958
    19   1 H        0.925     0.123     1.588     1.971
    20   1 H        0.924     0.108     1.715     2.048
    21   1 H        0.925     0.108     1.714     2.047
    22   1 H        0.000    -0.033     9.217     5.551
    23   1 H        0.926     0.096     1.825     2.112
    24   1 H        0.926     0.136     1.490     1.909
    25   1 H        0.860     0.229     0.970     1.543

 Mol. C6AA /au·bohr⁶  :       6850.938838
 Mol. C8AA /au·bohr⁸  :     156157.773491
 Mol. α(0) /au        :        128.156013


Wiberg/Mayer (AO) data.
largest (>0.10) Wiberg bond orders for each atom

 ---------------------------------------------------------------------------
     #   Z sym  total        # sym  WBO       # sym  WBO       # sym  WBO
 ---------------------------------------------------------------------------
     1   6 C    3.904 --     2 N    0.988    16 H    0.960    17 H    0.956
                            15 H    0.952
     2   7 N    3.617 --     3 C    1.346     6 C    1.157     1 C    0.988
     3   6 C    3.755 --     2 N    1.346     4 N    1.267    18 H    0.953
     4   7 N    3.527 --     3 C    1.267     5 C    1.172    25 H    0.918
     5   6 C    3.852 --     6 C    1.324     4 N    1.172    13 N    1.152
     6   6 C    3.830 --     5 C    1.324     2 N    1.157     7 C    1.090
     7   6 C    3.882 --     8 O    1.642     6 C    1.090     9 N    1.070
     8   8 O    1.919 --     7 C    1.642     9 N    0.121
     9   7 N    3.517 --    11 C    1.157     7 C    1.070    10 C    0.970
                            12 O    0.138     8 O    0.121
    10   6 C    3.881 --     9 N    0.970    19 H    0.958    20 H    0.954
                            21 H    0.953
    11   6 C    3.899 --    12 O    1.701     9 N    1.157    13 N    0.951
    12   8 O    2.001 --    11 C    1.701     9 N    0.138
    13   7 N    3.603 --    14 C    1.292     5 C    1.152    11 C    0.951
    14   6 C    3.320 --    13 N    1.292    23 H    0.962    24 H    0.956
    15   1 H    0.978 --     1 C    0.952
    16   1 H    0.981 --     1 C    0.960
    17   1 H    0.978 --     1 C    0.956
    18   1 H    0.983 --     3 C    0.953
    19   1 H    0.977 --    10 C    0.958
    20   1 H    0.972 --    10 C    0.954
    21   1 H    0.971 --    10 C    0.953
    22   1 H    0.016
    23   1 H    0.988 --    14 C    0.962
    24   1 H    0.979 --    14 C    0.956
    25   1 H    0.947 --     4 N    0.918
 ---------------------------------------------------------------------------

Topologies differ in total number of bonds
Writing topology from bond orders to xtbtopo.mol

molecular dipole:
                 x           y           z       tot (Debye)
 q only:        2.392      -1.303      -0.249
   full:        2.624      -1.860      -0.248       8.200
molecular quadrupole (traceless):
                xx          xy          yy          xz          yz          zz
 q only:       14.707      -9.068       2.071       0.691       2.853     -16.777
  q+dip:       12.474     -11.882       2.196       0.586       2.777     -14.669
   full:       11.395     -11.726       1.215       0.565       2.692     -12.611

           -------------------------------------------------
          |                Geometry Summary                 |
           -------------------------------------------------

      molecular mass/u    :      195.1988581
   center of mass at/Å    :        0.0011592       0.0754172      -0.0543586
  moments of inertia/u·Å² :        0.4931503E+03   0.7195195E+03   0.1200252E+04
rotational constants/cm⁻¹ :        0.3418356E-01   0.2342901E-01   0.1404507E-01

 * 24 selected distances

     #   Z          #   Z                                           value/Å
     1   6 C        2   7 N                                       1.4374665
     2   7 N        3   6 C                                       1.3363663
     3   6 C        4   7 N                                       1.3544043
     4   7 N        5   6 C                                       1.3708334
     2   7 N        6   6 C                                       1.3765154
     5   6 C        6   6 C                                       1.3931302
     6   6 C        7   6 C                                       1.4399850
     7   6 C        8   8 O                                       1.2149221
     7   6 C        9   7 N                                       1.4032662
     9   7 N       10   6 C                                       1.4570844 (max)
     9   7 N       11   6 C                                       1.3714486
    11   6 C       12   8 O                                       1.2007621
     5   6 C       13   7 N                                       1.3583207
    13   7 N       14   6 C                                       1.3437057
     1   6 C       15   1 H                                       1.0915947
     1   6 C       16   1 H                                       1.0897361
     1   6 C       17   1 H                                       1.0897153
     3   6 C       18   1 H                                       1.0712908
    10   6 C       19   1 H                                       1.0876489
    10   6 C       20   1 H                                       1.0902541
    10   6 C       21   1 H                                       1.0901032
    14   6 C       23   1 H                                       1.0718487
    14   6 C       24   1 H                                       1.0737011
     4   7 N       25   1 H                                       1.0098027 (min)

 * 5 distinct bonds (by element types)

   Z      Z             #   av. dist./Å        max./Å        min./Å
   1 H    6 C           9     1.0839881     1.0915947     1.0712908
   6 C    6 C           2     1.4165576     1.4399850     1.3931302
   1 H    7 N           1     1.0098027     1.0098027     1.0098027
   6 C    7 N          10     1.3809412     1.4570844     1.3363663
   6 C    8 O           2     1.2078421     1.2149221     1.2007621


optimized geometry written to: xtbopt.xyz


           -------------------------------------------------
          | TOTAL ENERGY              -42.135724073240 Eh   |
          | GRADIENT NORM               0.003043008037 Eh/α |
          | HOMO-LUMO GAP               0.303676907156 eV   |
           -------------------------------------------------

------------------------------------------------------------------------
 * finished run on 2024/06/05 at 19:58:54.835     
------------------------------------------------------------------------
 total:
 * wall-time:     0 d,  0 h,  0 min,  0.127 sec
 *  cpu-time:     0 d,  0 h,  0 min,  0.091 sec
 * ratio c/w:     0.716 speedup
 SCF:
 * wall-time:     0 d,  0 h,  0 min,  0.028 sec
 *  cpu-time:     0 d,  0 h,  0 min,  0.023 sec
 * ratio c/w:     0.816 speedup
 ANC optimizer:
 * wall-time:     0 d,  0 h,  0 min,  0.067 sec
 *  cpu-time:     0 d,  0 h,  0 min,  0.057 sec
 * ratio c/w:     0.853 speedup

