25
 energy: -42.135724073239 gnorm: 0.003043004809 xtb: 6.6.1 (8d0f1dd)
C            3.23336184017848        1.18428937501889        0.04712602362471
N            2.27511534817022        0.11494232963422       -0.02047721489940
C            2.54166246618448       -1.19370123603938       -0.06821937886890
N            1.38632121318446       -1.89854125309424       -0.12111395871575
C            0.34715223429340       -1.00469860529751       -0.10222209288698
C            0.90738579360669        0.26920977654723       -0.03813515765242
C            0.10582834115329        1.46538520764195       -0.02308475090712
O            0.52192394089510        2.60670614020234       -0.00616047959615
N           -1.26456354620086        1.16360604357066       -0.03362539595009
C           -2.19649809054440        2.28289238591296        0.00869209036446
C           -1.85825241897937       -0.07204661075360       -0.07321161566195
O           -3.04795981393170       -0.23407363255319       -0.06005877402191
N           -0.99161256772203       -1.23090986561949       -0.14187172155327
C           -1.56801701681405       -2.43957806534605       -0.25333399210788
H            3.73459233103851        1.18627652820333        1.01683876909570
H            3.98395107134014        1.07011403018174       -0.73460558913041
H            2.71032833704397        2.13166712170184       -0.08089981155805
H            3.52064744417691       -1.62873139748858       -0.06917636468638
H           -1.61784603659887        3.20379787468141        0.01734164765179
H           -2.84927906473616        2.25294787809071       -0.86402439256958
H           -2.81687125468920        2.21438416953779        0.90243065858485
H           -1.59730427289310       -4.91707972368264        1.44926376996088
H           -0.97584962371426       -3.33230482151470       -0.28849130825048
H           -2.64097184071205       -2.47086179847591       -0.27829463378376
H            1.31718670037036       -2.90545330945940       -0.15351470858196
