      -----------------------------------------------------------      
     |                   =====================                   |     
     |                           x T B                           |     
     |                   =====================                   |     
     |                         S. Grimme                         |     
     |          Mulliken Center for Theoretical Chemistry        |     
     |                    University of Bonn                     |     
      -----------------------------------------------------------      

   * xtb version 6.6.1 (8d0f1dd) compiled by 'conda@1efc2f54142f' on 2023-08-01

   xtb is free software: you can redistribute it and/or modify it under
   the terms of the GNU Lesser General Public License as published by
   the Free Software Foundation, either version 3 of the License, or
   (at your option) any later version.
   
   xtb is distributed in the hope that it will be useful,
   but WITHOUT ANY WARRANTY; without even the implied warranty of
   MERCHANTABILITY or FITNESS FOR A PARTICULAR PURPOSE.  See the
   GNU Lesser General Public License for more details.
   
   Cite this work as:
   * C. Bannwarth, E. Caldeweyher, S. Ehlert, A. Hansen, P. Pracht,
     J. Seibert, S. Spicher, S. Grimme, WIREs Comput. Mol. Sci., 2020, 11,
     e01493. DOI: 10.1002/wcms.1493
   
   for GFN2-xTB:
   * C. Bannwarth, S. Ehlert and S. Grimme., J. Chem. Theory Comput., 2019,
     15, 1652-1671. DOI: 10.1021/acs.jctc.8b01176
   for GFN1-xTB:
   * S. Grimme, C. Bannwarth, P. Shushkov, J. Chem. Theory Comput., 2017,
     13, 1989-2009. DOI: 10.1021/acs.jctc.7b00118
   for GFN0-xTB:
   * P. Pracht, E. Caldeweyher, S. Ehlert, S. Grimme, ChemRxiv, 2019, preprint.
     DOI: 10.26434/chemrxiv.8326202.v1
   for GFN-FF:
   * S. Spicher and S. Grimme, Angew. Chem. Int. Ed., 2020, 59, 15665-15673.
     DOI: 10.1002/anie.202004239
   
   for ALPB and GBSA implicit solvation:
   * S. Ehlert, M. Stahn, S. Spicher, S. Grimme, J. Chem. Theory Comput.,
     2021, 17, 4250-4261. DOI: 10.1021/acs.jctc.1c00471
   
   for DFT-D4:
   * E. Caldeweyher, C. Bannwarth and S. Grimme, J. Chem. Phys., 2017,
     147, 034112. DOI: 10.1063/1.4993215
   * E. Caldeweyher, S. Ehlert, A. Hansen, H. Neugebauer, S. Spicher,
     C. Bannwarth and S. Grimme, J. Chem. Phys., 2019, 150, 154122.
     DOI: 10.1063/1.5090222
   * E. Caldeweyher, J.-M. Mewes, S. Ehlert and S. Grimme, Phys. Chem. Chem. Phys.
     2020, 22, 8499-8512. DOI: 10.1039/D0CP00502A
   
   for sTDA-xTB:
   * S. Grimme and C. Bannwarth, J. Chem. Phys., 2016, 145, 054103.
     DOI: 10.1063/1.4959605
   
   in the mass-spec context:
   * V. Asgeirsson, C. Bauer and S. Grimme, Chem. Sci., 2017, 8, 4879.
     DOI: 10.1039/c7sc00601b
   * J. Koopman and S. Grimme, ACS Omega 2019, 4, 12, 15120-15133.
     DOI: 10.1021/acsomega.9b02011
   
   for metadynamics refer to:
   * S. Grimme, J. Chem. Theory Comput., 2019, 155, 2847-2862
     DOI: 10.1021/acs.jctc.9b00143
   
   for SPH calculations refer to:
   * S. Spicher and S. Grimme, J. Chem. Theory Comput., 2021, 17, 1701-1714
     DOI: 10.1021/acs.jctc.0c01306
   
   with help from (in alphabetical order)
   P. Atkinson, C. Bannwarth, F. Bohle, G. Brandenburg, E. Caldeweyher
   M. Checinski, S. Dohm, S. Ehlert, S. Ehrlich, I. Gerasimov, C. Hölzer
   A. Katbashev, J. Koopman, C. Lavigne, S. Lehtola, F. März, M. Müller,
   F. Musil, H. Neugebauer, J. Pisarek, C. Plett, P. Pracht, F. Pultar,
   J. Seibert, P. Shushkov, S. Spicher, M. Stahn, M. Steiner, T. Strunk,
   J. Stückrath, T. Rose, and J. Unsleber
   
 * started run on 2024/06/05 at 20:00:25.105     

           -------------------------------------------------
          |                Calculation Setup                |
           -------------------------------------------------

          program call               : xtb xtbopt.xyz --opt crude --input .xc2 --gfn2
          hostname                   : n-62-11-66
          coordinate file            : xtbopt.xyz
          omp threads                :                     1

   ID    Z sym.   atoms
    1    6 C      1, 3, 5-7, 10, 11, 14
    2    7 N      2, 4, 9, 13
    3    8 O      8, 12
    4    1 H      15-25
########################################################################
[WARNING] Please study the warnings concerning your input carefully
-1- readin_getIntValue: could not parse ''
########################################################################

           -------------------------------------------------
          |                 G F N 2 - x T B                 |
           -------------------------------------------------

        Reference                      10.1021/acs.jctc.8b01176
      * Hamiltonian:
        H0-scaling (s, p, d)           1.850000    2.230000    2.230000
        zeta-weighting                 0.500000
      * Dispersion:
        s8                             2.700000
        a1                             0.520000
        a2                             5.000000
        s9                             5.000000
      * Repulsion:
        kExp                           1.500000    1.000000
        rExp                           1.000000
      * Coulomb:
        alpha                          2.000000
        third order                    shell-resolved
        anisotropic                    true
        a3                             3.000000
        a5                             4.000000
        cn-shift                       1.200000
        cn-exp                         4.000000
        max-rad                        5.000000

q/qsh data taken from xtbrestart
CAMM data taken from xtbrestart

          ...................................................
          :                      SETUP                      :
          :.................................................:
          :  # basis functions                  67          :
          :  # atomic orbitals                  67          :
          :  # shells                           39          :
          :  # electrons                        74          :
          :  max. iterations                   250          :
          :  Hamiltonian                  GFN2-xTB          :
          :  restarted?                       true          :
          :  GBSA solvation                  false          :
          :  PC potential                    false          :
          :  electronic temp.         5000.0000000     K    :
          :  accuracy                    1.0000000          :
          :  -> integral cutoff          0.2500000E+02      :
          :  -> integral neglect         0.1000000E-07      :
          :  -> SCF convergence          0.1000000E-05 Eh   :
          :  -> wf. convergence          0.1000000E-03 e    :
          :  Broyden damping             0.4000000          :
          ...................................................

 iter      E             dE          RMSdq      gap      omega  full diag
   1    -42.6993424 -0.426993E+02  0.194E-05    1.42       0.0  T
   2    -42.6993424  0.415596E-10  0.356E-05    1.42     561.9  T
   3    -42.6993424 -0.537739E-10  0.754E-06    1.42    2654.2  T

   *** convergence criteria satisfied after 3 iterations ***

         #    Occupation            Energy/Eh            Energy/eV
      -------------------------------------------------------------
         1        2.0000           -0.9456732             -25.7331
       ...           ...                  ...                  ...
        31        1.9995           -0.6155402             -16.7497
        32        1.9991           -0.6071459             -16.5213
        33        1.9970           -0.5886425             -16.0178
        34        1.9902           -0.5695539             -15.4984
        35        1.9684           -0.5508818             -14.9903
        36        1.8287           -0.5229583             -14.2304
        37        1.7106           -0.5135950             -13.9756 (HOMO)
        38        0.3602           -0.4614636             -12.5571 (LUMO)
        39        0.1435           -0.4449296             -12.1072
        40        0.0035           -0.3849195             -10.4742
        41        0.0002           -0.3409476              -9.2777
        42        0.0001           -0.3222090              -8.7678
       ...           ...                  ...                  ...
        67                         14.6451587             398.5151
      -------------------------------------------------------------
                  HL-Gap            0.0521314 Eh            1.4186 eV
             Fermi-level           -0.4854634 Eh          -13.2101 eV

 SCC (total)                   0 d,  0 h,  0 min,  0.024 sec
 SCC setup                      ...        0 min,  0.000 sec (  1.397%)
 Dispersion                     ...        0 min,  0.000 sec (  1.562%)
 classical contributions        ...        0 min,  0.000 sec (  0.452%)
 integral evaluation            ...        0 min,  0.007 sec ( 27.312%)
 iterations                     ...        0 min,  0.006 sec ( 23.020%)
 molecular gradient             ...        0 min,  0.011 sec ( 45.632%)
 printout                       ...        0 min,  0.000 sec (  0.593%)

         :::::::::::::::::::::::::::::::::::::::::::::::::::::
         ::                     SUMMARY                     ::
         :::::::::::::::::::::::::::::::::::::::::::::::::::::
         :: total energy             -39.867540146404 Eh    ::
         :: gradient norm             11.572397947073 Eh/a0 ::
         :: HOMO-LUMO gap              1.418568748343 eV    ::
         ::.................................................::
         :: SCC energy               -42.699342384052 Eh    ::
         :: -> isotropic ES            0.130221863478 Eh    ::
         :: -> anisotropic ES         -0.007134109548 Eh    ::
         :: -> anisotropic XC          0.017647402788 Eh    ::
         :: -> dispersion             -0.020565560524 Eh    ::
         :: repulsion energy           2.831719638886 Eh    ::
         :: add. restraining           0.000000000000 Eh    ::
         :: total charge               1.000000000000 e     ::
         :::::::::::::::::::::::::::::::::::::::::::::::::::::

      ----------------------------------------------------------- 
     |                   =====================                   |
     |                        A N C O P T                        |
     |                   =====================                   |
     |               Approximate Normal Coordinate               |
     |                Rational Function Optimizer                |
      ----------------------------------------------------------- 

          ...................................................
          :                      SETUP                      :
          :.................................................:
          :   optimization level             crude          :
          :   max. optcycles                   200          :
          :   ANC micro-cycles                  20          :
          :   degrees of freedom                69          :
          :.................................................:
          :   RF solver                   davidson          :
          :   write xtbopt.log                true          :
          :   linear?                        false          :
          :   energy convergence         0.5000000E-03 Eh   :
          :   grad. convergence          0.1000000E-01 Eh/α :
          :   maxmium RF displ.          1.0000000          :
          :   Hlow (freq-cutoff)         0.1000000E-01      :
          :   Hmax (freq-cutoff)         5.0000000          :
          :   S6 in model hess.         20.0000000          :
          ...................................................

generating ANC from model Hessian ...
Using Lindh-Hessian (1995)
 Shifting diagonal of input Hessian by    8.8666055498746541E-003
 Lowest  eigenvalues of input Hessian
    0.000000    0.000000    0.000000    0.000000    0.000000    0.000000
    0.010000    0.010637    0.011483    0.011832    0.013432    0.016178
    0.020211    0.020805    0.024015    0.024995    0.027821    0.029607
 Highest eigenvalues
    2.312322    2.531436    2.565139    2.818604    4.234736    8.638741


........................................................................
.............................. CYCLE    1 ..............................
........................................................................

 iter      E             dE          RMSdq      gap      omega  full diag
   1    -42.6993424 -0.426993E+02  0.534E-06    1.42       0.0  T
   2    -42.6993424  0.525802E-12  0.495E-06    1.42    4039.8  T
   3    -42.6993424 -0.376588E-12  0.380E-06    1.42    5268.6  T
     SCC iter.                  ...        0 min,  0.004 sec
     gradient                   ...        0 min,  0.011 sec
 * total energy  :   -39.8675401 Eh     change       -0.2842171E-13 Eh
   gradient norm :    11.5723979 Eh/α   predicted     0.0000000E+00 (-100.00%)
   displ. norm   :     0.8388080 α      lambda       -0.9696027E+01
   maximum displ.:     0.8169202 α      in ANC's #68, #61, #49, ...

........................................................................
.............................. CYCLE    2 ..............................
........................................................................

 iter      E             dE          RMSdq      gap      omega  full diag
   1    -42.7095150 -0.427095E+02  0.122E+00    1.16       0.0  T
   2    -42.7166965 -0.718155E-02  0.702E-01    1.60       1.0  T
   3    -42.7152263  0.147025E-02  0.573E-01    1.09       1.0  T
   4    -42.7103931  0.483316E-02  0.543E-01    1.65       1.0  T
   5    -42.7223498 -0.119566E-01  0.665E-02    1.36       1.0  T
   6    -42.7224300 -0.802080E-04  0.271E-02    1.35       1.0  T
   7    -42.7224421 -0.121124E-04  0.116E-02    1.34       1.7  T
   8    -42.7224427 -0.638229E-06  0.361E-03    1.34       5.5  T
   9    -42.7224431 -0.345849E-06  0.800E-04    1.34      25.0  T
  10    -42.7224431  0.254282E-09  0.430E-04    1.34      46.6  T
     SCC iter.                  ...        0 min,  0.012 sec
     gradient                   ...        0 min,  0.011 sec
 * total energy  :   -42.0864674 Eh     change       -0.2218927E+01 Eh
   gradient norm :     0.2999686 Eh/α   predicted    -0.8259071E+01 ( 272.21%)
   displ. norm   :     0.3802924 α      lambda       -0.8721130E-01
   maximum displ.:     0.2215885 α      in ANC's #39, #46, #51, ...

........................................................................
.............................. CYCLE    3 ..............................
........................................................................

 iter      E             dE          RMSdq      gap      omega  full diag
   1    -42.6947240 -0.426947E+02  0.492E-01    1.26       0.0  T
   2    -42.6944136  0.310380E-03  0.367E-01    1.36       1.0  T
   3    -42.6912491  0.316454E-02  0.387E-01    1.13       1.0  T
   4    -42.6942423 -0.299323E-02  0.209E-01    1.41       1.0  T
   5    -42.6959901 -0.174775E-02  0.352E-02    1.28       1.0  T
   6    -42.6960137 -0.236446E-04  0.121E-02    1.29       1.7  T
   7    -42.6960135  0.205580E-06  0.801E-03    1.28       2.5  T
   8    -42.6960145 -0.982789E-06  0.186E-03    1.28      10.7  T
   9    -42.6960146 -0.783159E-07  0.628E-04    1.28      31.9  T
  10    -42.6960146 -0.400248E-08  0.250E-04    1.29      80.1  T
     SCC iter.                  ...        0 min,  0.012 sec
     gradient                   ...        0 min,  0.011 sec
 * total energy  :   -42.1322570 Eh     change       -0.4578961E-01 Eh
   gradient norm :     0.0744098 Eh/α   predicted    -0.4990673E-01 (   8.99%)
   displ. norm   :     0.1731863 α      lambda       -0.8323130E-02
   maximum displ.:     0.1088142 α      in ANC's #39, #18, #24, ...

........................................................................
.............................. CYCLE    4 ..............................
........................................................................

 iter      E             dE          RMSdq      gap      omega  full diag
   1    -42.6906419 -0.426906E+02  0.257E-01    1.34       0.0  T
   2    -42.6908107 -0.168778E-03  0.176E-01    1.29       1.0  T
   3    -42.6908809 -0.702179E-04  0.101E-01    1.35       1.0  T
   4    -42.6908220  0.589401E-04  0.652E-02    1.28       1.0  T
   5    -42.6909440 -0.122039E-03  0.358E-02    1.33       1.0  T
   6    -42.6909981 -0.541007E-04  0.489E-03    1.31       4.1  T
   7    -42.6909981  0.883083E-08  0.295E-03    1.31       6.8  T
   8    -42.6909982 -0.116542E-06  0.693E-04    1.31      28.8  T
   9    -42.6909983 -0.759720E-08  0.226E-04    1.31      88.6  T
     SCC iter.                  ...        0 min,  0.011 sec
     gradient                   ...        0 min,  0.011 sec
 * total energy  :   -42.1376226 Eh     change       -0.5365617E-02 Eh
   gradient norm :     0.0606103 Eh/α   predicted    -0.4286560E-02 ( -20.11%)
   displ. norm   :     0.1012837 α      lambda       -0.1735497E-02
   maximum displ.:     0.0427763 α      in ANC's #39, #18, #2, ...

........................................................................
.............................. CYCLE    5 ..............................
........................................................................

 iter      E             dE          RMSdq      gap      omega  full diag
   1    -42.6900908 -0.426901E+02  0.125E-01    1.34       0.0  T
   2    -42.6900571  0.337103E-04  0.880E-02    1.30       1.0  T
   3    -42.6898619  0.195248E-03  0.911E-02    1.38       1.0  T
   4    -42.6900526 -0.190765E-03  0.468E-02    1.31       1.0  T
   5    -42.6901445 -0.918978E-04  0.746E-03    1.33       2.7  T
   6    -42.6901457 -0.119924E-05  0.216E-03    1.33       9.3  T
   7    -42.6901457  0.257825E-08  0.114E-03    1.33      17.6  T
   8    -42.6901458 -0.167639E-07  0.332E-04    1.33      60.2  T
   9    -42.6901458 -0.161247E-08  0.116E-04    1.33     172.0  T
     SCC iter.                  ...        0 min,  0.011 sec
     gradient                   ...        0 min,  0.011 sec
 * total energy  :   -42.1387241 Eh     change       -0.1101484E-02 Eh
   gradient norm :     0.0579222 Eh/α   predicted    -0.8766546E-03 ( -20.41%)
   displ. norm   :     0.0781434 α      lambda       -0.5462962E-03
   maximum displ.:     0.0477374 α      in ANC's #2, #4, #3, ...

........................................................................
.............................. CYCLE    6 ..............................
........................................................................

 iter      E             dE          RMSdq      gap      omega  full diag
   1    -42.6901085 -0.426901E+02  0.454E-02    1.33       0.0  T
   2    -42.6901116 -0.316796E-05  0.278E-02    1.33       1.0  T
   3    -42.6900995  0.121395E-04  0.226E-02    1.34       1.0  T
   4    -42.6900986  0.841750E-06  0.185E-02    1.32       1.1  T
   5    -42.6901137 -0.150935E-04  0.328E-03    1.33       6.1  T
   6    -42.6901140 -0.292049E-06  0.794E-04    1.33      25.2  T
   7    -42.6901140  0.131615E-08  0.420E-04    1.33      47.7  T
     SCC iter.                  ...        0 min,  0.009 sec
     gradient                   ...        0 min,  0.011 sec
 * total energy  :   -42.1391479 Eh     change       -0.4237732E-03 Eh
   gradient norm :     0.0523100 Eh/α   predicted    -0.2748647E-03 ( -35.14%)
   displ. norm   :     0.1442748 α      lambda       -0.7945404E-03
   maximum displ.:     0.0970388 α      in ANC's #2, #4, #1, ...

........................................................................
.............................. CYCLE    7 ..............................
........................................................................

 iter      E             dE          RMSdq      gap      omega  full diag
   1    -42.6900031 -0.426900E+02  0.474E-02    1.33       0.0  T
   2    -42.6900077 -0.458229E-05  0.296E-02    1.34       1.0  T
   3    -42.6899836  0.241291E-04  0.267E-02    1.32       1.0  T
   4    -42.6899952 -0.116838E-04  0.199E-02    1.34       1.0  T
   5    -42.6900108 -0.156024E-04  0.161E-03    1.33      12.4  T
   6    -42.6900109 -0.403236E-07  0.722E-04    1.33      27.7  T
   7    -42.6900109 -0.127153E-08  0.176E-04    1.33     113.8  T
     SCC iter.                  ...        0 min,  0.009 sec
     gradient                   ...        0 min,  0.011 sec
 * total energy  :   -42.1397172 Eh     change       -0.5692601E-03 Eh
   gradient norm :     0.0400771 Eh/α   predicted    -0.4055582E-03 ( -28.76%)
   displ. norm   :     0.1431235 α      lambda       -0.6336829E-03
   maximum displ.:     0.0996239 α      in ANC's #2, #1, #4, ...

........................................................................
.............................. CYCLE    8 ..............................
........................................................................

 iter      E             dE          RMSdq      gap      omega  full diag
   1    -42.6891269 -0.426891E+02  0.432E-02    1.32       0.0  T
   2    -42.6891101  0.168530E-04  0.350E-02    1.34       1.0  T
   3    -42.6890988  0.113080E-04  0.333E-02    1.31       1.0  T
   4    -42.6891320 -0.332161E-04  0.131E-02    1.33       1.5  T
   5    -42.6891370 -0.497802E-05  0.218E-03    1.33       9.2  T
   6    -42.6891371 -0.138084E-06  0.721E-04    1.33      27.7  T
   7    -42.6891371 -0.598380E-08  0.356E-04    1.33      56.2  T
     SCC iter.                  ...        0 min,  0.009 sec
     gradient                   ...        0 min,  0.011 sec
 * total energy  :   -42.1401806 Eh     change       -0.4634855E-03 Eh
   gradient norm :     0.0267924 Eh/α   predicted    -0.3233358E-03 ( -30.24%)
   displ. norm   :     0.1220257 α      lambda       -0.5067554E-03
   maximum displ.:     0.0858310 α      in ANC's #2, #1, #4, ...

........................................................................
.............................. CYCLE    9 ..............................
........................................................................

 iter      E             dE          RMSdq      gap      omega  full diag
   1    -42.6872460 -0.426872E+02  0.551E-02    1.31       0.0  T
   2    -42.6872084  0.375680E-04  0.462E-02    1.34       1.0  T
   3    -42.6872048  0.357708E-05  0.419E-02    1.30       1.0  T
   4    -42.6872541 -0.492554E-04  0.177E-02    1.32       1.1  T
   5    -42.6872632 -0.916014E-05  0.194E-03    1.32      10.3  T
   6    -42.6872633 -0.800557E-07  0.879E-04    1.32      22.8  T
   7    -42.6872633 -0.883203E-08  0.433E-04    1.32      46.2  T
     SCC iter.                  ...        0 min,  0.009 sec
     gradient                   ...        0 min,  0.011 sec
 * total energy  :   -42.1405177 Eh     change       -0.3370897E-03 Eh
   gradient norm :     0.0126441 Eh/α   predicted    -0.2571807E-03 ( -23.71%)
   displ. norm   :     0.0422626 α      lambda       -0.1621148E-03
   maximum displ.:     0.0253764 α      in ANC's #1, #2, #4, ...

........................................................................
.............................. CYCLE   10 ..............................
........................................................................

 iter      E             dE          RMSdq      gap      omega  full diag
   1    -42.6857326 -0.426857E+02  0.329E-02    1.31       0.0  T
   2    -42.6857218  0.108249E-04  0.255E-02    1.33       1.0  T
   3    -42.6857152  0.656734E-05  0.267E-02    1.30       1.0  T
   4    -42.6857368 -0.216343E-04  0.921E-03    1.32       2.2  T
   5    -42.6857389 -0.203674E-05  0.179E-03    1.31      11.2  T
   6    -42.6857389 -0.891279E-07  0.564E-04    1.31      35.5  T
   7    -42.6857390 -0.196913E-08  0.286E-04    1.31      70.0  T
     SCC iter.                  ...        0 min,  0.009 sec
     gradient                   ...        0 min,  0.011 sec
 * total energy  :   -42.1406181 Eh     change       -0.1003616E-03 Eh
   gradient norm :     0.0042837 Eh/α   predicted    -0.8121592E-04 ( -19.08%)
   displ. norm   :     0.0242616 α      lambda       -0.2889708E-04
   maximum displ.:     0.0139977 α      in ANC's #3, #2, #1, ...

   *** GEOMETRY OPTIMIZATION CONVERGED AFTER 10 ITERATIONS ***

------------------------------------------------------------------------
 total energy gain   :        -2.2730779 Eh    -1426.3779 kcal/mol
 total RMSD          :         0.2524209 a0        0.1336 Å
 total power (kW/mol):      -596.7965336 (step)********** (real)
------------------------------------------------------------------------

 ANCopt (total)                0 d,  0 h,  0 min,  0.261 sec
 optimizer setup                ...        0 min,  0.000 sec (  0.141%)
 model hessian                  ...        0 min,  0.006 sec (  2.336%)
 ANC generation                 ...        0 min,  0.001 sec (  0.274%)
 coordinate transformation      ...        0 min,  0.000 sec (  0.034%)
 single point calculation       ...        0 min,  0.249 sec ( 95.496%)
 optimization log               ...        0 min,  0.002 sec (  0.813%)
 hessian update                 ...        0 min,  0.000 sec (  0.048%)
 rational function              ...        0 min,  0.002 sec (  0.649%)

================
 final structure:
================
25
 xtb: 6.6.1 (8d0f1dd)
C            4.04623049865136        0.71756032848879        0.30408404319905
N            2.72748628968324        0.20244125316847        0.22056709698547
C            2.46915019132201       -1.02239589286279        0.06551554163698
N            1.19093342610623       -1.49882643555191       -0.01935976460560
C            0.05906716651819       -0.73796076324975        0.05196437573107
C           -0.09231404493985        0.60711240548923        0.26107498500344
C           -2.01292470104914        2.86591506613891       -0.87194355885947
O           -1.72311848053837        3.17617567032789       -1.94453603559180
N           -1.44708629725580        0.86382287911060        0.25644573525348
C           -2.13763760720930        2.13201619655119        0.35050931293761
C           -2.14783260937803       -0.31416271796382        0.01730427087900
O           -3.34579385313345       -0.41274429308833       -0.05995701972013
N           -1.18914224257720       -1.29778905562260       -0.09132969935558
C           -1.51423739276365       -2.68157747489297       -0.32559520308964
H            4.15336170054260        1.24107963971377        1.25544046732580
H            4.82041755115721       -0.05385110259621        0.22455470145602
H            4.18154037817311        1.44963649042504       -0.49376175763945
H            3.23109020000709       -1.80520847728610       -0.01688188460253
H            0.65417584570220        1.35238964328169        0.42983372487316
H           -3.20279607147638        1.88748116365416        0.52023961076688
H           -1.77556869744311        2.72593462049262        1.20097455614936
H           -1.17431315575990       -3.30679207168346        0.50166560193454
H           -1.07920210220477       -3.03122130839983       -1.26325497399467
H           -2.59965357047402       -2.74741082124960       -0.39360087455260
H            1.06859909244203       -2.49338640079743       -0.14878163422249

 Bond Distances (Angstroems)
 ---------------------------
C1-N2=1.4182         C1-H15=1.0912        C1-H16=1.0958        C1-H17=1.0912        N2-C1=1.4182         N2-C3=1.2614         
C3-N2=1.2614         C3-N4=1.3668         C3-H18=1.0955        N4-C3=1.3668         N4-C5=1.3657         N4-H25=1.0104        
C5-N4=1.3657         C5-C6=1.3696         C5-N13=1.3755        C6-C5=1.3696         C6-N9=1.3789         C6-H19=1.0683        
C7-O8=1.1536         C7-C10=1.4313        O8-C7=1.1536         N9-C6=1.3789         N9-C10=1.4471        N9-C11=1.3914        
C10-C7=1.4313        C10-N9=1.4471        C10-H20=1.1060       C10-H21=1.0987       C11-N9=1.3914        C11-O12=1.2045       
C11-N13=1.3778       O12-C11=1.2045       N13-C5=1.3755        N13-C11=1.3778       N13-C14=1.4406       C14-N13=1.4406       
C14-H22=1.0912       C14-H23=1.0912       C14-H24=1.0895       H15-C1=1.0912        H16-C1=1.0958        H17-C1=1.0912        
H18-C3=1.0955        H19-C6=1.0683        H20-C10=1.1060       H21-C10=1.0987       H22-C14=1.0912       H23-C14=1.0912       
H24-C14=1.0895       H25-N4=1.0104        
 C  H  Rav=1.0919 sigma=0.0092  Rmin=1.0683  Rmax=1.1060    10
 C  C  Rav=1.4004 sigma=0.0308  Rmin=1.3696  Rmax=1.4313     2
 N  H  Rav=1.0104 sigma=0.0000  Rmin=1.0104  Rmax=1.0104     1
 N  C  Rav=1.3823 sigma=0.0492  Rmin=1.2614  Rmax=1.4471    10
 O  C  Rav=1.1790 sigma=0.0255  Rmin=1.1536  Rmax=1.2045     2

 selected bond angles (degree)
 --------------------
H15-C1-N2=108.48               H16-C1-N2=113.39               H16-C1-H15=109.37              H17-C1-N2=108.42               
H17-C1-H15=107.66              H17-C1-H16=109.37              C3-N2-C1=123.39                N4-C3-N2=122.53                
H18-C3-N2=124.10               H18-C3-N4=113.37               C5-N4-C3=125.29                H25-N4-C3=117.67               
H25-N4-C5=117.05               C6-C5-N4=130.29                N13-C5-N4=121.33               N13-C5-C6=108.38               
N9-C6-C5=106.91                H19-C6-C5=129.20               H19-C6-N9=123.86               C10-C7-O8=162.54               
C10-N9-C6=129.18               C11-N9-C6=109.74               C11-N9-C10=120.85              N9-C10-C7=110.63               
H20-C10-C7=109.17              H20-C10-N9=106.01              H21-C10-C7=110.81              H21-C10-N9=111.52              
H21-C10-H20=108.55             

 selected dihedral angles (degree)
 ---------------------------------
C3-N2-C1-H15=238.07           C3-N2-C1-H16=359.78           C3-N2-C1-H17=121.43           N4-C3-N2-C1=180.33            
H18-C3-N2-C1=  0.17           C5-N4-C3-N2=359.90            C5-N4-C3-H18=180.05           H25-N4-C3-N2=179.66           
H25-N4-C3-H18=359.81          C6-C5-N4-C3=357.52            C6-C5-N4-H25=177.76           N13-C5-N4-C3=177.64           
N13-C5-N4-H25=357.88          N9-C6-C5-N4=180.64            N9-C6-C5-N13=  0.53           H19-C6-C5-N4=358.93           
H19-C6-C5-N13=178.82          C10-N9-C6-C5=184.27           C10-N9-C6-H19=  5.87          C11-N9-C6-C5=358.79           
C11-N9-C6-H19=180.38          N9-C10-C7-O8=358.77           H20-C10-C7-O8=242.49          H21-C10-C7-O8=122.99          
C7-C10-N9-C6= 73.19           C7-C10-N9-C11=259.20          H20-C10-N9-C6=191.42          H20-C10-N9-C11= 17.43         
H21-C10-N9-C6=309.38          H21-C10-N9-C11=135.39         
           -------------------------------------------------
          |                Final Singlepoint                |
           -------------------------------------------------

          ...................................................
          :                      SETUP                      :
          :.................................................:
          :  # basis functions                  67          :
          :  # atomic orbitals                  67          :
          :  # shells                           39          :
          :  # electrons                        74          :
          :  max. iterations                   250          :
          :  Hamiltonian                  GFN2-xTB          :
          :  restarted?                      false          :
          :  GBSA solvation                  false          :
          :  PC potential                    false          :
          :  electronic temp.         5000.0000000     K    :
          :  accuracy                    1.0000000          :
          :  -> integral cutoff          0.2500000E+02      :
          :  -> integral neglect         0.1000000E-07      :
          :  -> SCF convergence          0.1000000E-05 Eh   :
          :  -> wf. convergence          0.1000000E-03 e    :
          :  Broyden damping             0.4000000          :
          ...................................................

 iter      E             dE          RMSdq      gap      omega  full diag
   1    -42.6857390 -0.426857E+02  0.789E-05    1.31       0.0  T
   2    -42.6857390  0.314415E-10  0.612E-05    1.31     326.7  T
   3    -42.6857390 -0.199663E-10  0.523E-05    1.31     382.4  T

   *** convergence criteria satisfied after 3 iterations ***

         #    Occupation            Energy/Eh            Energy/eV
      -------------------------------------------------------------
         1        2.0000           -0.9419350             -25.6314
       ...           ...                  ...                  ...
        31        1.9996           -0.6166216             -16.7791
        32        1.9991           -0.6056705             -16.4811
        33        1.9973           -0.5879169             -15.9980
        34        1.9915           -0.5697960             -15.5049
        35        1.9696           -0.5495376             -14.9537
        36        1.8368           -0.5218041             -14.1990
        37        1.6733           -0.5093406             -13.8599 (HOMO)
        38        0.3904           -0.4610470             -12.5457 (LUMO)
        39        0.1406           -0.4425870             -12.0434
        40        0.0026           -0.3779735             -10.2852
        41        0.0002           -0.3371782              -9.1751
        42        0.0001           -0.3163396              -8.6080
       ...           ...                  ...                  ...
        67                          0.7547251              20.5371
      -------------------------------------------------------------
                  HL-Gap            0.0482936 Eh            1.3141 eV
             Fermi-level           -0.4834773 Eh          -13.1561 eV

 SCC (total)                   0 d,  0 h,  0 min,  0.020 sec
 SCC setup                      ...        0 min,  0.000 sec (  0.941%)
 Dispersion                     ...        0 min,  0.000 sec (  0.811%)
 classical contributions        ...        0 min,  0.000 sec (  0.329%)
 integral evaluation            ...        0 min,  0.004 sec ( 20.031%)
 iterations                     ...        0 min,  0.004 sec ( 21.895%)
 molecular gradient             ...        0 min,  0.011 sec ( 55.366%)
 printout                       ...        0 min,  0.000 sec (  0.592%)

         :::::::::::::::::::::::::::::::::::::::::::::::::::::
         ::                     SUMMARY                     ::
         :::::::::::::::::::::::::::::::::::::::::::::::::::::
         :: total energy             -42.140618095903 Eh    ::
         :: gradient norm              0.004284479735 Eh/a0 ::
         :: HOMO-LUMO gap              1.314134933281 eV    ::
         ::.................................................::
         :: SCC energy               -42.685738952769 Eh    ::
         :: -> isotropic ES            0.130443016439 Eh    ::
         :: -> anisotropic ES         -0.007729045328 Eh    ::
         :: -> anisotropic XC          0.018498739433 Eh    ::
         :: -> dispersion             -0.020440701220 Eh    ::
         :: repulsion energy           0.545040380916 Eh    ::
         :: add. restraining           0.000000000000 Eh    ::
         :: total charge               1.000000000000 e     ::
         :::::::::::::::::::::::::::::::::::::::::::::::::::::

           -------------------------------------------------
          |                Property Printout                |
           -------------------------------------------------

    * Orbital Energies and Occupations

         #    Occupation            Energy/Eh            Energy/eV
      -------------------------------------------------------------
         1        2.0000           -0.9419350             -25.6314
       ...           ...                  ...                  ...
        25        2.0000           -0.6557859             -17.8448
        26        2.0000           -0.6550572             -17.8250
        27        1.9999           -0.6498044             -17.6821
        28        1.9999           -0.6399372             -17.4136
        29        1.9999           -0.6390511             -17.3895
        30        1.9996           -0.6177376             -16.8095
        31        1.9996           -0.6166216             -16.7791
        32        1.9991           -0.6056705             -16.4811
        33        1.9973           -0.5879169             -15.9980
        34        1.9915           -0.5697960             -15.5049
        35        1.9696           -0.5495376             -14.9537
        36        1.8368           -0.5218041             -14.1990
        37        1.6733           -0.5093406             -13.8599 (HOMO)
        38        0.3904           -0.4610470             -12.5457 (LUMO)
        39        0.1406           -0.4425870             -12.0434
        40        0.0026           -0.3779735             -10.2852
        41        0.0002           -0.3371782              -9.1751
        42        0.0001           -0.3163396              -8.6080
        43                         -0.1823513              -4.9620
        44                         -0.1623750              -4.4184
        45                         -0.1071524              -2.9158
        46                         -0.0755513              -2.0559
        47                         -0.0617309              -1.6798
        48                         -0.0444931              -1.2107
       ...                                ...                  ...
        67                          0.7547251              20.5371
      -------------------------------------------------------------
                  HL-Gap            0.0482936 Eh            1.3141 eV
             Fermi-level           -0.4834773 Eh          -13.1561 eV

     #   Z          covCN         q      C6AA      α(0)
     1   6 C        3.709    -0.042    21.471     6.623
     2   7 N        1.829    -0.190    25.944     7.548
     3   6 C        2.783     0.119    25.375     8.251
     4   7 N        2.694    -0.101    23.219     7.157
     5   6 C        2.977     0.113    25.500     8.283
     6   6 C        2.956    -0.039    28.963     8.827
     7   6 C        1.845     0.247    25.431     8.146
     8   8 O        0.856    -0.058    15.904     5.347
     9   7 N        2.848    -0.053    22.256     7.007
    10   6 C        3.741    -0.014    20.899     6.522
    11   6 C        2.857     0.302    21.881     7.667
    12   8 O        0.857    -0.396    21.601     6.231
    13   7 N        2.828    -0.059    22.386     7.027
    14   6 C        3.689    -0.066    21.962     6.707
    15   1 H        0.924     0.089     1.888     2.149
    16   1 H        0.924     0.059     2.209     2.324
    17   1 H        0.924     0.089     1.888     2.149
    18   1 H        0.924     0.058     2.217     2.329
    19   1 H        0.927     0.110     1.694     2.035
    20   1 H        0.922     0.183     1.187     1.704
    21   1 H        0.923     0.155     1.360     1.824
    22   1 H        0.924     0.081     1.967     2.193
    23   1 H        0.924     0.081     1.972     2.196
    24   1 H        0.925     0.116     1.647     2.007
    25   1 H        0.860     0.215     1.034     1.593

 Mol. C6AA /au·bohr⁶  :       6607.833465
 Mol. C8AA /au·bohr⁸  :     151416.524089
 Mol. α(0) /au        :        123.845479


Wiberg/Mayer (AO) data.
largest (>0.10) Wiberg bond orders for each atom

 ---------------------------------------------------------------------------
     #   Z sym  total        # sym  WBO       # sym  WBO       # sym  WBO
 ---------------------------------------------------------------------------
     1   6 C    3.939 --     2 N    1.049    16 H    0.954    15 H    0.949
                            17 H    0.949
     2   7 N    2.976 --     3 C    1.748     1 C    1.049
     3   6 C    3.939 --     2 N    1.748     4 N    1.164    18 H    0.923
     4   7 N    3.451 --     3 C    1.164     5 C    1.151    25 H    0.922
     5   6 C    3.893 --     6 C    1.459     4 N    1.151    13 N    1.146
     6   6 C    3.769 --     5 C    1.459     9 N    1.148    19 H    0.956
     7   6 C    3.366 --     8 O    2.172    10 C    1.100
     8   8 O    2.309 --     7 C    2.172
     9   7 N    3.467 --     6 C    1.148    11 C    1.074    10 C    0.966
                            12 O    0.124
    10   6 C    3.941 --     7 C    1.100     9 N    0.966    21 H    0.904
                            20 H    0.884
    11   6 C    3.938 --    12 O    1.641    13 N    1.122     9 N    1.074
    12   8 O    1.959 --    11 C    1.641    13 N    0.134     9 N    0.124
    13   7 N    3.535 --     5 C    1.146    11 C    1.122    14 C    0.987
                            12 O    0.134
    14   6 C    3.934 --    13 N    0.987    23 H    0.969    22 H    0.969
                            24 H    0.968
    15   1 H    0.979 --     1 C    0.949
    16   1 H    0.967 --     1 C    0.954
    17   1 H    0.979 --     1 C    0.949
    18   1 H    0.970 --     3 C    0.923
    19   1 H    0.987 --     6 C    0.956
    20   1 H    0.952 --    10 C    0.884
    21   1 H    0.961 --    10 C    0.904
    22   1 H    0.989 --    14 C    0.969
    23   1 H    0.989 --    14 C    0.969
    24   1 H    0.986 --    14 C    0.968
    25   1 H    0.953 --     4 N    0.922
 ---------------------------------------------------------------------------

Topologies differ in total number of bonds
Writing topology from bond orders to xtbtopo.mol

molecular dipole:
                 x           y           z       tot (Debye)
 q only:        0.416       0.581       0.293
   full:        0.791       0.239       0.324       2.257
molecular quadrupole (traceless):
                xx          xy          yy          xz          yz          zz
 q only:        2.849     -12.397      15.811      -0.641       4.328     -18.661
  q+dip:        1.265     -15.528      17.382      -1.233       5.264     -18.647
   full:        1.514     -15.384      16.860      -0.906       5.410     -18.374

           -------------------------------------------------
          |                Geometry Summary                 |
           -------------------------------------------------

      molecular mass/u    :      195.1988581
   center of mass at/Å    :       -0.3625902       0.1740396      -0.1376826
  moments of inertia/u·Å² :        0.5769577E+03   0.1032304E+04   0.1493220E+04
rotational constants/cm⁻¹ :        0.2921814E-01   0.1633011E-01   0.1128945E-01

 * 24 selected distances

     #   Z          #   Z                                           value/Å
     1   6 C        2   7 N                                       1.4182417
     2   7 N        3   6 C                                       1.2613504
     3   6 C        4   7 N                                       1.3667583
     4   7 N        5   6 C                                       1.3656959
     5   6 C        6   6 C                                       1.3696225
     7   6 C        8   8 O                                       1.1535615
     6   6 C        9   7 N                                       1.3788872
     9   7 N       10   6 C                                       1.4470742 (max)
     9   7 N       11   6 C                                       1.3913607
    11   6 C       12   8 O                                       1.2044912
     5   6 C       13   7 N                                       1.3754883
    11   6 C       13   7 N                                       1.3778279
    13   7 N       14   6 C                                       1.4406380
     1   6 C       15   1 H                                       1.0911594
     1   6 C       16   1 H                                       1.0957948
     1   6 C       17   1 H                                       1.0912389
     3   6 C       18   1 H                                       1.0955080
     6   6 C       19   1 H                                       1.0682533
    10   6 C       20   1 H                                       1.1059695
    10   6 C       21   1 H                                       1.0986921
    14   6 C       22   1 H                                       1.0912389
    14   6 C       23   1 H                                       1.0911978
    14   6 C       24   1 H                                       1.0895354
     4   7 N       25   1 H                                       1.0103789 (min)

 * 5 distinct bonds (by element types)

   Z      Z             #   av. dist./Å        max./Å        min./Å
   1 H    6 C          10     1.0918588     1.1059695     1.0682533
   6 C    6 C           1     1.3696225     1.3696225     1.3696225
   1 H    7 N           1     1.0103789     1.0103789     1.0103789
   6 C    7 N          10     1.3823323     1.4470742     1.2613504
   6 C    8 O           2     1.1790264     1.2044912     1.1535615


optimized geometry written to: xtbopt.xyz


           -------------------------------------------------
          | TOTAL ENERGY              -42.140618095903 Eh   |
          | GRADIENT NORM               0.004284479735 Eh/α |
          | HOMO-LUMO GAP               1.314134933281 eV   |
           -------------------------------------------------

------------------------------------------------------------------------
 * finished run on 2024/06/05 at 20:00:25.448     
------------------------------------------------------------------------
 total:
 * wall-time:     0 d,  0 h,  0 min,  0.343 sec
 *  cpu-time:     0 d,  0 h,  0 min,  0.318 sec
 * ratio c/w:     0.928 speedup
 SCF:
 * wall-time:     0 d,  0 h,  0 min,  0.024 sec
 *  cpu-time:     0 d,  0 h,  0 min,  0.024 sec
 * ratio c/w:     0.995 speedup
 ANC optimizer:
 * wall-time:     0 d,  0 h,  0 min,  0.287 sec
 *  cpu-time:     0 d,  0 h,  0 min,  0.281 sec
 * ratio c/w:     0.978 speedup

