72
 energy: -103.311416909004 gnorm: 0.088805633825 xtb: 6.6.1 (8d0f1dd)
N           -1.48195986782000        2.75839673420665        2.22949039386030
C           -1.56013780910632        2.16187262065167        1.14438602796431
C           -2.74654610662963        2.05813233475303        0.24453006673157
C           -3.31532515941381        0.64566097084548        0.32678282461693
C           -4.30149570148929        0.24599330857200       -0.57817195381562
C           -4.85088545247890       -1.02197435908599       -0.53326254936510
O           -5.81244588442847       -1.48625740552485       -1.36564082569021
C           -6.39073965021574       -0.60734030798915       -2.29976822753552
C           -4.40119917131779       -1.94415961636369        0.44488385089404
O           -4.99010074003579       -3.16228486737805        0.41003468311809
C           -4.66779351011900       -4.10045527294310        1.40833922366311
C           -3.42580308766843       -1.54314362566584        1.33839175662195
C           -2.88825027080632       -0.26062620465324        1.27933092282522
C           -2.19370521531599        2.30679051489077       -1.17913667762567
C           -1.26944638828889        1.17637988384472       -1.66081330065538
C            0.00387600835463        1.10681032943985       -0.90382834920963
N            0.61692534451526       -0.03703045261974       -0.58177801857951
C            1.99637304309327       -0.03655907016623       -0.16256188255147
C            2.92498415940307       -0.54908134067325       -1.28106771298905
C            4.35605188471081       -0.43351983689169       -0.83499178807919
C            5.06899808828923        0.72934879285940       -1.04704285589130
C            6.38079638165958        0.84551756380218       -0.61113453112724
C            7.00280822251517       -0.19622248190947        0.05418534495806
O            8.28263899892251       -0.20901454233422        0.51836304399217
C            9.10150849558852        0.91472232200798        0.31811373063607
C            6.27088756349189       -1.39430250058716        0.28142547398355
O            6.95252927115761       -2.36834713224167        0.93312475703817
C            6.32221827357156       -3.60337814518012        1.16339860375747
C            4.96612937041186       -1.48947606648785       -0.15953465260645
C           -0.06362761810178       -1.30832158238264       -0.63577178586562
C           -3.87241163123729        3.07841168345611        0.58663343544088
C           -4.49967990321786        2.77368657758211        1.94480494082089
C           -3.39832536609635        4.52857048899247        0.55121882102225
H           -4.65511322706204        0.94550910766851       -1.31693580475250
H           -6.84497303662493        0.25967638810616       -1.80950714443380
H           -7.16659145035549       -1.18437644756873       -2.79942554378075
H           -5.66067270377937       -0.26826673448109       -3.04235181460960
H           -4.89120090143443       -3.71597249916686        2.40832891935514
H           -5.29504351647276       -4.96675549938933        1.20714690133977
H           -3.61507215791777       -4.39733157619146        1.35772100692524
H           -3.07826817574044       -2.21692075508755        2.10525213247622
H           -2.15295509328941        0.02364691708507        2.01697521886047
H           -3.02347529531908        2.39790701550049       -1.87879488307064
H           -1.64511842578795        3.24918341279216       -1.19239773746386
H           -1.81672738570433        0.23689673082692       -1.62774893337713
H           -1.00826141392450        1.38044208534322       -2.70712423379466
H           -0.68160841978154        1.64738774945642        0.64330248066122
H            0.63609768507840        1.98400610943730       -0.93651884204082
H            2.10197952047680       -0.67347694051693        0.71953840374526
H            2.29801617538929        0.97920561937375        0.10490263927008
H            2.76037044210628        0.05304989887874       -2.17593298586938
H            2.67807198372156       -1.58767823203602       -1.51212831066448
H            4.61277888705831        1.55685941728806       -1.57074986341916
H            6.91308492856901        1.76240345856571       -0.80356827368512
H            8.73095615857962        1.77398733246946        0.82739357691661
H            9.19880244053842        1.17392592475401       -0.74437129906976
H           10.09665993566988        0.69895385600520        0.77273146003617
H            7.06463918997639       -4.21904620776620        1.66773407867583
H            5.44488811675817       -3.49495768907411        1.81048370288220
H            6.02887615425769       -4.08781887989371        0.22681550441405
H            4.40493734628392       -2.39966252609969        0.00435129436132
H           -0.23154425695719       -1.62143786134292       -1.66819622806143
H           -1.02904920340429       -1.24618305601798       -0.12558251468998
H            0.54680939480568       -2.05775001956742       -0.13965861775420
H           -4.64427491175975        2.95420875664721       -0.18040986230441
H           -3.76940547644991        2.90306671672712        2.73492432590876
H           -4.87997649438282        1.75545707625180        1.98047977850835
H           -5.32726186836618        3.45497773333990        2.12433961795785
H           -2.60905775389246        4.69023051183295        1.27874160742030
H           -3.04346727718779        4.81689730896881       -0.43452268383337
H           -4.23045145143543        5.18047774341728        0.80703026058355
H           -0.60948901102208        2.78694300189736        2.74141972314153
72
 energy: -103.314647072490 gnorm: 0.033007940416 xtb: 6.6.1 (8d0f1dd)
N           -1.49930703410201        2.79067066690189        2.24339673910415
C           -1.56633640051432        2.15501968234490        1.16627297120866
C           -2.74836412946631        2.06120202378109        0.25147414842139
C           -3.32015485872734        0.65096482849155        0.33156615064313
C           -4.30374622424705        0.24774026172930       -0.57424634373887
C           -4.85012590413393       -1.02115935805125       -0.53167775956106
O           -5.81529109414694       -1.48831843165737       -1.36675783071350
C           -6.38995779475423       -0.60754554483751       -2.29978642311135
C           -4.40183761558324       -1.94214120050216        0.44467655196064
O           -4.99310939825116       -3.16522415340512        0.40911789126017
C           -4.66729859143287       -4.10002553374915        1.40771655892477
C           -3.42957816405582       -1.53980287208136        1.34012700581448
C           -2.89530873592149       -0.25615284629262        1.28364129673687
C           -2.19527738971649        2.30381255527803       -1.17699411651428
C           -1.26567155785400        1.18616332433169       -1.67980303495361
C            0.00684714127752        1.12207808026151       -0.90904505409381
N            0.62708189560355       -0.05077239340731       -0.57332350191786
C            2.00094459338717       -0.04858177797148       -0.16426195093906
C            2.93563928075952       -0.55228239797370       -1.28285867649745
C            4.36396881314740       -0.43760836549726       -0.84470992161817
C            5.07677641469467        0.72810933768209       -1.04992350784339
C            6.38752859624667        0.84553161503081       -0.60836085736924
C            7.00747979163809       -0.19947887740940        0.05412554644815
O            8.28899931152607       -0.20999047698911        0.52038912446399
C            9.09354431963388        0.92294361359202        0.32044208522698
C            6.27710129758955       -1.39361008301884        0.28210805964608
O            6.95912667658827       -2.37076690029710        0.93689621728863
C            6.32327289886334       -3.60282578836906        1.16420497570964
C            4.97341154675667       -1.49093980690383       -0.16266213504313
C           -0.05930297749527       -1.31365612330191       -0.63366291072011
C           -3.87801516683969        3.07730828798875        0.58443108889074
C           -4.50382534376947        2.77526102155417        1.94404997932060
C           -3.40200497920705        4.52751194546190        0.55166317682906
H           -4.65310708514020        0.94534874403731       -1.31725220000923
H           -6.84278975649251        0.26039175468624       -1.80929419462116
H           -7.16650423617623       -1.18268586870001       -2.80143206422171
H           -5.65850507701329       -0.26732956865969       -3.04074082915996
H           -4.88955117212090       -3.71474955686229        2.40812941339269
H           -5.29334615736228       -4.96815649699881        1.20854488287009
H           -3.61373408113233       -4.39510541618615        1.35760760264590
H           -3.07716174244226       -2.21619459472865        2.10300245414857
H           -2.15259701831207        0.02648356327515        2.01354247921343
H           -3.02759277364695        2.40084393337594       -1.87532896968867
H           -1.64416571078014        3.24523986871113       -1.18800667953626
H           -1.80525381816388        0.24160108373499       -1.63359761671615
H           -1.03611664643797        1.39025051210509       -2.73639798896840
H           -0.69139673411742        1.64127063467679        0.67701552670208
H            0.65192629626681        1.98682020573473       -0.97164328722897
H            2.11569596172516       -0.68081995372694        0.72160066045789
H            2.29296100252410        0.96972457328533        0.10289067528032
H            2.76181331381678        0.05311701455095       -2.17384895076495
H            2.68525151670107       -1.58873498321549       -1.51409060181258
H            4.61818081756703        1.55654655910036       -1.56964150187732
H            6.91987296534285        1.76418712530815       -0.79766814076710
H            8.70654857619278        1.79646188018839        0.83918041743352
H            9.20998058532855        1.15939886915784       -0.74367394851379
H           10.07631484465485        0.68157078496807        0.74741452672633
H            7.06287225609342       -4.22197673574553        1.66921627734539
H            5.44431678576753       -3.49302414226893        1.80893557368611
H            6.02805738913280       -4.08554159425182        0.22653404440974
H            4.41016663102813       -2.39765010800718        0.00288092342419
H           -0.23076617730325       -1.62796794823553       -1.66823817585606
H           -1.02547754397206       -1.24753054970974       -0.12512209511856
H            0.54568540053357       -2.06753762666700       -0.13644544365156
H           -4.65180445864364        2.95678744918823       -0.18267542648326
H           -3.76447057552802        2.90245522751054        2.72792569617749
H           -4.88126207457201        1.75601361839315        1.97961230755841
H           -5.33185882731703        3.45670155137290        2.12736311283725
H           -2.60936270184669        4.68151276571569        1.27770389266188
H           -3.04350650675509        4.81305991005445       -0.43399710131118
H           -4.23189354049921        5.18326877867575        0.80764240224891
H           -0.61987312127893        2.78897868670250        2.75074665094630
72
 energy: -103.315395504079 gnorm: 0.017293130384 xtb: 6.6.1 (8d0f1dd)
N           -1.48479054215863        2.78123485303415        2.23329285958708
C           -1.55049453001679        2.14802076221798        1.14953750843871
C           -2.74476522630774        2.06036310448215        0.24674864305975
C           -3.31204318322226        0.64790176227690        0.32469243867653
C           -4.29960487558622        0.24531294527800       -0.57699512929959
C           -4.84636622435699       -1.02259052382584       -0.53267305521005
O           -5.81660087261152       -1.48996480504775       -1.36716198401115
C           -6.39100672367869       -0.60894094164066       -2.29893018977908
C           -4.39858096265944       -1.94285437384253        0.44233356037255
O           -4.99454199984040       -3.16742552369248        0.40874732700013
C           -4.66889735792990       -4.10054842572295        1.40743204888066
C           -3.42558206700387       -1.54237242295768        1.33704332986350
C           -2.88857105065233       -0.26049549931658        1.27749143067417
C           -2.19675978882488        2.30672988656868       -1.18294474154927
C           -1.26911267601357        1.18273666967729       -1.67144036618526
C           -0.00209505672226        1.13005276950621       -0.89440415645462
N            0.62572126330326       -0.05423855712387       -0.56118963437992
C            1.99490572130339       -0.04169954276978       -0.15972177665174
C            2.92919345294255       -0.54837788792937       -1.27842924610135
C            4.35380358164266       -0.43429928314465       -0.83832865064044
C            5.06876415623747        0.73028603698260       -1.04571266094140
C            6.38198705496364        0.84680704594602       -0.60895377161859
C            7.00301424725105       -0.19838601532115        0.05313593147534
O            8.28985625964062       -0.21170334071569        0.51559414435838
C            9.10284283240420        0.91780229238634        0.31958020924326
C            6.27121614722962       -1.38919105283746        0.28301436177292
O            6.95597240158582       -2.36946178500906        0.93544596456035
C            6.32220077856026       -3.60191531248380        1.16305022275590
C            4.96509299913170       -1.48736581662546       -0.15698315227171
C           -0.06195521791344       -1.31073043675614       -0.63494601386955
C           -3.87002199085733        3.07589175602508        0.58679763598102
C           -4.49985767442479        2.77380156679559        1.94546685599047
C           -3.39920997030746        4.52920443660998        0.55242647242909
H           -4.65261813879969        0.94424471984727       -1.31749204050364
H           -6.84430362214830        0.25932471790847       -1.80889459972077
H           -7.16805786352947       -1.18467223567020       -2.79938068884103
H           -5.66130038117666       -0.26854842365452       -3.04178303313267
H           -4.89111422704034       -3.71564674087542        2.40834046301262
H           -5.29620290751493       -4.96786950218336        1.20798495454530
H           -3.61571064160262       -4.39792346642619        1.35806752272112
H           -3.07728807315549       -2.21739173282886        2.10351061692876
H           -2.15116468128553        0.02370040675000        2.01196480082155
H           -3.02822018226063        2.40120346901328       -1.88298896317846
H           -1.64408020001077        3.24811908898419       -1.19459307544905
H           -1.80876046412817        0.23617660159430       -1.62369705996587
H           -1.02374231440963        1.38068751244539       -2.72323233120518
H           -0.68300656223368        1.64857613042927        0.65282921481862
H            0.64027245479330        1.99347459205366       -0.93836531019338
H            2.11030731703966       -0.67187372011636        0.72780111077554
H            2.28734463122591        0.97802083804960        0.10621087050393
H            2.75547985469268        0.05545988368854       -2.17096417605113
H            2.67465076745625       -1.58401895211192       -1.50818296953921
H            4.60969552988133        1.55638974081431       -1.56876957345139
H            6.91412950624941        1.76409938662811       -0.80515707622246
H            8.71216253563403        1.79471819957093        0.84297926891716
H            9.21263564272846        1.16355490878257       -0.74240904617880
H           10.07748961952105        0.68136163619322        0.75132229741911
H            7.06473559103813       -4.21881829151422        1.66678955637749
H            5.44430587365135       -3.49539535482156        1.80985283728022
H            6.02690468625154       -4.08684142779716        0.22609814084185
H            4.40231032278000       -2.39420448421010        0.00667161653608
H           -0.23308653317989       -1.62071737379116       -1.67242185004390
H           -1.02933359530386       -1.24867458417521       -0.12742457320835
H            0.54452005279148       -2.06486971957872       -0.14040423571857
H           -4.64388476135780        2.95490117703767       -0.18025644192503
H           -3.76527798509039        2.90236921904881        2.73399381977254
H           -4.87747763124591        1.75458296736959        1.98043150761374
H           -5.32893824049923        3.45504333408520        2.12374819702431
H           -2.60725551159736        4.68898698878164        1.27804611731352
H           -3.04218615052026        4.81607640759284       -0.43378678865922
H           -4.23210982767297        5.18119998970342        0.80724425028694
H           -0.59078077196400        2.76807401561864        2.71992010064462
72
 energy: -103.315752881545 gnorm: 0.011806069569 xtb: 6.6.1 (8d0f1dd)
N           -1.50891008139478        2.77933533308132        2.24206670672666
C           -1.55706075952952        2.15419483890609        1.15298668927146
C           -2.74885898058554        2.06069479041956        0.24789058453054
C           -3.31617867855900        0.64874639243828        0.32796836843904
C           -4.30286844762076        0.24679312509079       -0.57482522011201
C           -4.84883734468402       -1.02090952502631       -0.53008758640109
O           -5.81693334091400       -1.48828996660314       -1.36712589197012
C           -6.38946803264538       -0.60727461287570       -2.29963851818588
C           -4.40084916770434       -1.94071915063412        0.44506356341964
O           -4.99411413407728       -3.16644795228552        0.41001415723560
C           -4.66688057688996       -4.09950455378128        1.40764981478751
C           -3.42828827010216       -1.54117323034089        1.34066836550653
C           -2.89267565826612       -0.25905891684786        1.28197359809741
C           -2.19447295289393        2.30669190436491       -1.17870106760077
C           -1.26959174372473        1.18022493193749       -1.66673421409071
C            0.00011654055220        1.12621642325310       -0.89977578688128
N            0.62846079116995       -0.05518051351381       -0.57182191518217
C            1.99734622122414       -0.04179239823600       -0.16986654964988
C            2.93415596826876       -0.55195617861484       -1.28583475497632
C            4.35743712632181       -0.43707353656254       -0.84064627691269
C            5.07296537731677        0.72736992157385       -1.04788758047025
C            6.38502470932336        0.84463600971408       -0.60912611602172
C            7.00462615957703       -0.19938623609641        0.05547103839114
O            8.29138135304887       -0.21146239417436        0.51955200422822
C            9.10929244983605        0.91453866894158        0.31814532634900
C            6.27408227931568       -1.39150042783761        0.28091089949625
O            6.95716860103861       -2.37154441285117        0.93558396442101
C            6.32284454354006       -3.60319961293425        1.16401122760364
C            4.96904102316415       -1.49134494839892       -0.16164662067155
C           -0.06150998239455       -1.30927993343487       -0.63625175448345
C           -3.87350770187116        3.07658028059313        0.58612578250207
C           -4.50302429433109        2.77448344319935        1.94501854912391
C           -3.40032516129893        4.52911239899756        0.55130325501250
H           -4.65588322761538        0.94586206834155       -1.31544924718031
H           -6.84443837460882        0.26070912115980       -1.81051390094676
H           -7.16547735216632       -1.18320253651506       -2.80137487632975
H           -5.65883298176212       -0.26691280801851       -3.04168501010286
H           -4.89014509405513       -3.71616073313329        2.40894387774266
H           -5.29286241921218       -4.96754048907682        1.20735731965113
H           -3.61330991341052       -4.39556488853675        1.35799455616214
H           -3.07957345476850       -2.21639798751134        2.10667261706897
H           -2.15654942652622        0.02562887004787        2.01808865939925
H           -3.02502027897688        2.40051605168345       -1.87861210232349
H           -1.64325482806135        3.24887594442358       -1.18895542156092
H           -1.81280949195480        0.23566054392593       -1.62669680996983
H           -1.01523626320996        1.38181766229711       -2.71422774099323
H           -0.68828702855595        1.65177898943517        0.65941272851806
H            0.64598407235008        1.98519399333263       -0.94798080898458
H            2.10964146229775       -0.67524338782138        0.71609224982759
H            2.29688107802751        0.97559973903843        0.09910979161900
H            2.76461952369602        0.05117468184075       -2.17975213350872
H            2.68142166181494       -1.58832464674258       -1.51660473145884
H            4.61528160816477        1.55381709246103       -1.57187102448984
H            6.91573023401919        1.76308126377005       -0.80183968099888
H            8.71922202712762        1.78931317632018        0.83509361088244
H            9.20371835792056        1.16821738253125       -0.74390838311560
H           10.08589299055691        0.69585216070254        0.76229040301869
H            7.06421891413117       -4.22007115593182        1.66949052847933
H            5.44440120603109       -3.49501628780646        1.80981509916173
H            6.02914169162484       -4.08907566916745        0.22716082957170
H            4.40790770167398       -2.40003127193537       -0.00046747939195
H           -0.23391639161414       -1.62685990660065       -1.67061145192758
H           -1.02739448054073       -1.24472184963288       -0.12591252780980
H            0.54668067259523       -2.05987808512942       -0.13829829786816
H           -4.64681684485476        2.95492141271202       -0.18136430878795
H           -3.76912157644476        2.90273696518817        2.73377088289915
H           -4.88269501976721        1.75605849563183        1.98044712649812
H           -5.33027099322855        3.45686635324253        2.12435698866549
H           -2.60923721921584        4.68819278801169        1.27786106311031
H           -3.04355428645367        4.81604223672069       -0.43497005643867
H           -4.23213052758492        5.18161655223449        0.80649983197585
H           -0.61875753853830        2.77941246030567        2.73482363552675
72
 energy: -103.315907851766 gnorm: 0.007988492242 xtb: 6.6.1 (8d0f1dd)
N           -1.49676241198531        2.78311270288767        2.24015138884277
C           -1.55168936877146        2.15464860352776        1.15473944538589
C           -2.74571970530628        2.06051616152553        0.25011369151061
C           -3.31630641948623        0.64955548942898        0.32911546262076
C           -4.30155398844070        0.24722516052674       -0.57560526253413
C           -4.84740000790570       -1.02096769766829       -0.53135155492524
O           -5.81540012602313       -1.48842935979666       -1.36768580083416
C           -6.39012749940619       -0.60788116249989       -2.29899857702075
C           -4.39943051355603       -1.94099930028298        0.44363977441219
O           -4.99298424174648       -3.16612401686458        0.40897184519132
C           -4.66798754898566       -4.09930927229393        1.40721966180699
C           -3.42589896347822       -1.54176394263233        1.33856541164033
C           -2.89093666616899       -0.25920475437069        1.28094125748071
C           -2.19507594032679        2.30436721415571       -1.17898250363102
C           -1.26903624211498        1.18195397600802       -1.67520790702973
C            0.00163751657875        1.12435149755434       -0.90914627761337
N            0.62653195068503       -0.05331828762878       -0.57339758472561
C            1.99394600427062       -0.04174729961663       -0.16179090818673
C            2.93150151203590       -0.54940354221829       -1.27829582903063
C            4.35674806063913       -0.43450286433255       -0.83799110391946
C            5.07217292019120        0.72974392519834       -1.04708807473283
C            6.38414845447975        0.84637668046122       -0.60939009960135
C            7.00238346614127       -0.19848373773026        0.05449871073942
O            8.28694336964166       -0.21076189555656        0.51999161988725
C            9.10266012102971        0.91544868818188        0.31780089392561
C            6.27292637713824       -1.39054913153805        0.28123536927136
O            6.95614533644599       -2.37027371016945        0.93553250499201
C            6.32186719774334       -3.60187375820519        1.16334258252349
C            4.96786694538072       -1.48926633858334       -0.15965345176069
C           -0.06141583717866       -1.30949254182457       -0.63510996961818
C           -3.87239655848726        3.07601649916390        0.58588010627675
C           -4.50061102312692        2.77365196352894        1.94484785506212
C           -3.39926906353045        4.52799264771686        0.55207670511482
H           -4.65242439474292        0.94546931190365       -1.31791432437891
H           -6.84385094830147        0.25997992365930       -1.80863908774722
H           -7.16725511779808       -1.18363101737363       -2.79938783002184
H           -5.66057919959114       -0.26764636142499       -3.04205286013874
H           -4.89059821462757       -3.71463812082592        2.40808183866630
H           -5.29532074778702       -4.96675603601933        1.20807954727793
H           -3.61496094131393       -4.39706613621774        1.35792387715240
H           -3.07488585070945       -2.21795790120089        2.10228858454892
H           -2.14973696477164        0.02374149699237        2.01278802963150
H           -3.02798015715369        2.39892073006924       -1.87591962108978
H           -1.64515500770380        3.24676567647033       -1.19126595794766
H           -1.81138860428323        0.23828409712253       -1.63407701013426
H           -1.02536296463574        1.38640916730745       -2.72585185026526
H           -0.68742565077156        1.63995934638894        0.66319388023363
H            0.64863848089795        1.98306082762961       -0.96081532769409
H            2.10721162919000       -0.67646488810033        0.72413584291783
H            2.29252409598358        0.97505463826928        0.10857985872600
H            2.75854097074176        0.05478199931983       -2.17076392533152
H            2.67998927462020       -1.58614076405549       -1.50931490493220
H            4.61388866660030        1.55780775898016       -1.56814849717891
H            6.91557634205192        1.76474077579868       -0.80039097235525
H            8.71542283480851        1.78926814582612        0.83519720498221
H            9.20151126828445        1.16595895095787       -0.74451384237840
H           10.08120074540630        0.68814575233731        0.75706648129039
H            7.06305702506665       -4.22030420516812        1.66726383037984
H            5.44395079637163       -3.49349814886462        1.80973619994902
H            6.02688476110201       -4.08556139531011        0.22591929090233
H            4.40540505911113       -2.39627946690361        0.00643821643939
H           -0.23042547270801       -1.62713875298241       -1.66937952992390
H           -1.02861212861923       -1.24683177305058       -0.12729500503275
H            0.54476155644739       -2.06217361020985       -0.13649939014742
H           -4.64650637187368        2.95483182767886       -0.18111152980681
H           -3.76475244453470        2.90237240955023        2.73132910521842
H           -4.87850685317258        1.75465145660168        1.98018468158665
H           -5.32838242702744        3.45494380733860        2.12625298810850
H           -2.60795627500818        4.68474164590586        1.27872342531014
H           -3.04246162360745        4.81460118722299       -0.43405159394166
H           -4.23036859267935        5.18116759865767        0.80813804821841
H           -0.60638763652302        2.78228571292619        2.73372259450927
72
 energy: -103.315983848226 gnorm: 0.005894482757 xtb: 6.6.1 (8d0f1dd)
N           -1.49709782698469        2.78194784805475        2.24047034124388
C           -1.55388465352067        2.15243957188882        1.15589699237670
C           -2.74763208656224        2.06110858852396        0.24954665856855
C           -3.31697712317115        0.64938840249240        0.32751091905520
C           -4.30231440356264        0.24625868719220       -0.57662341576171
C           -4.84832953822105       -1.02199981001815       -0.53169090052008
O           -5.81668613579786       -1.48949186441644       -1.36787561133371
C           -6.39027799920239       -0.60869255537501       -2.29953201854289
C           -4.40084187804381       -1.94153372898924        0.44374284233026
O           -4.99403261050863       -3.16715923952661        0.40946354454951
C           -4.66793795379539       -4.10019761236700        1.40741309458291
C           -3.42837189485953       -1.54105678205420        1.33931950572507
C           -2.89284798352087       -0.25863827741603        1.28049448379584
C           -2.19568740062214        2.30579449374175       -1.17934336535617
C           -1.26751864368918        1.18293468839275       -1.67052257724614
C            0.00152562234514        1.12617793171738       -0.90102099910855
N            0.62769525706807       -0.05312585241874       -0.56834931968935
C            1.99674360541043       -0.04281262545192       -0.16327649645858
C            2.93268363863353       -0.55054036355436       -1.28186792040045