72
 energy: -99.693576943985 xtb: 6.6.1 (8d0f1dd)
N           -1.60450211035677        2.91224337325152        2.29150209017985
C           -1.60318357073619        2.17777538893639        1.26967759695199
C           -2.76174251191408        2.06982298436196        0.31467369307545
C           -3.32758593041086        0.65922548658327        0.37120855040415
C           -4.28264394348093        0.25560482307080       -0.56425983337222
C           -4.83560332479951       -1.01018754863046       -0.53224045426722
O           -5.78025635604191       -1.47703170794147       -1.39832588093608
C           -6.32594208634137       -0.59337528446416       -2.34313262521348
C           -4.42368089999532       -1.92807626805047        0.45913178741264
O           -5.01840104326037       -3.15442083251600        0.40546896802832
C           -4.71326979525891       -4.09178330713111        1.40494949825063
C           -3.48224747082008       -1.52672166295021        1.38765714419758
C           -2.94453286958846       -0.24507136625628        1.34426341029354
C           -2.19062620518218        2.35340529380880       -1.10175689389767
C           -1.34572351189683        1.21546393178012       -1.71223511055764
C           -0.03025880586330        1.07571182928754       -1.04489983477813
N            0.55396316548538       -0.13145430606866       -0.70307017163771
C            1.91252006054985       -0.15655562138825       -0.24316083276481
C            2.91871631487680       -0.66571183352482       -1.31103717710431
C            4.34920607211091       -0.47428069431402       -0.86809278751978
C            5.05434119518809        0.68978775020613       -1.12474645232437
C            6.38061725181409        0.86945234412673       -0.70877126909707
C            7.08859818900021       -0.11370446554346       -0.01722290911791
O            8.41880889242718       -0.18207041662143        0.41742776316191
C            9.46583355609235        0.80569842305094        0.31476450185935
C            6.33538749573673       -1.29571439411914        0.27952460010357
O            7.01605267489526       -2.23959742571033        0.98938877195351
C            6.40222481483395       -3.46647683710176        1.28630102692324
C            5.02061444866711       -1.45770486382707       -0.13775377078066
C           -0.16855213584678       -1.36721763509047       -0.81130821595002
C           -3.91578269793048        3.06604389216029        0.62254156993803
C           -4.57384423565793        2.76429736113480        1.96760007721911
C           -3.47285124696847        4.52744228393183        0.58711560392960
H           -4.59820122983479        0.95050256732468       -1.32505062062238
H           -6.78664504155777        0.27762476568544       -1.86460219936521
H           -7.09380760831028       -1.16341949382214       -2.86450838517883
H           -5.57580908564385       -0.25606314094827       -3.06687658616493
H           -4.96839350489915       -3.71817309214999        2.40253310652319
H           -5.32533104512923       -4.96446774548641        1.18081551396740
H           -3.65571128667889       -4.37824829792331        1.38549593308663
H           -3.15866579239884       -2.20045748814393        2.16559479630535
H           -2.23022421590476        0.04193112879672        2.10031758579753
H           -3.02252821599039        2.56864948128936       -1.77600873753857
H           -1.56773963050835        3.24826481898699       -1.04882270735164
H           -1.91114531683114        0.28542271530564       -1.67626720825304
H           -1.20099555626644        1.46627062246817       -2.77668623228297
H           -0.73679257581691        1.58996409689304        0.92388029793657
H            0.63779595146304        1.91934611608495       -1.06325609853314
H            1.98032085621614       -0.79902028543909        0.64309454630016
H            2.20420271008998        0.85645280281350        0.04426589078916
H            2.72451682194042       -0.11149508867714       -2.23250683644325
H            2.70882931031048       -1.72203921962107       -1.50551769330904
H            4.55618868628517        1.47769907768858       -1.67676683952532
H            6.83916484860178        1.81580486062442       -0.95519890989680
H            9.47618632969226        1.47121327301105        1.16694298049732
H            9.30665010188266        1.42072742060286       -0.57881048661204
H           10.55340432346418        0.45923393614054        0.49088050154507
H            7.15716634608311       -4.03405749942386        1.82858595550533
H            5.51887392266124       -3.34479197934567        1.92366843830885
H            6.12225284838503       -4.01562254461899        0.38067480334790
H            4.48740045419065       -2.37155493037126        0.08859711959500
H           -0.34863071127374       -1.64315544730467       -1.85761736679468
H           -1.13577431964555       -1.29903474090369       -0.30257219427862
H            0.40879857698712       -2.16038508900364       -0.33992400633197
H           -4.67125907824894        2.92380348982243       -0.15998458630945
H           -3.85588697421427        2.90841956086957        2.76765192155766
H           -4.93940754254552        1.74069253729349        2.00099896667436
H           -5.41484255505537        3.43631534897431        2.12472159511235
H           -2.70594745456774        4.70012487173685        1.33509827848943
H           -3.08915383228574        4.80755886323843       -0.39026079873973
H           -4.32392872265063        5.16752051572384        0.81018142590264
H           -0.74213924991229        2.90790461427539        2.83256173365298
