      -----------------------------------------------------------      
     |                   =====================                   |     
     |                           x T B                           |     
     |                   =====================                   |     
     |                         S. Grimme                         |     
     |          Mulliken Center for Theoretical Chemistry        |     
     |                    University of Bonn                     |     
      -----------------------------------------------------------      

   * xtb version 6.6.1 (8d0f1dd) compiled by 'conda@1efc2f54142f' on 2023-08-01

   xtb is free software: you can redistribute it and/or modify it under
   the terms of the GNU Lesser General Public License as published by
   the Free Software Foundation, either version 3 of the License, or
   (at your option) any later version.
   
   xtb is distributed in the hope that it will be useful,
   but WITHOUT ANY WARRANTY; without even the implied warranty of
   MERCHANTABILITY or FITNESS FOR A PARTICULAR PURPOSE.  See the
   GNU Lesser General Public License for more details.
   
   Cite this work as:
   * C. Bannwarth, E. Caldeweyher, S. Ehlert, A. Hansen, P. Pracht,
     J. Seibert, S. Spicher, S. Grimme, WIREs Comput. Mol. Sci., 2020, 11,
     e01493. DOI: 10.1002/wcms.1493
   
   for GFN2-xTB:
   * C. Bannwarth, S. Ehlert and S. Grimme., J. Chem. Theory Comput., 2019,
     15, 1652-1671. DOI: 10.1021/acs.jctc.8b01176
   for GFN1-xTB:
   * S. Grimme, C. Bannwarth, P. Shushkov, J. Chem. Theory Comput., 2017,
     13, 1989-2009. DOI: 10.1021/acs.jctc.7b00118
   for GFN0-xTB:
   * P. Pracht, E. Caldeweyher, S. Ehlert, S. Grimme, ChemRxiv, 2019, preprint.
     DOI: 10.26434/chemrxiv.8326202.v1
   for GFN-FF:
   * S. Spicher and S. Grimme, Angew. Chem. Int. Ed., 2020, 59, 15665-15673.
     DOI: 10.1002/anie.202004239
   
   for ALPB and GBSA implicit solvation:
   * S. Ehlert, M. Stahn, S. Spicher, S. Grimme, J. Chem. Theory Comput.,
     2021, 17, 4250-4261. DOI: 10.1021/acs.jctc.1c00471
   
   for DFT-D4:
   * E. Caldeweyher, C. Bannwarth and S. Grimme, J. Chem. Phys., 2017,
     147, 034112. DOI: 10.1063/1.4993215
   * E. Caldeweyher, S. Ehlert, A. Hansen, H. Neugebauer, S. Spicher,
     C. Bannwarth and S. Grimme, J. Chem. Phys., 2019, 150, 154122.
     DOI: 10.1063/1.5090222
   * E. Caldeweyher, J.-M. Mewes, S. Ehlert and S. Grimme, Phys. Chem. Chem. Phys.
     2020, 22, 8499-8512. DOI: 10.1039/D0CP00502A
   
   for sTDA-xTB:
   * S. Grimme and C. Bannwarth, J. Chem. Phys., 2016, 145, 054103.
     DOI: 10.1063/1.4959605
   
   in the mass-spec context:
   * V. Asgeirsson, C. Bauer and S. Grimme, Chem. Sci., 2017, 8, 4879.
     DOI: 10.1039/c7sc00601b
   * J. Koopman and S. Grimme, ACS Omega 2019, 4, 12, 15120-15133.
     DOI: 10.1021/acsomega.9b02011
   
   for metadynamics refer to:
   * S. Grimme, J. Chem. Theory Comput., 2019, 155, 2847-2862
     DOI: 10.1021/acs.jctc.9b00143
   
   for SPH calculations refer to:
   * S. Spicher and S. Grimme, J. Chem. Theory Comput., 2021, 17, 1701-1714
     DOI: 10.1021/acs.jctc.0c01306
   
   with help from (in alphabetical order)
   P. Atkinson, C. Bannwarth, F. Bohle, G. Brandenburg, E. Caldeweyher
   M. Checinski, S. Dohm, S. Ehlert, S. Ehrlich, I. Gerasimov, C. Hölzer
   A. Katbashev, J. Koopman, C. Lavigne, S. Lehtola, F. März, M. Müller,
   F. Musil, H. Neugebauer, J. Pisarek, C. Plett, P. Pracht, F. Pultar,
   J. Seibert, P. Shushkov, S. Spicher, M. Stahn, M. Steiner, T. Strunk,
   J. Stückrath, T. Rose, and J. Unsleber
   
 * started run on 2024/06/05 at 20:00:14.995     

           -------------------------------------------------
          |                Calculation Setup                |
           -------------------------------------------------

          program call               : xtb struc.xyz --opt loose --input .xc1 --gfn2
          hostname                   : n-62-12-66
          coordinate file            : struc.xyz
          omp threads                :                     1

   ID    Z sym.   atoms
    1    6 C      1, 3, 5-7, 10, 11, 14
    2    7 N      2, 4, 9, 13
    3    8 O      8, 12
    4    1 H      15-25
constraining bond 15 17 to    3.2800000 Å, actual value:    1.7729540 Å

           -------------------------------------------------
          |                 G F N 2 - x T B                 |
           -------------------------------------------------

        Reference                      10.1021/acs.jctc.8b01176
      * Hamiltonian:
        H0-scaling (s, p, d)           1.850000    2.230000    2.230000
        zeta-weighting                 0.500000
      * Dispersion:
        s8                             2.700000
        a1                             0.520000
        a2                             5.000000
        s9                             5.000000
      * Repulsion:
        kExp                           1.500000    1.000000
        rExp                           1.000000
      * Coulomb:
        alpha                          2.000000
        third order                    shell-resolved
        anisotropic                    true
        a3                             3.000000
        a5                             4.000000
        cn-shift                       1.200000
        cn-exp                         4.000000
        max-rad                        5.000000


          ...................................................
          :                      SETUP                      :
          :.................................................:
          :  # basis functions                  67          :
          :  # atomic orbitals                  67          :
          :  # shells                           39          :
          :  # electrons                        74          :
          :  max. iterations                   250          :
          :  Hamiltonian                  GFN2-xTB          :
          :  restarted?                      false          :
          :  GBSA solvation                  false          :
          :  PC potential                    false          :
          :  electronic temp.         5000.0000000     K    :
          :  accuracy                    1.0000000          :
          :  -> integral cutoff          0.2500000E+02      :
          :  -> integral neglect         0.1000000E-07      :
          :  -> SCF convergence          0.1000000E-05 Eh   :
          :  -> wf. convergence          0.1000000E-03 e    :
          :  Broyden damping             0.4000000          :
          ...................................................

 iter      E             dE          RMSdq      gap      omega  full diag
   1    -42.5894031 -0.425894E+02  0.445E+00    3.52       0.0  T
   2    -42.7683054 -0.178902E+00  0.251E+00    3.36       1.0  T
   3    -42.7759211 -0.761567E-02  0.147E+00    3.35       1.0  T
   4    -42.7728404  0.308066E-02  0.553E-01    3.33       1.0  T
   5    -42.7789548 -0.611444E-02  0.112E-01    3.35       1.0  T
   6    -42.7790473 -0.924914E-04  0.614E-02    3.33       1.0  T
   7    -42.7790721 -0.247928E-04  0.258E-02    3.34       1.0  T
   8    -42.7790772 -0.508996E-05  0.938E-03    3.34       2.1  T
   9    -42.7790779 -0.669422E-06  0.448E-03    3.34       4.5  T
  10    -42.7790780 -0.821510E-07  0.115E-03    3.34      17.4  T
  11    -42.7790780 -0.322663E-08  0.553E-04    3.34      36.2  T
  12    -42.7790780 -0.287051E-08  0.180E-04    3.34     111.1  T

   *** convergence criteria satisfied after 12 iterations ***

         #    Occupation            Energy/Eh            Energy/eV
      -------------------------------------------------------------
         1        2.0000           -0.9185990             -24.9964
       ...           ...                  ...                  ...
        31        1.9996           -0.6230278             -16.9534
        32        1.9995           -0.6194601             -16.8564
        33        1.9979           -0.5974976             -16.2587
        34        1.9932           -0.5789629             -15.7544
        35        1.9817           -0.5631863             -15.3251
        36        1.9779           -0.5602245             -15.2445
        37        1.9748           -0.5581234             -15.1873 (HOMO)
        38        0.0652           -0.4353579             -11.8467 (LUMO)
        39        0.0099           -0.4050467             -11.0219
        40        0.0013           -0.3732218             -10.1559
        41        0.0000           -0.2886859              -7.8555
        42                         -0.2065804              -5.6213
       ...                                ...                  ...
        67                          0.5625656              15.3082
      -------------------------------------------------------------
                  HL-Gap            0.1227656 Eh            3.3406 eV
             Fermi-level           -0.4890455 Eh          -13.3076 eV

 SCC (total)                   0 d,  0 h,  0 min,  0.039 sec
 SCC setup                      ...        0 min,  0.000 sec (  0.911%)
 Dispersion                     ...        0 min,  0.000 sec (  0.795%)
 classical contributions        ...        0 min,  0.000 sec (  0.271%)
 integral evaluation            ...        0 min,  0.007 sec ( 16.589%)
 iterations                     ...        0 min,  0.018 sec ( 46.104%)
 molecular gradient             ...        0 min,  0.014 sec ( 34.893%)
 printout                       ...        0 min,  0.000 sec (  0.416%)

         :::::::::::::::::::::::::::::::::::::::::::::::::::::
         ::                     SUMMARY                     ::
         :::::::::::::::::::::::::::::::::::::::::::::::::::::
         :: total energy             -38.192580209683 Eh    ::
         :: gradient norm              4.027538483897 Eh/a0 ::
         :: HOMO-LUMO gap              3.340621582928 eV    ::
         ::.................................................::
         :: SCC energy               -42.779077977399 Eh    ::
         :: -> isotropic ES            0.141123876439 Eh    ::
         :: -> anisotropic ES         -0.005230418907 Eh    ::
         :: -> anisotropic XC          0.011966818540 Eh    ::
         :: -> dispersion             -0.022657731803 Eh    ::
         :: repulsion energy           0.531105277918 Eh    ::
         :: add. restraining           4.055278330789 Eh    ::
         :: total charge               1.000000000002 e     ::
         :::::::::::::::::::::::::::::::::::::::::::::::::::::

      ----------------------------------------------------------- 
     |                   =====================                   |
     |                        A N C O P T                        |
     |                   =====================                   |
     |               Approximate Normal Coordinate               |
     |                Rational Function Optimizer                |
      ----------------------------------------------------------- 

          ...................................................
          :                      SETUP                      :
          :.................................................:
          :   optimization level             loose          :
          :   max. optcycles                   200          :
          :   ANC micro-cycles                  20          :
          :   degrees of freedom                69          :
          :.................................................:
          :   RF solver                   davidson          :
          :   write xtbopt.log                true          :
          :   linear?                        false          :
          :   energy convergence         0.5000000E-04 Eh   :
          :   grad. convergence          0.4000000E-02 Eh/α :
          :   maxmium RF displ.          1.0000000          :
          :   Hlow (freq-cutoff)         0.1000000E-01      :
          :   Hmax (freq-cutoff)         5.0000000          :
          :   S6 in model hess.         20.0000000          :
          ...................................................

generating ANC from model Hessian ...
Using Lindh-Hessian (1995)
 Shifting diagonal of input Hessian by    1.6298133972957762     
 Lowest  eigenvalues of input Hessian
    0.010000    0.082953    0.000000    0.000000    0.000000    0.000000
    0.000000    0.000000    1.633495    1.634863    1.635408    1.640237
    1.640405    1.641767    1.644081    1.648546    1.653398    1.659956
 Highest eigenvalues
    3.776779    3.853698    3.913833    3.998883    4.047887    4.171897


........................................................................
.............................. CYCLE    1 ..............................
........................................................................

 iter      E             dE          RMSdq      gap      omega  full diag
   1    -42.7790780 -0.427791E+02  0.626E-05    3.34       0.0  T
   2    -42.7790780 -0.124416E-10  0.329E-05    3.34     607.4  T
   3    -42.7790780  0.127898E-12  0.193E-05    3.34    1034.2  T
     SCC iter.                  ...        0 min,  0.004 sec
     gradient                   ...        0 min,  0.012 sec
 * total energy  :   -38.1925802 Eh     change       -0.6650680E-10 Eh
   gradient norm :     4.0275384 Eh/α   predicted     0.0000000E+00 (-100.00%)
   displ. norm   :     0.6262057 α      lambda       -0.2515773E+01
   maximum displ.:     0.5855032 α      in ANC's #67, #68, #51, ...

........................................................................
.............................. CYCLE    2 ..............................
........................................................................

 iter      E             dE          RMSdq      gap      omega  full diag
   1    -42.7164558 -0.427165E+02  0.580E-01    3.30       0.0  T
   2    -42.7167940 -0.338202E-03  0.327E-01    3.32       1.0  T
   3    -42.7167525  0.415600E-04  0.981E-02    3.31       1.0  T
   4    -42.7168178 -0.653066E-04  0.278E-02    3.33       1.0  T
   5    -42.7168323 -0.145779E-04  0.114E-02    3.32       1.7  T
   6    -42.7168329 -0.545709E-06  0.474E-03    3.32       4.2  T
   7    -42.7168331 -0.168685E-06  0.129E-03    3.32      15.5  T
   8    -42.7168331 -0.468005E-08  0.402E-04    3.32      49.7  T
   9    -42.7168331 -0.210679E-08  0.127E-04    3.32     157.8  T
     SCC iter.                  ...        0 min,  0.010 sec
     gradient                   ...        0 min,  0.010 sec
 * total energy  :   -40.2857734 Eh     change       -0.2093193E+01 Eh
   gradient norm :     2.6833549 Eh/α   predicted    -0.1752779E+01 ( -16.26%)
   displ. norm   :     0.6778886 α      lambda       -0.1816896E+01
   maximum displ.:     0.6333025 α      in ANC's #67, #68, #51, ...

........................................................................
.............................. CYCLE    3 ..............................
........................................................................

 iter      E             dE          RMSdq      gap      omega  full diag
   1    -42.6354436 -0.426354E+02  0.471E-01    3.22       0.0  T
   2    -42.6357060 -0.262402E-03  0.264E-01    3.25       1.0  T
   3    -42.6355426  0.163390E-03  0.130E-01    3.24       1.0  T
   4    -42.6357622 -0.219552E-03  0.273E-02    3.25       1.0  T
   5    -42.6357737 -0.115782E-04  0.993E-03    3.25       2.0  T
   6    -42.6357744 -0.698954E-06  0.561E-03    3.25       3.6  T
   7    -42.6357747 -0.283476E-06  0.228E-03    3.25       8.8  T
   8    -42.6357747 -0.102527E-07  0.373E-04    3.25      53.7  T
   9    -42.6357747 -0.102099E-08  0.159E-04    3.25     125.4  T
     SCC iter.                  ...        0 min,  0.008 sec
     gradient                   ...        0 min,  0.008 sec
 * total energy  :   -41.6350387 Eh     change       -0.1349265E+01 Eh
   gradient norm :     1.3094986 Eh/α   predicted    -0.1325944E+01 (  -1.73%)
   displ. norm   :     0.4908613 α      lambda       -0.6421339E+00
   maximum displ.:     0.4601976 α      in ANC's #67, #68, #65, ...

........................................................................
.............................. CYCLE    4 ..............................
........................................................................

 iter      E             dE          RMSdq      gap      omega  full diag
   1    -42.5778140 -0.425778E+02  0.264E-01    2.87       0.0  T
   2    -42.5781711 -0.357021E-03  0.159E-01    2.93       1.0  T
   3    -42.5781465  0.245897E-04  0.830E-02    2.92       1.0  T
   4    -42.5782308 -0.843058E-04  0.480E-02    2.92       1.0  T
   5    -42.5782526 -0.217933E-04  0.942E-03    2.93       2.1  T
   6    -42.5782541 -0.153251E-05  0.560E-03    2.92       3.6  T
   7    -42.5782545 -0.371999E-06  0.225E-03    2.92       8.9  T
   8    -42.5782545 -0.914648E-08  0.611E-04    2.92      32.7  T
   9    -42.5782545 -0.455638E-08  0.239E-04    2.92      83.8  T
     SCC iter.                  ...        0 min,  0.008 sec
     gradient                   ...        0 min,  0.008 sec
 * total energy  :   -42.0383600 Eh     change       -0.4033214E+00 Eh
   gradient norm :     0.3388955 Eh/α   predicted    -0.3984266E+00 (  -1.21%)
   displ. norm   :     0.1946246 α      lambda       -0.5729608E-01
   maximum displ.:     0.1572921 α      in ANC's #67, #1, #2, ...

........................................................................
.............................. CYCLE    5 ..............................
........................................................................

 iter      E             dE          RMSdq      gap      omega  full diag
   1    -42.5604941 -0.425605E+02  0.169E-01    2.68       0.0  T
   2    -42.5606045 -0.110345E-03  0.109E-01    2.69       1.0  T
   3    -42.5606516 -0.471445E-04  0.644E-02    2.71       1.0  T
   4    -42.5607298 -0.781181E-04  0.282E-02    2.69       1.0  T
   5    -42.5607353 -0.555677E-05  0.860E-03    2.71       2.3  T
   6    -42.5607370 -0.171159E-05  0.222E-03    2.70       9.0  T
   7    -42.5607371 -0.253260E-07  0.114E-03    2.70      17.5  T
   8    -42.5607371 -0.356656E-08  0.301E-04    2.70      66.4  T
   9    -42.5607371 -0.126622E-08  0.941E-05    2.70     212.6  T
     SCC iter.                  ...        0 min,  0.008 sec
     gradient                   ...        0 min,  0.008 sec
 * total energy  :   -42.0685494 Eh     change       -0.3018937E-01 Eh
   gradient norm :     0.0336501 Eh/α   predicted    -0.2973448E-01 (  -1.51%)
   displ. norm   :     0.4138349 α      lambda       -0.2897273E-02
   maximum displ.:     0.4094930 α      in ANC's #1, #2, #67, ...

........................................................................
.............................. CYCLE    6 ..............................
........................................................................

 iter      E             dE          RMSdq      gap      omega  full diag
   1    -42.5573833 -0.425574E+02  0.433E-01    2.55       0.0  T
   2    -42.5574828 -0.995192E-04  0.314E-01    2.47       1.0  T
   3    -42.5584294 -0.946568E-03  0.190E-01    2.60       1.0  T
   4    -42.5588865 -0.457112E-03  0.488E-02    2.53       1.0  T
   5    -42.5589169 -0.304193E-04  0.154E-02    2.55       1.3  T
   6    -42.5589221 -0.523327E-05  0.348E-03    2.55       5.8  T
   7    -42.5589222 -0.848805E-07  0.193E-03    2.55      10.4  T
   8    -42.5589222 -0.808883E-08  0.879E-04    2.55      22.7  T
   9    -42.5589222 -0.801202E-08  0.240E-04    2.55      83.3  T
     SCC iter.                  ...        0 min,  0.008 sec
     gradient                   ...        0 min,  0.008 sec
 * total energy  :   -42.0697759 Eh     change       -0.1226553E-02 Eh
   gradient norm :     0.0709373 Eh/α   predicted    -0.1720474E-02 (  40.27%)
   displ. norm   :     0.0981078 α      lambda       -0.2100267E-02
   maximum displ.:     0.0729990 α      in ANC's #2, #1, #67, ...

........................................................................
.............................. CYCLE    7 ..............................
........................................................................

 iter      E             dE          RMSdq      gap      omega  full diag
   1    -42.5609352 -0.425609E+02  0.914E-02    2.57       0.0  T
   2    -42.5609525 -0.172494E-04  0.591E-02    2.57       1.0  T
   3    -42.5609423  0.101828E-04  0.397E-02    2.55       1.0  T
   4    -42.5609681 -0.258369E-04  0.127E-02    2.57       1.6  T
   5    -42.5609720 -0.385582E-05  0.201E-03    2.57      10.0  T
   6    -42.5609720 -0.433381E-07  0.101E-03    2.57      19.8  T
   7    -42.5609720 -0.552659E-08  0.497E-04    2.57      40.3  T
   8    -42.5609720 -0.283557E-08  0.173E-04    2.57     115.3  T
     SCC iter.                  ...        0 min,  0.007 sec
     gradient                   ...        0 min,  0.008 sec
 * total energy  :   -42.0713473 Eh     change       -0.1571410E-02 Eh
   gradient norm :     0.0387502 Eh/α   predicted    -0.1060299E-02 ( -32.53%)
   displ. norm   :     0.3449733 α      lambda       -0.4288947E-02
   maximum displ.:     0.2844531 α      in ANC's #2, #1, #67, ...

........................................................................
.............................. CYCLE    8 ..............................
........................................................................

 iter      E             dE          RMSdq      gap      omega  full diag
   1    -42.5622722 -0.425623E+02  0.347E-01    2.44       0.0  T
   2    -42.5624830 -0.210759E-03  0.214E-01    2.37       1.0  T
   3    -42.5626728 -0.189800E-03  0.147E-01    2.48       1.0  T
   4    -42.5630752 -0.402429E-03  0.412E-02    2.42       1.0  T
   5    -42.5630929 -0.176548E-04  0.164E-02    2.44       1.2  T
   6    -42.5630978 -0.498511E-05  0.340E-03    2.43       5.9  T
   7    -42.5630980 -0.158740E-06  0.148E-03    2.43      13.5  T
   8    -42.5630980 -0.111945E-08  0.938E-04    2.43      21.3  T
   9    -42.5630980 -0.106270E-07  0.233E-04    2.43      85.8  T
     SCC iter.                  ...        0 min,  0.008 sec
     gradient                   ...        0 min,  0.008 sec
 * total energy  :   -42.0748327 Eh     change       -0.3485404E-02 Eh
   gradient norm :     0.0354299 Eh/α   predicted    -0.2399789E-02 ( -31.15%)
   displ. norm   :     0.5154851 α      lambda       -0.4796340E-02
   maximum displ.:     0.3718322 α      in ANC's #2, #1, #67, ...

........................................................................
.............................. CYCLE    9 ..............................
........................................................................

 iter      E             dE          RMSdq      gap      omega  full diag
   1    -42.5619138 -0.425619E+02  0.492E-01    2.21       0.0  T
   2    -42.5627571 -0.843337E-03  0.325E-01    2.05       1.0  T
   3    -42.5636478 -0.890700E-03  0.195E-01    2.25       1.0  T
   4    -42.5642057 -0.557882E-03  0.847E-02    2.14       1.0  T
   5    -42.5643258 -0.120077E-03  0.300E-02    2.19       1.0  T
   6    -42.5643397 -0.139303E-04  0.892E-03    2.18       2.2  T
   7    -42.5643408 -0.105045E-05  0.293E-03    2.18       6.8  T
   8    -42.5643409 -0.716567E-07  0.175E-03    2.18      11.4  T
   9    -42.5643409 -0.210601E-07  0.527E-04    2.18      38.0  T
  10    -42.5643409 -0.380106E-08  0.172E-04    2.18     116.5  T
     SCC iter.                  ...        0 min,  0.008 sec
     gradient                   ...        0 min,  0.008 sec
 * total energy  :   -42.0770951 Eh     change       -0.2262379E-02 Eh
   gradient norm :     0.1019347 Eh/α   predicted    -0.3035600E-02 (  34.18%)
   displ. norm   :     0.0836394 α      lambda       -0.5123635E-02
   maximum displ.:     0.0451893 α      in ANC's #67, #2, #1, ...

........................................................................
.............................. CYCLE   10 ..............................
........................................................................

 iter      E             dE          RMSdq      gap      omega  full diag
   1    -42.5692607 -0.425693E+02  0.846E-02    2.14       0.0  T
   2    -42.5692810 -0.203231E-04  0.428E-02    2.11       1.0  T
   3    -42.5692909 -0.991915E-05  0.377E-02    2.15       1.0  T
   4    -42.5693126 -0.217438E-04  0.130E-02    2.13       1.5  T
   5    -42.5693150 -0.231115E-05  0.434E-03    2.13       4.6  T
   6    -42.5693151 -0.138247E-06  0.208E-03    2.13       9.6  T
   7    -42.5693152 -0.853590E-07  0.820E-04    2.13      24.4  T
   8    -42.5693152 -0.399644E-08  0.352E-04    2.13      56.9  T
     SCC iter.                  ...        0 min,  0.007 sec
     gradient                   ...        0 min,  0.008 sec
 * total energy  :   -42.0808258 Eh     change       -0.3730700E-02 Eh
   gradient norm :     0.0591773 Eh/α   predicted    -0.2579795E-02 ( -30.85%)
   displ. norm   :     0.4737909 α      lambda       -0.7989791E-02
   maximum displ.:     0.3458966 α      in ANC's #1, #2, #67, ...

........................................................................
.............................. CYCLE   11 ..............................
........................................................................

 iter      E             dE          RMSdq      gap      omega  full diag
   1    -42.5777762 -0.425778E+02  0.443E-01    1.88       0.0  T
   2    -42.5787636 -0.987454E-03  0.261E-01    1.75       1.0  T
   3    -42.5787941 -0.304141E-04  0.175E-01    1.94       1.0  T
   4    -42.5791934 -0.399379E-03  0.997E-02    1.81       1.0  T
   5    -42.5794376 -0.244185E-03  0.307E-02    1.86       1.0  T
   6    -42.5794473 -0.963162E-05  0.141E-02    1.86       1.4  T
   7    -42.5794503 -0.306904E-05  0.419E-03    1.86       4.8  T
   8    -42.5794505 -0.147664E-06  0.220E-03    1.86       9.1  T
   9    -42.5794505 -0.190864E-07  0.575E-04    1.86      34.8  T
  10    -42.5794505 -0.589505E-08  0.219E-04    1.86      91.3  T
     SCC iter.                  ...        0 min,  0.009 sec
     gradient                   ...        0 min,  0.008 sec
 * total energy  :   -42.0884714 Eh     change       -0.7645576E-02 Eh
   gradient norm :     0.0854059 Eh/α   predicted    -0.4891682E-02 ( -36.02%)
   displ. norm   :     0.7862786 α      lambda       -0.1891720E-01
   maximum displ.:     0.5796047 α      in ANC's #1, #2, #67, ...

........................................................................
.............................. CYCLE   12 ..............................
........................................................................

 iter      E             dE          RMSdq      gap      omega  full diag
   1    -42.5978065 -0.425978E+02  0.720E-01    1.45       0.0  T
   2    -42.5976830  0.123498E-03  0.427E-01    1.69       1.0  T
   3    -42.5932164  0.446664E-02  0.496E-01    1.31       1.0  T
   4    -42.5996766 -0.646017E-02  0.127E-01    1.60       1.0  T
   5    -42.6000539 -0.377304E-03  0.337E-02    1.56       1.0  T
   6    -42.6000570 -0.307696E-05  0.215E-02    1.55       1.0  T
   7    -42.6000626 -0.560838E-05  0.807E-03    1.56       2.5  T
   8    -42.6000633 -0.776310E-06  0.376E-03    1.55       5.3  T
   9    -42.6000634 -0.104050E-06  0.200E-03    1.55      10.0  T
  10    -42.6000635 -0.304249E-07  0.586E-04    1.55      34.1  T
  11    -42.6000635 -0.785569E-09  0.263E-04    1.55      76.1  T
     SCC iter.                  ...        0 min,  0.009 sec
     gradient                   ...        0 min,  0.008 sec
 * total energy  :   -42.0997531 Eh     change       -0.1128171E-01 Eh
   gradient norm :     0.1421460 Eh/α   predicted    -0.1530641E-01 (  35.67%)
   displ. norm   :     0.4392523 α      lambda       -0.3919833E-01
   maximum displ.:     0.1857959 α      in ANC's #67, #2, #11, ...

........................................................................
.............................. CYCLE   13 ..............................
........................................................................

 iter      E             dE          RMSdq      gap      omega  full diag
   1    -42.6305578 -0.426306E+02  0.475E-01    1.29       0.0  T
   2    -42.6307132 -0.155435E-03  0.274E-01    1.39       1.0  T
   3    -42.6303998  0.313407E-03  0.237E-01    1.26       1.0  T
   4    -42.6307607 -0.360912E-03  0.127E-01    1.42       1.0  T
   5    -42.6313725 -0.611764E-03  0.177E-02    1.34       1.1  T
   6    -42.6313751 -0.262826E-05  0.864E-03    1.34       2.3  T
   7    -42.6313757 -0.659589E-06  0.340E-03    1.34       5.9  T
   8    -42.6313758 -0.501823E-07  0.175E-03    1.34      11.4  T
   9    -42.6313758 -0.291737E-07  0.585E-04    1.34      34.2  T
  10    -42.6313758 -0.424205E-08  0.229E-04    1.34      87.5  T
     SCC iter.                  ...        0 min,  0.008 sec
     gradient                   ...        0 min,  0.008 sec
 * total energy  :   -42.0982819 Eh     change        0.1471256E-02 Eh
   gradient norm :     0.3017181 Eh/α   predicted    -0.2338074E-01 (*******%)
   displ. norm   :     0.2114576 α      lambda       -0.3014259E-01
   maximum displ.:     0.1777248 α      in ANC's #2, #67, #51, ...

........................................................................
.............................. CYCLE   14 ..............................
........................................................................

 iter      E             dE          RMSdq      gap      omega  full diag
   1    -42.6242854 -0.426243E+02  0.165E-01    1.42       0.0  T
   2    -42.6243388 -0.533528E-04  0.100E-01    1.39       1.0  T
   3    -42.6243933 -0.545238E-04  0.699E-02    1.42       1.0  T
   4    -42.6244466 -0.532740E-04  0.136E-02    1.40       1.5  T
   5    -42.6244473 -0.747775E-06  0.109E-02    1.41       1.8  T
   6    -42.6244504 -0.313545E-05  0.522E-03    1.40       3.8  T
   7    -42.6244511 -0.652146E-06  0.160E-03    1.41      12.5  T
   8    -42.6244511 -0.116745E-07  0.741E-04    1.40      27.0  T
   9    -42.6244511 -0.509358E-08  0.222E-04    1.40      90.1  T
     SCC iter.                  ...        0 min,  0.007 sec
     gradient                   ...        0 min,  0.008 sec
 * total energy  :   -42.1171190 Eh     change       -0.1883710E-01 Eh
   gradient norm :     0.1381762 Eh/α   predicted    -0.1574716E-01 ( -16.40%)
   displ. norm   :     0.2710946 α      lambda       -0.1277825E-01
   maximum displ.:     0.2269424 α      in ANC's #2, #1, #52, ...

........................................................................
.............................. CYCLE   15 ..............................
........................................................................

 iter      E             dE          RMSdq      gap      omega  full diag
   1    -42.6286147 -0.426286E+02  0.220E-01    1.45       0.0  T
   2    -42.6286422 -0.275454E-04  0.130E-01    1.41       1.0  T
   3    -42.6283175  0.324709E-03  0.117E-01    1.49       1.0  T
   4    -42.6286400 -0.322484E-03  0.474E-02    1.41       1.0  T
   5    -42.6287131 -0.731061E-04  0.101E-02    1.43       2.0  T
   6    -42.6287152 -0.214631E-05  0.481E-03    1.43       4.2  T
   7    -42.6287154 -0.142706E-06  0.235E-03    1.43       8.5  T
   8    -42.6287155 -0.884155E-07  0.899E-04    1.43      22.2  T
   9    -42.6287155 -0.808785E-08  0.184E-04    1.43     108.6  T
     SCC iter.                  ...        0 min,  0.008 sec
     gradient                   ...        0 min,  0.008 sec
 * total energy  :   -42.1267697 Eh     change       -0.9650702E-02 Eh
   gradient norm :     0.1079953 Eh/α   predicted    -0.6858979E-02 ( -28.93%)
   displ. norm   :     0.3093033 α      lambda       -0.2150788E-01
   maximum displ.:     0.1765673 α      in ANC's #2, #52, #20, ...

........................................................................
.............................. CYCLE   16 ..............................
........................................................................

 iter      E             dE          RMSdq      gap      omega  full diag
   1    -42.6472829 -0.426473E+02  0.303E-01    1.30       0.0  T
   2    -42.6470849  0.198028E-03  0.196E-01    1.40       1.0  T
   3    -42.6459000  0.118484E-02  0.244E-01    1.22       1.0  T
   4    -42.6475619 -0.166193E-02  0.466E-02    1.34       1.0  T
   5    -42.6475979 -0.359431E-04  0.141E-02    1.33       1.4  T
   6    -42.6476009 -0.297007E-05  0.641E-03    1.33       3.1  T
   7    -42.6476013 -0.388472E-06  0.374E-03    1.33       5.4  T
   8    -42.6476015 -0.202633E-06  0.987E-04    1.33      20.3  T
   9    -42.6476015 -0.103373E-07  0.398E-04    1.33      50.2  T
     SCC iter.                  ...        0 min,  0.007 sec
     gradient                   ...        0 min,  0.008 sec
 * total energy  :   -42.1423726 Eh     change       -0.1560297E-01 Eh
   gradient norm :     0.1162256 Eh/α   predicted    -0.1178280E-01 ( -24.48%)
   displ. norm   :     0.4146472 α      lambda       -0.2587864E-01
   maximum displ.:     0.2369649 α      in ANC's #1, #2, #52, ...

........................................................................
.............................. CYCLE   17 ..............................
........................................................................

 iter      E             dE          RMSdq      gap      omega  full diag
   1    -42.6612142 -0.426612E+02  0.497E-01    1.23       0.0  T
   2    -42.6624696 -0.125534E-02  0.286E-01    1.20       1.0  T
   3    -42.6625766 -0.106996E-03  0.157E-01    1.22       1.0  T
   4    -42.6627239 -0.147310E-03  0.646E-02    1.20       1.0  T
   5    -42.6627841 -0.602644E-04  0.208E-02    1.22       1.0  T
   6    -42.6627914 -0.724471E-05  0.118E-02    1.21       1.7  T
   7    -42.6627938 -0.238365E-05  0.720E-03    1.21       2.8  T
   8    -42.6627951 -0.130831E-05  0.246E-03    1.21       8.1  T
   9    -42.6627951 -0.669223E-07  0.684E-04    1.21      29.2  T
  10    -42.6627951 -0.522954E-08  0.338E-04    1.21      59.1  T
     SCC iter.                  ...        0 min,  0.008 sec
     gradient                   ...        0 min,  0.008 sec
 * total energy  :   -42.1521717 Eh     change       -0.9799060E-02 Eh
   gradient norm :     0.1198898 Eh/α   predicted    -0.1516405E-01 (  54.75%)
   displ. norm   :     0.1019902 α      lambda       -0.5556975E-02
   maximum displ.:     0.0703967 α      in ANC's #1, #2, #68, ...

........................................................................
.............................. CYCLE   18 ..............................
........................................................................

 iter      E             dE          RMSdq      gap      omega  full diag
   1    -42.6657043 -0.426657E+02  0.190E-01    1.13       0.0  T
   2    -42.6648349  0.869407E-03  0.213E-01    1.31       1.0  T
   3    -42.6660176 -0.118278E-02  0.103E-01    1.16       1.0  T
   4    -42.6662098 -0.192120E-03  0.427E-02    1.20       1.0  T
   5    -42.6662392 -0.294513E-04  0.132E-02    1.20       1.5  T
   6    -42.6662415 -0.228497E-05  0.597E-03    1.20       3.3  T
   7    -42.6662420 -0.514979E-06  0.271E-03    1.20       7.4  T
   8    -42.6662421 -0.104623E-06  0.119E-03    1.20      16.7  T
   9    -42.6662421 -0.156513E-07  0.295E-04    1.20      67.7  T
  10    -42.6662421 -0.503107E-09  0.133E-04    1.20     150.0  T
     SCC iter.                  ...        0 min,  0.008 sec
     gradient                   ...        0 min,  0.008 sec
 * total energy  :   -42.1563165 Eh     change       -0.4144817E-02 Eh
   gradient norm :     0.0826120 Eh/α   predicted    -0.2807418E-02 ( -32.27%)
   displ. norm   :     0.1806653 α      lambda       -0.8954998E-02
   maximum displ.:     0.0887842 α      in ANC's #67, #2, #1, ...

........................................................................
.............................. CYCLE   19 ..............................
........................................................................

 iter      E             dE          RMSdq      gap      omega  full diag
   1    -42.6622271 -0.426622E+02  0.255E-01    1.09       0.0  T
   2    -42.6596788  0.254824E-02  0.350E-01    1.36       1.0  T
   3    -42.6632628 -0.358400E-02  0.110E-01    1.15       1.0  T
   4    -42.6633661 -0.103269E-03  0.524E-02    1.19       1.0  T
   5    -42.6634038 -0.377072E-04  0.151E-02    1.19       1.3  T
   6    -42.6634070 -0.320098E-05  0.712E-03    1.18       2.8  T
   7    -42.6634074 -0.434209E-06  0.415E-03    1.18       4.8  T
   8    -42.6634077 -0.295169E-06  0.148E-03    1.18      13.5  T
   9    -42.6634078 -0.257276E-07  0.324E-04    1.18      61.7  T
  10    -42.6634078 -0.687649E-09  0.155E-04    1.18     129.2  T
     SCC iter.                  ...        0 min,  0.008 sec
     gradient                   ...        0 min,  0.008 sec
 * total energy  :   -42.1607950 Eh     change       -0.4478462E-02 Eh
   gradient norm :     0.0523575 Eh/α   predicted    -0.4624269E-02 (   3.26%)
   displ. norm   :     0.2178627 α      lambda       -0.9062990E-02
   maximum displ.:     0.1103268 α      in ANC's #52, #11, #1, ...

........................................................................
.............................. CYCLE   20 ..............................
........................................................................

 iter      E             dE          RMSdq      gap      omega  full diag
   1    -42.6721461 -0.426721E+02  0.528E-01    0.94       0.0  T
   2    -42.6561352  0.160109E-01  0.834E-01    1.57       1.0  T
   3    -42.6781393 -0.220041E-01  0.156E-01    1.11       1.0  T
   4    -42.6781981 -0.588859E-04  0.822E-02    1.12       1.0  T
   5    -42.6783129 -0.114784E-03  0.239E-02    1.13       1.0  T
   6    -42.6783187 -0.581593E-05  0.124E-02    1.13       1.6  T
   7    -42.6783212 -0.244829E-05  0.598E-03    1.13       3.3  T
   8    -42.6783216 -0.441124E-06  0.182E-03    1.13      11.0  T
   9    -42.6783217 -0.187008E-07  0.852E-04    1.13      23.5  T
  10    -42.6783217 -0.866912E-08  0.304E-04    1.13      65.8  T
     SCC iter.                  ...        0 min,  0.008 sec
     gradient                   ...        0 min,  0.008 sec
 * total energy  :   -42.1630987 Eh     change       -0.2303733E-02 Eh
   gradient norm :     0.0779935 Eh/α   predicted    -0.4746506E-02 ( 106.04%)
   displ. norm   :     0.1437544 α      lambda       -0.4617936E-02
   maximum displ.:     0.0868276 α      in ANC's #1, #2, #67, ...
 * RMSD in coord.:     0.5791133 α      energy gain  -0.3970518E+01 Eh

generating ANC from model Hessian ...
Using Lindh-Hessian (1995)
 Shifting diagonal of input Hessian by    6.9003495541006422E-003
 Lowest  eigenvalues of input Hessian
    0.000000    0.000000    0.000000    0.000000    0.000000    0.000000
    0.010000    0.010527    0.012153    0.016407    0.017254    0.018266
    0.018541    0.023113    0.025061    0.028002    0.036754    0.039989
 Highest eigenvalues
    2.150438    2.173718    2.241464    2.295613    2.507689    2.587319


........................................................................
.............................. CYCLE   21 ..............................
........................................................................

 iter      E             dE          RMSdq      gap      omega  full diag
   1    -42.6724323 -0.426724E+02  0.148E-01    1.15       0.0  T
   2    -42.6719837  0.448603E-03  0.163E-01    1.05       1.0  T
   3    -42.6725313 -0.547618E-03  0.845E-02    1.14       1.0  T
   4    -42.6726532 -0.121896E-03  0.362E-02    1.10       1.0  T
   5    -42.6726784 -0.251728E-04  0.105E-02    1.11       1.9  T
   6    -42.6726800 -0.160821E-05  0.450E-03    1.11       4.4  T
   7    -42.6726804 -0.383700E-06  0.177E-03    1.11      11.3  T
   8    -42.6726804 -0.228925E-07  0.826E-04    1.11      24.2  T
   9    -42.6726804 -0.457088E-08  0.275E-04    1.11      72.6  T
     SCC iter.                  ...        0 min,  0.007 sec
     gradient                   ...        0 min,  0.008 sec
 * total energy  :   -42.1659832 Eh     change       -0.2884515E-02 Eh
   gradient norm :     0.0417826 Eh/α   predicted     0.0000000E+00 (-100.00%)
   displ. norm   :     0.4605597 α      lambda       -0.9948159E-02
   maximum displ.:     0.2599874 α      in ANC's #6, #12, #4, ...

........................................................................
.............................. CYCLE   22 ..............................
........................................................................

 iter      E             dE          RMSdq      gap      omega  full diag
   1    -42.6817553 -0.426818E+02  0.308E-01    1.15       0.0  T
   2    -42.6802521  0.150312E-02  0.281E-01    1.28       1.0  T
   3    -42.6814079 -0.115572E-02  0.219E-01    1.11       1.0  T
   4    -42.6822535 -0.845645E-03  0.765E-02    1.21       1.0  T
   5    -42.6823863 -0.132786E-03  0.138E-02    1.18       1.4  T
   6    -42.6823906 -0.432523E-05  0.473E-03    1.18       4.2  T
   7    -42.6823907 -0.679972E-07  0.244E-03    1.18       8.2  T
   8    -42.6823908 -0.879191E-07  0.614E-04    1.18      32.6  T
   9    -42.6823908 -0.197262E-08  0.257E-04    1.18      77.8  T
     SCC iter.                  ...        0 min,  0.007 sec
     gradient                   ...        0 min,  0.008 sec
 * total energy  :   -42.1742270 Eh     change       -0.8243805E-02 Eh
   gradient norm :     0.0296942 Eh/α   predicted    -0.6029614E-02 ( -26.86%)
   displ. norm   :     0.6475695 α      lambda       -0.9809910E-02
   maximum displ.:     0.4068219 α      in ANC's #6, #4, #12, ...

........................................................................
.............................. CYCLE   23 ..............................
........................................................................

 iter      E             dE          RMSdq      gap      omega  full diag
   1    -42.6868017 -0.426868E+02  0.491E-01    1.28       0.0  T
   2    -42.6831240  0.367773E-02  0.447E-01    1.44       1.0  T
   3    -42.6870502 -0.392622E-02  0.315E-01    1.23       1.0  T
   4    -42.6885029 -0.145270E-02  0.127E-01    1.35       1.0  T
   5    -42.6888457 -0.342828E-03  0.241E-02    1.30       1.0  T
   6    -42.6888604 -0.146251E-04  0.642E-03    1.31       3.1  T
   7    -42.6888605 -0.100898E-06  0.368E-03    1.31       5.4  T
   8    -42.6888607 -0.184430E-06  0.830E-04    1.31      24.1  T
   9    -42.6888607 -0.518001E-08  0.329E-04    1.31      60.8  T
     SCC iter.                  ...        0 min,  0.007 sec
     gradient                   ...        0 min,  0.008 sec
 * total energy  :   -42.1805776 Eh     change       -0.6350585E-02 Eh
   gradient norm :     0.0463013 Eh/α   predicted    -0.6961833E-02 (   9.63%)
   displ. norm   :     0.3617524 α      lambda       -0.4635331E-02
   maximum displ.:     0.2010362 α      in ANC's #6, #1, #12, ...

........................................................................
.............................. CYCLE   24 ..............................
........................................................................

 iter      E             dE          RMSdq      gap      omega  full diag
   1    -42.6970449 -0.426970E+02  0.200E-01    1.36       0.0  T
   2    -42.6964056  0.639246E-03  0.211E-01    1.41       1.0  T
   3    -42.6973937 -0.988115E-03  0.915E-02    1.35       1.0  T
   4    -42.6974507 -0.569719E-04  0.579E-02    1.40       1.0  T
   5    -42.6975182 -0.675424E-04  0.123E-02    1.37       1.6  T
   6    -42.6975215 -0.322429E-05  0.492E-03    1.37       4.1  T
   7    -42.6975217 -0.222595E-06  0.213E-03    1.37       9.4  T
   8    -42.6975218 -0.696196E-07  0.515E-04    1.37      38.8  T
   9    -42.6975218 -0.880576E-09  0.206E-04    1.37      97.0  T
     SCC iter.                  ...        0 min,  0.007 sec
     gradient                   ...        0 min,  0.008 sec
 * total energy  :   -42.1839279 Eh     change       -0.3350314E-02 Eh
   gradient norm :     0.0340006 Eh/α   predicted    -0.2621091E-02 ( -21.77%)
   displ. norm   :     0.4216614 α      lambda       -0.3990083E-02
   maximum displ.:     0.2879981 α      in ANC's #6, #4, #1, ...

........................................................................
.............................. CYCLE   25 ..............................
........................................................................

 iter      E             dE          RMSdq      gap      omega  full diag
   1    -42.7020330 -0.427020E+02  0.317E-01    1.44       0.0  T
   2    -42.7002755  0.175741E-02  0.316E-01    1.53       1.0  T
   3    -42.7027684 -0.249283E-02  0.161E-01    1.42       1.0  T
   4    -42.7030404 -0.272066E-03  0.684E-02    1.48       1.0  T
   5    -42.7031432 -0.102745E-03  0.120E-02    1.45       1.7  T
   6    -42.7031464 -0.316824E-05  0.342E-03    1.46       5.8  T
   7    -42.7031464 -0.373749E-07  0.151E-03    1.46      13.2  T
   8    -42.7031464 -0.250606E-07  0.501E-04    1.46      39.9  T
   9    -42.7031464 -0.141716E-08  0.276E-04    1.46      72.6  T
     SCC iter.                  ...        0 min,  0.007 sec
     gradient                   ...        0 min,  0.008 sec
 * total energy  :   -42.1868602 Eh     change       -0.2932245E-02 Eh
   gradient norm :     0.0365108 Eh/α   predicted    -0.2349757E-02 ( -19.86%)
   displ. norm   :     0.3170026 α      lambda       -0.3948454E-02
   maximum displ.:     0.1758883 α      in ANC's #6, #1, #50, ...

........................................................................
.............................. CYCLE   26 ..............................
........................................................................

 iter      E             dE          RMSdq      gap      omega  full diag
   1    -42.7149579 -0.427150E+02  0.264E-01    1.50       0.0  T
   2    -42.7138128  0.114519E-02  0.279E-01    1.58       1.0  T
   3    -42.7155918 -0.177900E-02  0.114E-01    1.50       1.0  T
   4    -42.7156764 -0.846341E-04  0.518E-02    1.55       1.0  T
   5    -42.7157376 -0.612114E-04  0.112E-02    1.52       1.8  T
   6    -42.7157388 -0.123613E-05  0.596E-03    1.53       3.4  T
   7    -42.7157393 -0.454578E-06  0.145E-03    1.52      13.8  T
   8    -42.7157393 -0.210102E-07  0.461E-04    1.52      43.4  T
   9    -42.7157393 -0.841403E-09  0.197E-04    1.52     101.3  T
     SCC iter.                  ...        0 min,  0.007 sec
     gradient                   ...        0 min,  0.008 sec
 * total energy  :   -42.1888029 Eh     change       -0.1942759E-02 Eh
   gradient norm :     0.0217897 Eh/α   predicted    -0.2172691E-02 (  11.84%)
   displ. norm   :     0.4085705 α      lambda       -0.2767268E-02
   maximum displ.:     0.2559718 α      in ANC's #6, #4, #2, ...

........................................................................
.............................. CYCLE   27 ..............................
........................................................................

 iter      E             dE          RMSdq      gap      omega  full diag
   1    -42.7094106 -0.427094E+02  0.372E-01    1.53       0.0  T
   2    -42.7077110  0.169956E-02  0.309E-01    1.64       1.0  T
   3    -42.7098608 -0.214972E-02  0.221E-01    1.53       1.0  T
   4    -42.7105046 -0.643789E-03  0.380E-02    1.58       1.0  T
   5    -42.7105366 -0.320768E-04  0.981E-03    1.56       2.0  T
   6    -42.7105384 -0.172622E-05  0.371E-03    1.56       5.4  T
   7    -42.7105384 -0.708631E-07  0.179E-03    1.56      11.2  T
   8    -42.7105385 -0.364444E-07  0.450E-04    1.56      44.5  T
   9    -42.7105385 -0.225281E-08  0.168E-04    1.56     119.3  T
     SCC iter.                  ...        0 min,  0.007 sec
     gradient                   ...        0 min,  0.008 sec
 * total energy  :   -42.1892341 Eh     change       -0.4312160E-03 Eh
   gradient norm :     0.0466900 Eh/α   predicted    -0.1614603E-02 ( 274.43%)
   displ. norm   :     0.1554560 α      lambda       -0.2051456E-02
   maximum displ.:     0.1060137 α      in ANC's #6, #4, #19, ...

........................................................................
.............................. CYCLE   28 ..............................
........................................................................

 iter      E             dE          RMSdq      gap      omega  full diag
   1    -42.7137824 -0.427138E+02  0.137E-01    1.54       0.0  T
   2    -42.7135564  0.226009E-03  0.119E-01    1.51       1.0  T
   3    -42.7138647 -0.308290E-03  0.783E-02    1.55       1.0  T
   4    -42.7139324 -0.677313E-04  0.259E-02    1.52       1.0  T
   5    -42.7139457 -0.133608E-04  0.819E-03    1.54       2.4  T
   6    -42.7139472 -0.145656E-05  0.253E-03    1.53       7.9  T
   7    -42.7139473 -0.522686E-07  0.962E-04    1.53      20.8  T
   8    -42.7139473 -0.114627E-07  0.233E-04    1.53      86.0  T
     SCC iter.                  ...        0 min,  0.007 sec
     gradient                   ...        0 min,  0.008 sec
 * total energy  :   -42.1904150 Eh     change       -0.1180905E-02 Eh
   gradient norm :     0.0168703 Eh/α   predicted    -0.1050518E-02 ( -11.04%)
   displ. norm   :     0.1170521 α      lambda       -0.6775239E-03
   maximum displ.:     0.0516168 α      in ANC's #2, #8, #1, ...

........................................................................
.............................. CYCLE   29 ..............................
........................................................................

 iter      E             dE          RMSdq      gap      omega  full diag
   1    -42.7158335 -0.427158E+02  0.794E-02    1.52       0.0  T
   2    -42.7157948  0.387548E-04  0.594E-02    1.55       1.0  T
   3    -42.7158193 -0.245110E-04  0.515E-02    1.52       1.0  T
   4    -42.7158624 -0.430640E-04  0.586E-03    1.53       3.4  T
   5    -42.7158627 -0.386980E-06  0.301E-03    1.53       6.6  T
   6    -42.7158629 -0.159817E-06  0.147E-03    1.53      13.6  T
   7    -42.7158629 -0.147673E-07  0.616E-04    1.53      32.5  T
   8    -42.7158629 -0.581479E-08  0.177E-04    1.53     112.8  T
     SCC iter.                  ...        0 min,  0.007 sec
     gradient                   ...        0 min,  0.008 sec
 * total energy  :   -42.1909494 Eh     change       -0.5343123E-03 Eh
   gradient norm :     0.0093432 Eh/α   predicted    -0.3434177E-03 ( -35.73%)
   displ. norm   :     0.2284155 α      lambda       -0.8863932E-03
   maximum displ.:     0.1003002 α      in ANC's #2, #8, #4, ...

........................................................................
.............................. CYCLE   30 ..............................
........................................................................

 iter      E             dE          RMSdq      gap      omega  full diag
   1    -42.7165117 -0.427165E+02  0.187E-01    1.51       0.0  T
   2    -42.7162217  0.289964E-03  0.144E-01    1.57       1.0  T
   3    -42.7165044 -0.282730E-03  0.119E-01    1.51       1.0  T
   4    -42.7167039 -0.199505E-03  0.140E-02    1.54       1.4  T
   5    -42.7167069 -0.291957E-05  0.665E-03    1.53       3.0  T
   6    -42.7167079 -0.105412E-05  0.201E-03    1.53       9.9  T
   7    -42.7167079 -0.132616E-07  0.998E-04    1.53      20.0  T
   8    -42.7167079 -0.105971E-07  0.323E-04    1.53      61.8  T
     SCC iter.                  ...        0 min,  0.007 sec
     gradient                   ...        0 min,  0.008 sec
 * total energy  :   -42.1915239 Eh     change       -0.5745865E-03 Eh
   gradient norm :     0.0094328 Eh/α   predicted    -0.4663232E-03 ( -18.84%)
   displ. norm   :     0.1490740 α      lambda       -0.2988983E-03
   maximum displ.:     0.0957405 α      in ANC's #2, #4, #8, ...

........................................................................
.............................. CYCLE   31 ..............................
........................................................................

 iter      E             dE          RMSdq      gap      omega  full diag
   1    -42.7168713 -0.427169E+02  0.105E-01    1.53       0.0  T
   2    -42.7168034  0.678696E-04  0.757E-02    1.55       1.0  T
   3    -42.7168533 -0.498956E-04  0.681E-02    1.53       1.0  T
   4    -42.7169162 -0.628751E-04  0.123E-02    1.54       1.6  T
   5    -42.7169203 -0.412263E-05  0.289E-03    1.54       6.9  T
   6    -42.7169205 -0.151532E-06  0.110E-03    1.54      18.2  T
   7    -42.7169205 -0.216595E-08  0.514E-04    1.54      38.9  T
   8    -42.7169205 -0.354508E-08  0.166E-04    1.54     120.6  T
     SCC iter.                  ...        0 min,  0.007 sec
     gradient                   ...        0 min,  0.008 sec
 * total energy  :   -42.1916846 Eh     change       -0.1606138E-03 Eh
   gradient norm :     0.0175363 Eh/α   predicted    -0.1527713E-03 (  -4.88%)
   displ. norm   :     0.1945371 α      lambda       -0.5019806E-03
   maximum displ.:     0.1156142 α      in ANC's #4, #8, #50, ...

........................................................................
.............................. CYCLE   32 ..............................
........................................................................

 iter      E             dE          RMSdq      gap      omega  full diag
   1    -42.7167477 -0.427167E+02  0.160E-01    1.55       0.0  T
   2    -42.7165867  0.160915E-03  0.122E-01    1.57       1.0  T
   3    -42.7167738 -0.187076E-03  0.952E-02    1.54       1.0  T
   4    -42.7168712 -0.973581E-04  0.260E-02    1.57       1.0  T
   5    -42.7168898 -0.186087E-04  0.495E-03    1.55       4.0  T
   6    -42.7168903 -0.550875E-06  0.162E-03    1.55      12.4  T
   7    -42.7168903 -0.889281E-08  0.568E-04    1.55      35.2  T
   8    -42.7168903 -0.317009E-08  0.233E-04    1.55      85.8  T
     SCC iter.                  ...        0 min,  0.007 sec
     gradient                   ...        0 min,  0.008 sec
 * total energy  :   -42.1916336 Eh     change        0.5100723E-04 Eh
   gradient norm :     0.0228339 Eh/α   predicted    -0.2604940E-03 (-610.70%)
   displ. norm   :     0.1000939 α      lambda       -0.5185831E-03
   maximum displ.:     0.0532652 α      in ANC's #4, #8, #1, ...

........................................................................
.............................. CYCLE   33 ..............................
........................................................................

 iter      E             dE          RMSdq      gap      omega  full diag
   1    -42.7185349 -0.427185E+02  0.650E-02    1.55       0.0  T
   2    -42.7185115  0.233579E-04  0.458E-02    1.54       1.0  T
   3    -42.7185300 -0.184377E-04  0.427E-02    1.55       1.0  T
   4    -42.7185536 -0.236626E-04  0.875E-03    1.54       2.3  T
   5    -42.7185551 -0.141524E-05  0.360E-03    1.55       5.6  T
   6    -42.7185554 -0.328587E-06  0.833E-04    1.55      24.0  T
   7    -42.7185554 -0.226871E-08  0.385E-04    1.55      52.0  T
     SCC iter.                  ...        0 min,  0.006 sec
     gradient                   ...        0 min,  0.008 sec
 * total energy  :   -42.1919101 Eh     change       -0.2765418E-03 Eh
   gradient norm :     0.0042340 Eh/α   predicted    -0.2618944E-03 (  -5.30%)
   displ. norm   :     0.0739497 α      lambda       -0.9047081E-04
   maximum displ.:     0.0519083 α      in ANC's #1, #2, #4, ...

........................................................................
.............................. CYCLE   34 ..............................
........................................................................

 iter      E             dE          RMSdq      gap      omega  full diag
   1    -42.7181734 -0.427182E+02  0.251E-02    1.54       0.0  T
   2    -42.7181739 -0.446853E-06  0.152E-02    1.54       1.3  T
   3    -42.7181721  0.181023E-05  0.103E-02    1.54       1.9  T
   4    -42.7181742 -0.208038E-05  0.290E-03    1.54       6.9  T
   5    -42.7181743 -0.114351E-06  0.114E-03    1.54      17.6  T
   6    -42.7181743 -0.343350E-07  0.579E-04    1.54      34.5  T
   7    -42.7181743 -0.405142E-08  0.165E-04    1.54     121.2  T
     SCC iter.                  ...        0 min,  0.006 sec
     gradient                   ...        0 min,  0.008 sec
 * total energy  :   -42.1919762 Eh     change       -0.6613095E-04 Eh
   gradient norm :     0.0067311 Eh/α   predicted    -0.4548726E-04 ( -31.22%)
   displ. norm   :     0.1765976 α      lambda       -0.1361238E-03
   maximum displ.:     0.1425095 α      in ANC's #1, #2, #3, ...

........................................................................
.............................. CYCLE   35 ..............................
........................................................................

 iter      E             dE          RMSdq      gap      omega  full diag
   1    -42.7181884 -0.427182E+02  0.472E-02    1.54       0.0  T
   2    -42.7181895 -0.106091E-05  0.278E-02    1.54       1.0  T
   3    -42.7181832  0.628751E-05  0.185E-02    1.53       1.1  T
   4    -42.7181899 -0.674314E-05  0.486E-03    1.54       4.1  T
   5    -42.7181903 -0.377598E-06  0.224E-03    1.54       8.9  T
   6    -42.7181904 -0.123384E-06  0.795E-04    1.54      25.2  T
   7    -42.7181904 -0.410062E-08  0.249E-04    1.54      80.4  T
     SCC iter.                  ...        0 min,  0.006 sec
     gradient                   ...        0 min,  0.008 sec
 * total energy  :   -42.1920703 Eh     change       -0.9404769E-04 Eh
   gradient norm :     0.0077671 Eh/α   predicted    -0.7018595E-04 ( -25.37%)
   displ. norm   :     0.1509342 α      lambda       -0.7164116E-04
   maximum displ.:     0.1266285 α      in ANC's #1, #2, #5, ...

........................................................................
.............................. CYCLE   36 ..............................
........................................................................

 iter      E             dE          RMSdq      gap      omega  full diag
   1    -42.7179699 -0.427180E+02  0.420E-02    1.53       0.0  T
   2    -42.7179694  0.516730E-06  0.245E-02    1.54       1.0  T
   3    -42.7179540  0.153954E-04  0.261E-02    1.53       1.0  T
   4    -42.7179707 -0.167141E-04  0.143E-03    1.53      14.0  T
   5    -42.7179707 -0.132710E-07  0.938E-04    1.53      21.3  T
   6    -42.7179707 -0.697133E-08  0.455E-04    1.53      44.0  T
     SCC iter.                  ...        0 min,  0.005 sec
     gradient                   ...        0 min,  0.008 sec
 * total energy  :   -42.1921160 Eh     change       -0.4577234E-04 Eh
   gradient norm :     0.0058742 Eh/α   predicted    -0.3664187E-04 ( -19.95%)
   displ. norm   :     0.0808493 α      lambda       -0.3446250E-04
   maximum displ.:     0.0727552 α      in ANC's #1, #2, #5, ...

........................................................................
.............................. CYCLE   37 ..............................
........................................................................

 iter      E             dE          RMSdq      gap      omega  full diag
   1    -42.7181460 -0.427181E+02  0.220E-02    1.54       0.0  T
   2    -42.7181437  0.228295E-05  0.172E-02    1.53       1.2  T
   3    -42.7181449 -0.124570E-05  0.132E-02    1.54       1.5  T
   4    -42.7181476 -0.267012E-05  0.115E-03    1.53      17.5  T
   5    -42.7181476 -0.167794E-07  0.698E-04    1.53      28.7  T
   6    -42.7181476 -0.735682E-08  0.305E-04    1.53      65.5  T
     SCC iter.                  ...        0 min,  0.005 sec
     gradient                   ...        0 min,  0.008 sec
 * total energy  :   -42.1921356 Eh     change       -0.1956575E-04 Eh
   gradient norm :     0.0026354 Eh/α   predicted    -0.1734712E-04 ( -11.34%)
   displ. norm   :     0.0717136 α      lambda       -0.2773418E-04
   maximum displ.:     0.0586532 α      in ANC's #1, #2, #5, ...

   *** GEOMETRY OPTIMIZATION CONVERGED AFTER 37 ITERATIONS ***

------------------------------------------------------------------------
 total energy gain   :        -3.9995554 Eh    -2509.7589 kcal/mol
 total RMSD          :         0.8617581 a0        0.4560 Å
 total power (kW/mol):      -283.8062504 (step)********** (real)
------------------------------------------------------------------------

 ANCopt (total)                0 d,  0 h,  0 min,  0.737 sec
 optimizer setup                ...        0 min,  0.001 sec (  0.203%)
 model hessian                  ...        0 min,  0.011 sec (  1.555%)
 ANC generation                 ...        0 min,  0.001 sec (  0.192%)
 coordinate transformation      ...        0 min,  0.000 sec (  0.034%)
 single point calculation       ...        0 min,  0.714 sec ( 96.950%)
 optimization log               ...        0 min,  0.002 sec (  0.317%)
 hessian update                 ...        0 min,  0.000 sec (  0.055%)
 rational function              ...        0 min,  0.004 sec (  0.534%)

================
 final structure:
================
25
 xtb: 6.6.1 (8d0f1dd)
C            3.28831306905759        0.92784158646593       -0.04365992191019
N            2.37868287306638       -0.04492262551565        0.00483377289771
C            2.58722851780419       -1.37418434173147        0.13206909074608
N            1.38733379192774       -2.04262414376476        0.13641213829024
C            0.39682170542873       -1.14459493639086        0.01292282299110
C            0.99019811084992        0.12942318278487       -0.04972766657297
C            0.19163492564818        1.26579096667865       -0.01840485047380
O            0.63570201289823        2.51141117381444        0.07887125040138
N           -1.15561621054775        1.06438601398676       -0.05246101331638
C           -2.06926964698876        2.19790181986971       -0.05930981811767
C           -1.78050034191459       -0.19034234507760       -0.08095917422055
O           -2.97210758006321       -0.28841988730733       -0.13660916592086
N           -0.94650140326793       -1.31239157664246       -0.02029228196266
C           -1.54409609163319       -2.63354238074382       -0.00981905222764
H            4.31302477089697        0.68614063545341        0.12725448810291
H            3.05433089715950        1.88530831173395       -0.45952393671730
H            1.59612756297838        2.52421203788352        0.24799987096991
H            3.54304048457539       -1.84229862473099        0.21505173663752
H           -1.49723619515514        3.11963889674679       -0.06723955536533
H           -2.70658106340430        2.14054081274126       -0.94137774151837
H           -2.70715139024629        2.15760182260790        0.82339946950624
H           -1.30743711949084       -3.15190668608255        0.91995259427284
H           -1.19147527856310       -3.21483500716787       -0.86210522978345
H           -2.62321520605754       -2.50873399334344       -0.08324729595241
H            1.29918031914148       -3.04316217066834        0.21714108714364

 Bond Distances (Angstroems)
 ---------------------------
C1-N2=1.3327         C1-H15=1.0666        C1-H16=1.0698        N2-C1=1.3327         N2-C3=1.3515         N2-C6=1.4005         
C3-N2=1.3515         C3-N4=1.3735         C3-H18=1.0675        N4-C3=1.3735         N4-C5=1.3427         N4-H25=1.0077        
C5-N4=1.3427         C5-C6=1.4068         C5-N13=1.3542        C6-N2=1.4005         C6-C5=1.4068         C6-C7=1.3893         
C7-C6=1.3893         C7-O8=1.3260         C7-N9=1.3626         O8-C7=1.3260         O8-H17=0.9753        N9-C7=1.3626         
N9-C10=1.4559        N9-C11=1.4020        C10-N9=1.4559        C10-H19=1.0848       C10-H20=1.0897       C10-H21=1.0898       
C11-N9=1.4020        C11-O12=1.1969       C11-N13=1.3994       O12-C11=1.1969       N13-C5=1.3542        N13-C11=1.3994       
N13-C14=1.4501       C14-N13=1.4501       C14-H22=1.0905       C14-H23=1.0902       C14-H24=1.0888       H15-C1=1.0666        
H16-C1=1.0698        H17-O8=0.9753        H18-C3=1.0675        H19-C10=1.0848       H20-C10=1.0897       H21-C10=1.0898       
H22-C14=1.0905       H23-C14=1.0902       H24-C14=1.0888       H25-N4=1.0077        
 C  H  Rav=1.0820 sigma=0.0101  Rmin=1.0666  Rmax=1.0905     9
 C  C  Rav=1.3980 sigma=0.0088  Rmin=1.3893  Rmax=1.4068     2
 N  H  Rav=1.0077 sigma=0.0000  Rmin=1.0077  Rmax=1.0077     1
 N  C  Rav=1.3841 sigma=0.0396  Rmin=1.3327  Rmax=1.4559    11
 O  H  Rav=0.9753 sigma=0.0000  Rmin=0.9753  Rmax=0.9753     1
 O  C  Rav=1.2615 sigma=0.0645  Rmin=1.1969  Rmax=1.3260     2

 selected bond angles (degree)
 --------------------
H15-C1-N2=118.98               H16-C1-N2=121.21               H16-C1-H15=118.37              C3-N2-C1=128.03                
C6-N2-C1=125.76                C6-N2-C3=106.21                N4-C3-N2=110.13                H18-C3-N2=125.22               
H18-C3-N4=124.65               C5-N4-C3=108.58                H25-N4-C3=124.05               H25-N4-C5=127.37               
C6-C5-N4=107.38                N13-C5-N4=130.63               N13-C5-C6=121.97               C5-C6-N2=107.68                
C7-C6-N2=132.13                C7-C6-C5=119.82                O8-C7-C6=125.28                N9-C7-C6=116.54                
N9-C7-O8=118.15                H17-O8-C7=110.78               C10-N9-C7=120.36               C11-N9-C7=124.99               
C11-N9-C10=114.64              H19-C10-N9=109.31              H20-C10-N9=109.26              H20-C10-H19=110.32             
H21-C10-N9=109.56              H21-C10-H19=110.24             H21-C10-H20=108.14             

 selected dihedral angles (degree)
 ---------------------------------
C3-N2-C1-H15=353.49           C3-N2-C1-H16=159.59           C6-N2-C1-H15=172.52           C6-N2-C1-H16=338.62           
N4-C3-N2-C1=180.21            N4-C3-N2-C6=  1.03            H18-C3-N2-C1=  0.07           H18-C3-N2-C6=180.89           
C5-N4-C3-N2=359.94            C5-N4-C3-H18=180.08           H25-N4-C3-N2=179.74           H25-N4-C3-H18=359.88          
C6-C5-N4-C3=359.06            C6-C5-N4-H25=179.27           N13-C5-N4-C3=180.71           N13-C5-N4-H25=  0.92          
C5-C6-N2-C1=179.21            C5-C6-N2-C3=358.42            C7-C6-N2-C1=352.05            C7-C6-N2-C3=171.25            
N2-C6-C5-N4=  1.57            N2-C6-C5-N13=180.09           C7-C6-C5-N4=187.69            C7-C6-C5-N13=  6.21           
O8-C7-C6-N2=359.94            O8-C7-C6-C5=172.08            N9-C7-C6-N2=181.94            N9-C7-C6-C5=354.07            
H17-O8-C7-C6=352.30           H17-O8-C7-N9=170.28           C10-N9-C7-C6=181.63           C10-N9-C7-O8=  3.48           
C11-N9-C7-C6=  1.74           C11-N9-C7-O8=183.59           H19-C10-N9-C7=  1.85          H19-C10-N9-C11=181.75         
H20-C10-N9-C7=122.65          H20-C10-N9-C11=302.56         H21-C10-N9-C7=240.96          H21-C10-N9-C11= 60.86         
           -------------------------------------------------
          |                Final Singlepoint                |
           -------------------------------------------------

          ...................................................
          :                      SETUP                      :
          :.................................................:
          :  # basis functions                  67          :
          :  # atomic orbitals                  67          :
          :  # shells                           39          :
          :  # electrons                        74          :
          :  max. iterations                   250          :
          :  Hamiltonian                  GFN2-xTB          :
          :  restarted?                      false          :
          :  GBSA solvation                  false          :
          :  PC potential                    false          :
          :  electronic temp.         5000.0000000     K    :
          :  accuracy                    1.0000000          :
          :  -> integral cutoff          0.2500000E+02      :
          :  -> integral neglect         0.1000000E-07      :
          :  -> SCF convergence          0.1000000E-05 Eh   :
          :  -> wf. convergence          0.1000000E-03 e    :
          :  Broyden damping             0.4000000          :
          ...................................................

 iter      E             dE          RMSdq      gap      omega  full diag
   1    -42.7181476 -0.427181E+02  0.822E-05    1.53       0.0  T
   2    -42.7181476 -0.166267E-10  0.673E-05    1.53     297.2  T
   3    -42.7181476 -0.107541E-09  0.326E-05    1.53     613.9  T

   *** convergence criteria satisfied after 3 iterations ***

         #    Occupation            Energy/Eh            Energy/eV
      -------------------------------------------------------------
         1        2.0000           -0.9015728             -24.5330
       ...           ...                  ...                  ...
        31        1.9999           -0.6158740             -16.7588
        32        1.9999           -0.6121014             -16.6561
        33        1.9998           -0.6087090             -16.5638
        34        1.9992           -0.5842823             -15.8991
        35        1.9987           -0.5762310             -15.6800
        36        1.9956           -0.5569317             -15.1549
        37        1.7024           -0.4878374             -13.2747 (HOMO)
        38        0.2802           -0.4314931             -11.7415 (LUMO)
        39        0.0207           -0.3880424             -10.5592
        40        0.0037           -0.3607960              -9.8178
        41        0.0001           -0.2931329              -7.9766
        42        0.0000           -0.2052757              -5.5858
       ...           ...                  ...                  ...
        67                          0.5371292              14.6160
      -------------------------------------------------------------
                  HL-Gap            0.0563443 Eh            1.5332 eV
             Fermi-level           -0.4602238 Eh          -12.5233 eV

 SCC (total)                   0 d,  0 h,  0 min,  0.015 sec
 SCC setup                      ...        0 min,  0.000 sec (  1.018%)
 Dispersion                     ...        0 min,  0.000 sec (  0.864%)
 classical contributions        ...        0 min,  0.000 sec (  0.346%)
 integral evaluation            ...        0 min,  0.003 sec ( 21.923%)
 iterations                     ...        0 min,  0.003 sec ( 19.796%)
 molecular gradient             ...        0 min,  0.008 sec ( 55.488%)
 printout                       ...        0 min,  0.000 sec (  0.522%)

         :::::::::::::::::::::::::::::::::::::::::::::::::::::
         ::                     SUMMARY                     ::
         :::::::::::::::::::::::::::::::::::::::::::::::::::::
         :: total energy             -42.192135610174 Eh    ::
         :: gradient norm              0.002636585464 Eh/a0 ::
         :: HOMO-LUMO gap              1.533205172049 eV    ::
         ::.................................................::
         :: SCC energy               -42.718147609726 Eh    ::
         :: -> isotropic ES            0.123749703253 Eh    ::
         :: -> anisotropic ES         -0.002828958606 Eh    ::
         :: -> anisotropic XC          0.011334715894 Eh    ::
         :: -> dispersion             -0.023072322324 Eh    ::
         :: repulsion energy           0.525879299614 Eh    ::
         :: add. restraining           0.000010905535 Eh    ::
         :: total charge               0.999999999998 e     ::
         :::::::::::::::::::::::::::::::::::::::::::::::::::::

           -------------------------------------------------
          |                Property Printout                |
           -------------------------------------------------

    * Orbital Energies and Occupations

         #    Occupation            Energy/Eh            Energy/eV
      -------------------------------------------------------------
         1        2.0000           -0.9015728             -24.5330
       ...           ...                  ...                  ...
        25        2.0000           -0.6700479             -18.2329
        26        2.0000           -0.6683642             -18.1871
        27        2.0000           -0.6574748             -17.8908
        28        2.0000           -0.6465601             -17.5938
        29        2.0000           -0.6391371             -17.3918
        30        1.9999           -0.6218934             -16.9226
        31        1.9999           -0.6158740             -16.7588
        32        1.9999           -0.6121014             -16.6561
        33        1.9998           -0.6087090             -16.5638
        34        1.9992           -0.5842823             -15.8991
        35        1.9987           -0.5762310             -15.6800
        36        1.9956           -0.5569317             -15.1549
        37        1.7024           -0.4878374             -13.2747 (HOMO)
        38        0.2802           -0.4314931             -11.7415 (LUMO)
        39        0.0207           -0.3880424             -10.5592
        40        0.0037           -0.3607960              -9.8178
        41        0.0001           -0.2931329              -7.9766
        42        0.0000           -0.2052757              -5.5858
        43                         -0.1718849              -4.6772
        44                         -0.1443800              -3.9288
        45                         -0.1303585              -3.5472
        46                         -0.1096432              -2.9835
        47                         -0.0675890              -1.8392
        48                         -0.0353439              -0.9618
       ...                                ...                  ...
        67                          0.5371292              14.6160
      -------------------------------------------------------------
                  HL-Gap            0.0563443 Eh            1.5332 eV
             Fermi-level           -0.4602238 Eh          -12.5233 eV

     #   Z          covCN         q      C6AA      α(0)
     1   6 C        2.788    -0.130    31.290     9.163
     2   7 N        2.794     0.103    19.471     6.554
     3   6 C        3.036    -0.003    28.069     8.690
     4   7 N        2.773    -0.063    22.452     7.037
     5   6 C        3.016     0.105    25.669     8.311
     6   6 C        3.105    -0.037    28.779     8.790
     7   6 C        2.775     0.202    23.707     7.975
     8   8 O        1.659    -0.328    19.498     5.961
     9   7 N        2.746    -0.049    22.183     6.995
    10   6 C        3.706    -0.070    21.987     6.703
    11   6 C        2.727     0.312    21.693     7.625
    12   8 O        0.859    -0.356    20.811     6.116
    13   7 N        2.737    -0.058    22.366     7.024
    14   6 C        3.698    -0.072    22.045     6.716
    15   1 H        0.927     0.082     1.955     2.186
    16   1 H        0.927     0.071     2.078     2.254
    17   1 H        0.804     0.352     0.583     1.199
    18   1 H        0.927     0.105     1.741     2.063
    19   1 H        0.925     0.109     1.701     2.040
    20   1 H        0.925     0.107     1.721     2.052
    21   1 H        0.925     0.104     1.748     2.067
    22   1 H        0.924     0.084     1.941     2.178
    23   1 H        0.924     0.084     1.937     2.176
    24   1 H        0.925     0.125     1.576     1.963
    25   1 H        0.860     0.219     1.014     1.577

 Mol. C6AA /au·bohr⁶  :       6647.631411
 Mol. C8AA /au·bohr⁸  :     153327.211414
 Mol. α(0) /au        :        125.417209


Wiberg/Mayer (AO) data.
largest (>0.10) Wiberg bond orders for each atom

 ---------------------------------------------------------------------------
     #   Z sym  total        # sym  WBO       # sym  WBO       # sym  WBO
 ---------------------------------------------------------------------------
     1   6 C    3.565 --     2 N    1.304    15 H    0.971    16 H    0.955
                             3 C    0.177
     2   7 N    3.720 --     1 C    1.304     3 C    1.250     6 C    1.070
     3   6 C    3.710 --     2 N    1.250     4 N    1.176    18 H    0.960
                             1 C    0.177
     4   7 N    3.555 --     5 C    1.259     3 C    1.176    25 H    0.924
     5   6 C    3.866 --     4 N    1.259     6 C    1.235    13 N    1.178
     6   6 C    3.906 --     7 C    1.295     5 C    1.235     2 N    1.070
     7   6 C    3.781 --     6 C    1.295     9 N    1.202     8 O    1.160
     8   8 O    2.179 --     7 C    1.160    17 H    0.825
     9   7 N    3.536 --     7 C    1.202    11 C    1.069    10 C    0.969
                            12 O    0.126
    10   6 C    3.916 --    19 H    0.971     9 N    0.969    21 H    0.964
                            20 H    0.963
    11   6 C    3.946 --    12 O    1.716    13 N    1.071     9 N    1.069
    12   8 O    2.069 --    11 C    1.716    13 N    0.135     9 N    0.126
    13   7 N    3.515 --     5 C    1.178    11 C    1.071    14 C    0.974
                            12 O    0.135
    14   6 C    3.926 --    13 N    0.974    23 H    0.971    22 H    0.970
                            24 H    0.965
    15   1 H    0.992 --     1 C    0.971
    16   1 H    0.994 --     1 C    0.955
    17   1 H    0.875 --     8 O    0.825
    18   1 H    0.988 --     3 C    0.960
    19   1 H    0.987 --    10 C    0.971
    20   1 H    0.983 --    10 C    0.963
    21   1 H    0.984 --    10 C    0.964
    22   1 H    0.989 --    14 C    0.970
    23   1 H    0.989 --    14 C    0.971
    24   1 H    0.984 --    14 C    0.965
    25   1 H    0.951 --     4 N    0.924
 ---------------------------------------------------------------------------

Topologies differ in total number of bonds
Writing topology from bond orders to xtbtopo.mol

molecular dipole:
                 x           y           z       tot (Debye)
 q only:        1.780      -0.782       0.208
   full:        2.261      -1.070       0.222       6.384
molecular quadrupole (traceless):
                xx          xy          yy          xz          yz          zz
 q only:        1.591      -3.550      15.565       0.916      -0.566     -17.156
  q+dip:       -0.552      -4.501      15.919       0.736      -1.240     -15.367
   full:       -1.388      -4.075      15.642       0.611      -1.003     -14.253

           -------------------------------------------------
          |                Geometry Summary                 |
           -------------------------------------------------

      molecular mass/u    :      195.1988581
   center of mass at/Å    :        0.0638191      -0.0423852      -0.0063010
  moments of inertia/u·Å² :        0.4832349E+03   0.7041825E+03   0.1179143E+04
rotational constants/cm⁻¹ :        0.3488496E-01   0.2393929E-01   0.1429652E-01

 * 26 selected distances

     #   Z          #   Z                                           value/Å
     1   6 C        2   7 N                                       1.3326850
     2   7 N        3   6 C                                       1.3515240
     3   6 C        4   7 N                                       1.3735277
     4   7 N        5   6 C                                       1.3426915
     2   7 N        6   6 C                                       1.4004513
     5   6 C        6   6 C                                       1.4068202
     6   6 C        7   6 C                                       1.3892503
     7   6 C        8   8 O                                       1.3259820
     7   6 C        9   7 N                                       1.3626481
     9   7 N       10   6 C                                       1.4559080 (max)
     9   7 N       11   6 C                                       1.4020114
    11   6 C       12   8 O                                       1.1969312
     5   6 C       13   7 N                                       1.3541700
    11   6 C       13   7 N                                       1.3993676
    13   7 N       14   6 C                                       1.4500583
     1   6 C       15   1 H                                       1.0666140
     1   6 C       16   1 H                                       1.0697819
     8   8 O       17   1 H                                       0.9752875 (min)
     3   6 C       18   1 H                                       1.0675176
    10   6 C       19   1 H                                       1.0848431
    10   6 C       20   1 H                                       1.0897248
    10   6 C       21   1 H                                       1.0898133
    14   6 C       22   1 H                                       1.0904974
    14   6 C       23   1 H                                       1.0902452
    14   6 C       24   1 H                                       1.0887916
     4   7 N       25   1 H                                       1.0076531

 * 6 distinct bonds (by element types)

   Z      Z             #   av. dist./Å        max./Å        min./Å
   1 H    6 C           9     1.0819810     1.0904974     1.0666140
   6 C    6 C           2     1.3980353     1.4068202     1.3892503
   1 H    7 N           1     1.0076531     1.0076531     1.0076531
   6 C    7 N          11     1.3840948     1.4559080     1.3326850
   1 H    8 O           1     0.9752875     0.9752875     0.9752875
   6 C    8 O           2     1.2614566     1.3259820     1.1969312


optimized geometry written to: xtbopt.xyz


           -------------------------------------------------
          | TOTAL ENERGY              -42.192135610174 Eh   |
          | GRADIENT NORM               0.002636585464 Eh/α |
          | HOMO-LUMO GAP               1.533205172049 eV   |
           -------------------------------------------------

------------------------------------------------------------------------
 * finished run on 2024/06/05 at 20:00:15.849     
------------------------------------------------------------------------
 total:
 * wall-time:     0 d,  0 h,  0 min,  0.854 sec
 *  cpu-time:     0 d,  0 h,  0 min,  0.826 sec
 * ratio c/w:     0.967 speedup
 SCF:
 * wall-time:     0 d,  0 h,  0 min,  0.039 sec
 *  cpu-time:     0 d,  0 h,  0 min,  0.039 sec
 * ratio c/w:     0.999 speedup
 ANC optimizer:
 * wall-time:     0 d,  0 h,  0 min,  0.760 sec
 *  cpu-time:     0 d,  0 h,  0 min,  0.755 sec
 * ratio c/w:     0.994 speedup

