25
 energy: -42.103933641448 gnorm: 0.004088845394 xtb: 6.6.1 (8d0f1dd)
C            3.28818902678268        1.25764506204888        0.09571095752185
N            2.37692596113832        0.14495365268754        0.04648071347411
C            2.69981170686738       -1.14363101185263        0.03789474678050
N            1.58308629513100       -1.90024935499746       -0.00275438604195
C            0.50222354048489       -1.05402333669602       -0.02183410753108
C            1.00714233264242        0.24055347559382        0.00824436123451
C            0.15127700859373        1.40709432491687       -0.00106721772571
O            0.52372210553448        2.55819051088864        0.03107437961663
N           -1.19725347503331        1.04276306427897       -0.05403867033338
C           -2.17720815740593        2.12346058112447       -0.09029719261742
C           -1.73934457159587       -0.21505426046788       -0.08884496411564
O           -2.91584481032597       -0.43017472093466       -0.14632450853471
N           -0.82072553278171       -1.34176168649597       -0.05183625053689
C           -1.34374706975534       -2.57881953463146       -0.05046503253398
H            3.89500551496033        1.20851809245200        0.99984938819505
H            3.94863220667801        1.24506175118675       -0.77124334864528
H            2.71096931586208        2.18179272263186        0.09724665654600
H            3.69850670816144       -1.53381837325710        0.05813102505414
H           -1.63668698070454        3.06633847604959       -0.06568167142131
H           -2.77184202412653        2.05129968407524       -0.99978189624866
H           -2.84371272119903        2.04722644576803        0.76739568447199
H           -0.70404894862265       -3.43954052600289       -0.02341697205175
H           -2.41986835138465       -2.68061794574906       -0.04190212404801
H           -4.22080314023545       -3.52934373954787        0.31804441290530
H            1.56602557443423       -2.90962481146967       -0.01941236551445
