25
 energy: -42.544978284415 gnorm: 1.089061947088 xtb: 6.6.1 (8d0f1dd)
C            3.21786164340000        1.13591514650000        0.01837059260000
N            2.27034809790000        0.05199982890000        0.00038279530000
C            2.54167221030000       -1.23971668410000       -0.00834188300000
N            1.39367826450000       -1.95088267900000       -0.00850347120000
C            0.35269634020000       -1.06748964300000        0.00059917290000
C            0.90759959010000        0.20069750900000        0.00663590170000
C            0.07590235260000        1.39864294500000       -0.00284827040000
O            0.48715076820000        2.53168346660000       -0.01725767220000
N           -1.27221500230000        1.06666939660000        0.00165480230000
C           -2.23229981500000        2.16656245330000       -0.00245172030000
C           -1.84872931540000       -0.19179276200000        0.00496135950000
O           -3.03273030250000       -0.36103538130000        0.00858583760000
N           -0.96599111670000       -1.30060631840000        0.00174701630000
C           -1.52030655580000       -2.64076660390000       -0.00239033190000
H            3.71480285180000        1.18589984860000        0.98803183970000
H            3.97079415090000        0.99383197990000       -0.75543416370000
H            2.68321036910000        2.07051068580000       -0.15067179540000
H            3.52469367910000       -1.66989040330000       -0.01523639120000
H           -1.67672429040000        3.10039111610000        0.00486339690000
H           -2.85755792270000        2.10547813320000       -0.89185337000000
H           -2.87119733260000        2.09858159720000        0.87661144540000
H           -1.20589108080000       -3.18768007210000        0.88663215920000
H           -1.21982032550000       -3.17678505510000       -0.90288069810000
H           -2.60531402170000       -2.54255916880000        0.00649952960000
H            1.32879827740000       -2.95942079410000       -0.01653446370000
25
 energy: -44.280267003677 gnorm: 2.420813416989 xtb: 6.6.1 (8d0f1dd)
C            3.21657197428555        1.13506316834193        0.01837612252716
N            2.26222190051757        0.04780146023343        0.00037966270634
C            2.53255815271225       -1.23953493745225       -0.00829888909085
N            1.36310729713567       -1.95634052967877       -0.00842463615768
C            0.08125191911579       -1.20784337749814        0.00137773126071
C            0.87792550025092        0.17078868505655        0.00650539039701
C            0.07594667917662        1.39659115061951       -0.00282075376313
O            0.48809803060738        2.53108031711402       -0.01725870653035
N           -1.27261290414817        1.06664073888312        0.00165929426242
C           -2.23210479556175        2.16660976533656       -0.00244817468750
C           -1.85267720818860       -0.19151085859597        0.00496734575485
O           -3.03450415714324       -0.35963653018769        0.00858733464900
N           -1.01377329166179       -1.31645490233148        0.00175846369557
C           -1.48012446306877       -2.64368141460234       -0.00272342016560
H            3.71475282183602        1.18578273072241        0.98797374805845
H            3.97067965484767        0.99371000757521       -0.75537914356639
H            2.68326099450026        2.07041431768725       -0.15066968230256
H            3.52331465952907       -1.66955420428495       -0.01522929175793
H           -1.67661993895283        3.10046654277845        0.00486239961205
H           -2.85755041087800        2.10554278042877       -0.89186059636427
H           -2.87119170391963        2.09864733338119        0.87661766699831
H           -1.20588780590061       -3.18847227106416        0.88826196045797
H           -1.21986271304635       -3.17756569130296       -0.90452390454355
H           -2.24442788822915       -2.33930718739554        0.00603916061787
H            1.33207921028413       -2.96099855216415       -0.01655746416788
25
 energy: -47.318432752944 gnorm: 4.017516249964 xtb: 6.6.1 (8d0f1dd)
C            3.21499692690649        1.13441665632560        0.01839383893729
N            2.25385710037091        0.04390177542679        0.00038338381253
C            2.52412425121811       -1.23923500882120       -0.00825940676235
N            1.33607068303571       -1.96179717900043       -0.00836139119526
C           -0.18602764557301       -1.35506780567063        0.00221740882389
C            0.85218119614381        0.14591482267391        0.00642183136305
C            0.07794473114569        1.39358887686016       -0.00281636303823
O            0.48843964515538        2.53031198175628       -0.01724848606754
N           -1.27400842029141        1.06530217795382        0.00166609928723
C           -2.23228583583723        2.16642394726872       -0.00244296380927
C           -1.85920991296046       -0.18753190344677        0.00496968518318
O           -3.03789461912084       -0.35868849724140        0.00859348298696
N           -1.08175790979520       -1.33310232609286        0.00172040891963
C           -1.41699600333384       -2.66328008623875       -0.00341172564647
H            3.71451722569764        1.18572775792399        0.98790700635415
H            3.97036661431957        0.99363349337116       -0.75532277912391
H            2.68318281918683        2.07044485145368       -0.15066391333206
H            3.52159621565941       -1.66938223309928       -0.01521919494306
H           -1.67659093634960        3.10033539318584        0.00486303001713
H           -2.85764693768266        2.10551446251132       -0.89187666431335
H           -2.87129249427050        2.09862081789681        0.87663389485840
H           -1.20406916192163       -3.19062512027503        0.89105861147858
H           -1.21812474498243       -3.17969592209360       -0.90739112347820
H           -1.89633668490302       -2.11460726564213        0.00594284015970
H            1.33539541228226       -2.96288512538601       -0.01658589257201
25
 energy: -51.682089420673 gnorm: 4.977661184527 xtb: 6.6.1 (8d0f1dd)
C            3.21361836370833        1.13446053777568        0.01841692686542
N            2.24771257542742        0.04234556959413        0.00039353926510
C            2.51842132440858       -1.23887485438076       -0.00823127788570
N            1.32031848934134       -1.97031544981007       -0.00836603303409
C           -0.37944282815399       -1.50445767397720        0.00330591611766
C            0.83608898094765        0.13110383994330        0.00639606138205
C            0.08059452651429        1.39013041656358       -0.00281200306716
O            0.48802322884485        2.53006952258142       -0.01724134223089
N           -1.27570644203022        1.06347458369911        0.00167449879010
C           -2.23294654906874        2.16583961048073       -0.00243344253742
C           -1.87000705762445       -0.17906217051730        0.00497054022725
O           -3.04410919663786       -0.35794533145681        0.00861228179732
N           -1.22966893158902       -1.33387453610809        0.00148823858078
C           -1.36251735046383       -2.72590539667135       -0.00449159837334
H            3.71406144988605        1.18625942440885        0.98785271968495
H            3.96987993091252        0.99418589746190       -0.75528248906562
H            2.68273161394864        2.07087339020856       -0.15065550861479
H            3.52031051111858       -1.66875092208679       -0.01521182260827
H           -1.67703799239750        3.09985657535228        0.00486891302352
H           -2.85811283955143        2.10500592469358       -0.89189144769367
H           -2.87176161723337        2.09811010894450        0.87665731956967
H           -1.20153931106191       -3.19418155312889        0.89499557102675
H           -1.21570766127116       -3.18322746199802       -0.91144360863076
H           -1.55163879495265       -1.87195876712978        0.00622440055723
H            1.33886709107789       -2.96492274284258       -0.01662473524609
25
 energy: -57.323296666553 gnorm: 6.027875711310 xtb: 6.6.1 (8d0f1dd)
C            3.21377580921143        1.13117028494798        0.01844252076943
N            2.24206162315036        0.03917831153248        0.00041994873015
C            2.51148757071501       -1.24209293528635       -0.00819819277967
N            1.30839228481092       -1.98037594595986       -0.00842417778820
C           -0.61514526665798       -1.66584440561817        0.00493150083273
C            0.82292339425936        0.11813451206188        0.00637852999592
C            0.08466440532862        1.38711760489567       -0.00280538508600
O            0.49045228070328        2.52961760502287       -0.01724986704675
N           -1.27633325248055        1.06499782795943        0.00167789899309
C           -2.23123601347114        2.16797841882099       -0.00243702487130
C           -1.88165722119882       -0.15872817532469        0.00494071176942
O           -3.05373769278194       -0.35317901445264        0.00864178523032
N           -1.33855429075128       -1.20418429701898        0.00005881788477
C           -1.34152864443728       -2.75163531820290       -0.00495480866417
H            3.71498898498887        1.18293533428948        0.98781060004263
H            3.97058560189307        0.99060783166010       -0.75523977468332
H            2.68462333044787        2.06853258745923       -0.15064959568367
H            3.51764131483793       -1.67162245752106       -0.01518799652619
H           -1.67405400402972        3.10133749517514        0.00486007844989
H           -2.85622758013013        2.10769831902718       -0.89191546359400
H           -2.86989222354783        2.10082009553694        0.87665886926571
H           -1.20398835911355       -3.19571480586873        0.89879110137845
H           -1.21819482615408       -3.18474039349371       -0.91531689812393
H           -1.18041399907801       -1.79519885560735        0.00659783713181
H            1.33979828758561       -2.96857108243494       -0.01665939772711
25
 energy: -16.663108178724 gnorm: 785.320824147851 xtb: 6.6.1 (8d0f1dd)
C            3.21482551129112        1.12628277551888        0.01846889102180
N            2.23825047170995        0.03589503410525        0.00044976305315
C            2.50479835998765       -1.24808590263954       -0.00817353352054
N            1.30281951214632       -1.98660501500955       -0.00845197426629
C           -0.77689669924496       -1.81430484693197        0.00704302684968
C            0.81820278216522        0.10880070424680        0.00636953772759
C            0.08849384618000        1.38447052435349       -0.00281452327922
O            0.49443080764455        2.52856351532210       -0.01724982831926
N           -1.27632895135266        1.07016820498415        0.00167396068098
C           -2.22815375233694        2.17182410537216       -0.00244256842910
C           -1.89899006660865       -0.12594846760278        0.00491067341269
O           -3.06652816372084       -0.34501868085750        0.00869733171022
N           -1.49883112819157       -1.01641829048448       -0.00250896149532
C           -1.33750426943080       -2.77150577215145       -0.00532914790232
H            3.71665054750081        1.17764702965469        0.98778592342852
H            3.97192276640887        0.98493329594657       -0.75519235494123
H            2.68774554397781        2.06479291241073       -0.15064445109501
H            3.51437445705912       -1.67627432973886       -0.01516083698016
H           -1.66942225230846        3.10392759347882        0.00484785477619
H           -2.85313290608562        2.11201645128648       -0.89193964128801
H           -2.86682076054259        2.10516393269441        0.87664827646557
H           -1.20886388000779       -3.19717010909791        0.90248888116072
H           -1.22309136582144       -3.18610236571561       -0.91910117155693
H           -0.82561851798956       -1.81662361339924        0.00748020823647
H            1.33809962167047       -2.97219014414564       -0.01668371755018
