72
 energy: -99.183325040633 gnorm: 1.061472859504 xtb: 6.6.1 (8d0f1dd)
N           -1.65155193968120        2.87486574669536        2.12153915285747
C           -1.77423220912165        2.05594104073895        1.18461000098949
C           -3.00833598242608        1.92468426416487        0.33424972304498
C           -3.48146453507380        0.48063705254650        0.36148673179120
C           -4.42250925632001        0.03005488085075       -0.56630103779026
C           -4.90772783392615       -1.26687724510368       -0.53395265948063
O           -5.81813789783610       -1.78097310741147       -1.38950287513318
C           -6.42414086754458       -0.93661277095403       -2.33912508388917
C           -4.44046399107044       -2.16480485785872        0.46231174443358
O           -4.96661948128806       -3.40718601818949        0.42052794663021
C           -4.62543963590077       -4.32614496377610        1.43144132641781
C           -3.51228359584487       -1.70949555680272        1.38470798096483
C           -3.04418173464899       -0.40384287628587        1.33566928402779
C           -2.57928051720777        2.34368661667978       -1.09837195821218
C           -1.70968925045151        1.32068604088642       -1.84163427557645
C           -0.29989996089516        1.29680541716343       -1.37234599059934
N            0.51097285303977        0.24034295167467       -1.45513559456626
C            1.78066549761872        0.27686037182800       -1.04473255862494
C            2.76557894953335       -0.83568867826048       -1.18966111838345
C            4.14891765692177       -0.43439243417530       -0.75361999800097
C            4.74561105397097        0.71032220004450       -1.16551049520375
C            6.04294757427304        1.07464514204411       -0.76750441601745
C            6.78321844271834        0.26041104623513        0.09125754475623
O            8.02687750904576        0.53595724447793        0.54662439911829
C            8.65817835497361        1.72671527606483        0.13349849805862
C            6.23635051911284       -0.94059348727752        0.54747032121875
O            6.99215727724015       -1.67237092737078        1.37763044365690
C            6.52235732048232       -2.91151525786478        1.85553780451588
C            4.87103986911401       -1.42954690721214        0.12768688076548
C           -0.04418577577001       -0.99383792537167       -1.98416235253976
C           -4.19434422023736        2.81831544416029        0.80509370972481
C           -4.64876854406502        2.44805379550338        2.21513228174346
C           -3.89327460925024        4.31331037724334        0.74082514514800
H           -4.79131418604721        0.70982513394737       -1.31641239976078
H           -6.94011305682177       -0.09895836956274       -1.85987986127826
H           -7.15166755828389       -1.55728981126468       -2.85892397152047
H           -5.69605416942064       -0.55363550132079       -3.06198030951137
H           -4.90070637911457       -3.95237394282350        2.42209504113532
H           -5.19722928421489       -5.22600788106983        1.21370312337950
H           -3.55694336890202       -4.56369459727614        1.41519799398468
H           -3.15441479441397       -2.36176215780843        2.16463341325466
H           -2.34868843313146       -0.07744577411647        2.09315312942367
H           -3.47999945688698        2.51634525579248       -1.68773711222498
H           -2.04262670804368        3.29060952245937       -1.03720548463321
H           -2.17485634692819        0.33770529152767       -1.76130045454092
H           -1.72253524275416        1.59875245891640       -2.90561737622842
H           -0.96825373827300        1.37931072632273        0.85269567136656
H            0.15074128725171        2.22634464321947       -1.06642695534556
H            4.45893625074180       -1.63774775764035        0.71076929901767
H            2.12443014504789        1.21025371989465       -0.63519467084332
H            2.82232227459400       -1.14948895120652       -2.24273744372996
H            2.45096438890400       -1.71403648331553       -0.61361514671176
H            4.21571641684345        1.38170288600851       -1.82491001211236
H            6.45718273838444        1.99733833491216       -1.13375565759341
H            8.09728918367355        2.61008994136607        0.45165598898902
H            8.79779202966237        1.75088835038874       -0.95139858835088
H            9.63066791785812        1.72240881059707        0.62113791963628
H            7.31151786366561       -3.29697831734935        2.49841496660904
H            5.60488869734929       -2.79936575948016        2.44140219637946
H            6.34826337349106       -3.61845957720052        1.03775782707909
H            5.07162229574742       -2.31036519002545       -0.53373104486764
H           -0.45364803609259       -0.82039078762970       -2.97918750763363
H           -0.84336218505507       -1.35230947817829       -1.33243233238583
H            0.71903163789216       -1.76128151351477       -2.04991722774362
H           -5.02476103974485        2.60874384499501        0.11993162820840
H           -3.86291157734244        2.67065565543275        2.93031591757239
H           -4.90247558089011        1.39281832527180        2.28339902548587
H           -5.52932389791897        3.02820537908139        2.47870861049189
H           -3.03392247417989        4.54852617803959        1.36073044073304
H           -3.70656637879624        4.64754646221007       -0.27607298223700
H           -4.74999457582001        4.86500363712082        1.11973444267576
H           -0.76082347450716        2.90424492070125        2.60852424059138
72
 energy: -99.344866901702 gnorm: 0.047288098410 xtb: 6.6.1 (8d0f1dd)
N           -1.65151071430955        2.87486407240361        2.12150639513509
C           -1.77413318990964        2.05605174742877        1.18453036895868
C           -3.00833758146588        1.92466768594162        0.33427501718207
C           -3.48147565601367        0.48062371176065        0.36147972872622
C           -4.42248964932221        0.03006560703134       -0.56631657435296
C           -4.90772845088971       -1.26687969796699       -0.53399163415380
O           -5.81819335743811       -1.78091801842439       -1.38951662927478
C           -6.42412696187764       -0.93659314313628       -2.33915082607227
C           -4.44047301788975       -2.16480043719387        0.46229221859057
O           -4.96657552321331       -3.40718604600043        0.42042294810090
C           -4.62546647132984       -4.32614548910536        1.43138839673310
C           -3.51229846009599       -1.70951100228722        1.38471068959400
C           -3.04418943153659       -0.40385010011104        1.33568720626704
C           -2.57925034402672        2.34364831847765       -1.09842695058769
C           -1.70960302168552        1.32062122680317       -1.84171074183548
C           -0.29989254246988        1.29679505856627       -1.37248356263629
N            0.51077407054113        0.24028744321829       -1.45510166451037
C            1.78065429870090        0.27678598191129       -1.04463205493285
C            2.76613478169300       -0.83523231894745       -1.19012030790619
C            4.15365558523303       -0.42785249984376       -0.76991571009403
C            4.74605126312526        0.71610748964821       -1.16921031510364
C            6.04415491651365        1.07607990034651       -0.76864311490131
C            6.78751049808022        0.26436878975040        0.09035422461635
O            8.02885519484192        0.53752745939300        0.54737991982686
C            8.65880121083969        1.72747334703576        0.13337571107838
C            6.25094400463797       -0.93682749127288        0.53665939764624
O            6.99268869204879       -1.67155507797562        1.37806053856945
C            6.52200969176380       -2.91114976854162        1.85486065525984
C            4.93271540169441       -1.40445244329161        0.03852605475726
C           -0.04420873250070       -0.99405594228087       -1.98410619483776
C           -4.19433156805376        2.81830382964842        0.80512796274456
C           -4.64872245026021        2.44806044412019        2.21514940659429
C           -3.89324406256817        4.31331098514145        0.74083932747316
H           -4.79130162135820        0.70985142630314       -1.31646593543019
H           -6.94005776225411       -0.09898154072100       -1.85993181205749
H           -7.15160968311524       -1.55723350165595       -2.85889736683069
H           -5.69604494893571       -0.55363800480963       -3.06196864309399
H           -4.90073249400291       -3.95237068598921        2.42209828632592
H           -5.19725802883878       -5.22602726759776        1.21365699789984
H           -3.55691610957511       -4.56374981689845        1.41516793334413
H           -3.15442790790014       -2.36179050506245        2.16464359971312
H           -2.34870155431208       -0.07744525780666        2.09318240191820
H           -3.47999259336689        2.51637590870926       -1.68765077450125
H           -2.04257800282792        3.29061872648282       -1.03715869803874
H           -2.17485074506718        0.33766736397945       -1.76120238919423
H           -1.72269917466092        1.59870349473871       -2.90562761269656
H           -0.96823227112767        1.37928530985981        0.85274152978572
H            0.15082605216731        2.22654776895029       -1.06629766464112
H            4.35477650750379       -1.68782421235560        0.85834219702644
H            2.12453543107172        1.21034855772401       -0.63497587848837
H            2.82143219962591       -1.14935613148773       -2.24315443319324
H            2.45198514295637       -1.71421207531781       -0.61324652670753
H            4.21512833695957        1.38455215558352       -1.82615830505074
H            6.45752231292735        1.99829534053377       -1.13392556505831
H            8.09723186045697        2.61038961083633        0.45172230345794
H            8.79787949051848        1.75096319316879       -0.95149744467258
H            9.63101091914384        1.72263833610343        0.62122386214035
H            7.31117419711063       -3.29670279917176        2.49817223194371
H            5.60480828693058       -2.79927059937609        2.44110840397731
H            6.34829904025280       -3.61832679276918        1.03770941813211
H            5.08506825601562       -2.31531970219062       -0.55736847552406
H           -0.45361154209081       -0.82036757951694       -2.97896693474743
H           -0.84319163452900       -1.35237029943023       -1.33256801999641
H            0.71888486452508       -1.76132609370336       -2.05006009741722
H           -5.02472647178587        2.60873430807944        0.11998268434102
H           -3.86288842553374        2.67066719468723        2.93029275465939
H           -4.90241454631401        1.39282526294748        2.28341453226243
H           -5.52926234581597        3.02818750533151        2.47871649293811
H           -3.03390799396188        4.54851016648111        1.36071034476074
H           -3.70655604894217        4.64753408408972       -0.27604238819881
H           -4.74993355322205        4.86497521966653        1.11972709058705
H           -0.76085026447657        2.90414783186653        2.60851685627705
72
 energy: -99.346647140963 gnorm: 0.034137944080 xtb: 6.6.1 (8d0f1dd)
N           -1.65036735597312        2.87471258621010        2.12134699506258
C           -1.77299522911982        2.05594427980477        1.18438112562240
C           -3.00741796931030        1.92438247933508        0.33449487416269
C           -3.48098501356027        0.48045980188470        0.36151958278353
C           -4.42190773399986        0.03022671092289       -0.56655459860212
C           -4.90739639761766       -1.26665316464252       -0.53444840318013
O           -5.81809809563564       -1.78034518897647       -1.38992733632169
C           -6.42347004496630       -0.93591968549774       -2.33973964631987
C           -4.44035848625577       -2.16485509857474        0.46167225003159
O           -4.96621327726687       -3.40734089566870        0.41907146370026
C           -4.62579326248599       -4.32646654974667        1.43015050199598
C           -3.51255271281159       -1.70977493576146        1.38456393340873
C           -3.04433443270612       -0.40411749764096        1.33593198172010
C           -2.57801473565733        2.34315819880872       -1.09814653253840
C           -1.70821148168518        1.31979565930567       -1.84097454768105
C           -0.29801420928424        1.29642424850175       -1.37246666133571
N            0.51317187239658        0.24024342697387       -1.45597666234796
C            1.78388265062242        0.27666142028182       -1.04698420662499
C            2.76923311253795       -0.83549285800390       -1.19448016812772
C            4.15730420005408       -0.43274983137739       -0.77436020797938
C            4.74890645945313        0.71897325240204       -1.17573646842339
C            6.04851923810945        1.07742449399895       -0.77792347980613
C            6.79073084009510        0.26296674736150        0.07960510204749
O            8.02928568481607        0.54322305282007        0.54481314819525
C            8.66050939833176        1.73404712881633        0.13349824903328
C            6.24636896914885       -0.94092497721368        0.52906043491267
O            6.98972745353509       -1.67053296268557        1.37174615352054
C            6.52133611740931       -2.90958705255492        1.85022736542444
C            4.91728840845731       -1.41736382095124        0.05332140151809
C           -0.04241144026815       -0.99448159644445       -1.98366506961182
C           -4.19330941934591        2.81808658783040        0.80544246054741
C           -4.64732264468847        2.44804275135736        2.21558738557481
C           -3.89224830910992        4.31308238032625        0.74093302094418
H           -4.79037132220810        0.71010762865295       -1.31687670955254
H           -6.93911900737025       -0.09812545317267       -1.86072972077550
H           -7.15109419140077       -1.55632410711934       -2.85940178268270
H           -5.69515894950315       -0.55333214751898       -3.06246644932972
H           -4.90125623270959       -3.95268422822123        2.42088352693501
H           -5.19780723094757       -5.22616471204918        1.21216113174873
H           -3.55728786701627       -4.56453971363194        1.41424311490249
H           -3.15501037728716       -2.36223172436991        2.16452028788462
H           -2.34919014848655       -0.07779757394126        2.09379829478715
H           -3.47892904416284        2.51598812726362       -1.68707621462999
H           -2.04109211273796        3.29003798068683       -1.03678207310532
H           -2.17340633096716        0.33696870757368       -1.75927514502791
H           -1.72332919154627        1.59678365955678       -2.90515125396831
H           -0.96742297691401        1.37845355937189        0.85328039886864
H            0.15238056170153        2.22660506584988       -1.06635660990819
H            4.33085276679579       -1.69761421041588        0.88780973135322
H            2.12737316119828        1.20958636145344       -0.63536144305600
H            2.81800243273150       -1.15415201697329       -2.24691458107105
H            2.45984912671044       -1.71198425315432       -0.61112729794324
H            4.21058492349985        1.40274772660944       -1.81485266791445
H            6.46013064790611        2.00382278928743       -1.13684310330471
H            8.09762819845095        2.61672125200847        0.45055499279244
H            8.80166690297388        1.75748966488855       -0.95114577475897
H            9.63226751087636        1.73018990137439        0.62290763710146
H            7.31157563958636       -3.29221459148876        2.49375912849891
H            5.60475565592496       -2.79710866999806        2.43735166857854
H            6.34619589342456       -3.61819221708043        1.03517940054623
H            5.06509834357989       -2.33781345687024       -0.53748578219518
H           -0.45370966527276       -0.82025169428023       -2.97708174463726
H           -0.84061340859452       -1.35329692645201       -1.33215383358074
H            0.71962264237240       -1.76221339771983       -2.05196678890825
H           -5.02388072074703        2.60839162825376        0.12059813209976
H           -3.86138456679969        2.67099243962506        2.93044750901540
H           -4.90077803199783        1.39277708591465        2.28409096649352
H           -5.52789785549960        3.02803781668672        2.47919456118610
H           -3.03278222310349        4.54830751707267        1.36055142782325
H           -3.70586328859119        4.64725105733715       -0.27599188640110
H           -4.74882374310704        4.86472907116440        1.11996480951853
H           -0.76010247697282        2.90294248513364        2.60902554391774
72
 energy: -99.347599121107 gnorm: 0.016862350749 xtb: 6.6.1 (8d0f1dd)
N           -1.64835460698781        2.87321878302558        2.12199652170781
C           -1.77144221415038        2.05428775633680        1.18522109310957
C           -3.00580541307691        1.92374624722492        0.33513187136544
C           -3.48015829071018        0.48008534015320        0.36173965622297
C           -4.42076597809400        0.03048931879639       -0.56697056435090
C           -4.90676223321582       -1.26622354405484       -0.53539376753887
O           -5.81774806847773       -1.77922638050749       -1.39097700581291
C           -6.42212716845626       -0.93449832718581       -2.34106862264191
C           -4.44011294856604       -2.16500322077837        0.46038661531423
O           -4.96560879494783       -3.40760327048533        0.41639637718487
C           -4.62642071798771       -4.32719892558678        1.42747859640368
C           -3.51293166996651       -1.71042192257578        1.38416447937866
C           -3.04452704365420       -0.40478148012649        1.33634794192442
C           -2.57631384259311        2.34260234858794       -1.09747776035196
C           -1.70752534398061        1.31840334458408       -1.84036691576420
C           -0.29682364020947        1.29638788065023       -1.37378634640472
N            0.51458059805444        0.24056347518769       -1.45827796466876
C            1.78566551452204        0.27720542609421       -1.05060994280931
C            2.77003153614061       -0.83503052390055       -1.19958774768409
C            4.15805444510559       -0.43560826732202       -0.77718757986019
C            4.74818283765988        0.72076558640720       -1.17704662985709
C            6.04908818748912        1.07835905505837       -0.78302646969064
C            6.79171001383822        0.26164125330086        0.07143626252701
O            8.02902604583277        0.54609580633564        0.54051235369568
C            8.65972922033874        1.73893345315322        0.13171905591384
C            6.24408840645058       -0.94509003234107        0.52175849472895
O            6.99142118629470       -1.66989904841854        1.36434484958613
C            6.52518552250595       -2.90791772994847        1.84545625412337
C            4.90131720558983       -1.42016362314763        0.07232076000434
C           -0.04101994613736       -0.99472840361832       -1.98490731210155
C           -4.19133027318454        2.81771774123313        0.80632793528548
C           -4.64467106115477        2.44798619200115        2.21674076290495
C           -3.89022930660186        4.31266698113575        0.74132231445530
H           -4.78858003622826        0.71061323950013       -1.31744255000175
H           -6.93729009624401       -0.09627562475811       -1.86238549325436
H           -7.15000063143220       -1.55445560267818       -2.86080005609999
H           -5.69329012051303       -0.55259346118310       -3.06357630056796
H           -4.90225743913289       -3.95348157583543        2.41817155948791
H           -5.19889318051798       -5.22649842357957        1.20894682498217
H           -3.55801944668147       -4.56602980568021        1.41219519842787
H           -3.15600680799654       -2.36327225345466        2.16410088153785
H           -2.34994971156720       -0.07866517379220        2.09482751245832
H           -3.47715794596063        2.51610201285569       -1.68617338581001
H           -2.03883259894164        3.28917926228412       -1.03603158770442
H           -2.17213068542202        0.33541775417864       -1.75598585955310
H           -1.72454282136510        1.59365430016460       -2.90495211567672
H           -0.96597479805029        1.37682966040570        0.85383027994160
H            0.15326762104741        2.22680179914326       -1.06710380690885
H            4.30248056600206       -1.69638923143486        0.92947679900226
H            2.12848059687098        1.20850474527266       -0.63430255034743
H            2.81338757169149       -1.15727360434604       -2.25121635221498
H            2.46353701409556       -1.70984594645743       -0.61179962377948
H            4.21139544152174        1.40567845398562       -1.81709120256905
H            6.46088550990611        2.00570849123743       -1.14143125491553
H            8.09629886833925        2.62122051906296        0.44988726167204
H            8.80312140559092        1.76510680494823       -0.95263325738490
H            9.63091911443787        1.73569835970757        0.62279424625409
H            7.31708678940347       -3.28920399541605        2.48725961987528
H            5.61017129057786       -2.79444114833263        2.43503541828394
H            6.34579446681761       -3.61709113479372        1.03222968370063
H            5.03887840748905       -2.35205702575263       -0.50870590459146
H           -0.45504903373784       -0.82030761286912       -2.97718490292368
H           -0.83699297916594       -1.35433128181784       -1.33125705156059
H            0.72135642932799       -1.76193254654424       -2.05521294351323
H           -5.02219392040952        2.60789334156502        0.12192205229216
H           -3.85851652179052        2.67149002394008        2.93115867041463
H           -4.89766459843729        1.39264188849064        2.28566654573609
H           -5.52535487332560        3.02772902649600        2.48046800383507
H           -3.03046343021582        4.54797647324777        1.36043686941127
H           -3.70434543944481        4.64658454378326       -0.27575987732358
H           -4.74660601814237        4.86437590083537        1.12063087343233
H           -0.75783451905810        2.90131708086230        2.60915505226224
72
 energy: -99.347818305066 gnorm: 0.007474206468 xtb: 6.6.1 (8d0f1dd)
N           -1.64609117699264        2.87233730390119        2.12190088400424
C           -1.76968279388944        2.05360190941413        1.18499135590010
C           -3.00456999506309        1.92326227315534        0.33558988487175
C           -3.47954542657338        0.47977302676812        0.36196180522958
C           -4.41991290730969        0.03068837625162       -0.56723253445931
C           -4.90627582471380       -1.26588294923082       -0.53619342396189
O           -5.81729104120137       -1.77831401495138       -1.39206596497596
C           -6.42081360473793       -0.93320837693583       -2.34236740672549
C           -4.43995685307850       -2.16516520066232        0.45928480322368
O           -4.96531953219860       -3.40777711815562        0.41426190328273
C           -4.62709356288122       -4.32783502278743        1.42522902599982
C           -3.51328948554932       -1.71101211107746        1.38378579769890
C           -3.04465713726183       -0.40542364145096        1.33661519243052
C           -2.57560438710352        2.34229753688604       -1.09711617376027
C           -1.70788268020017        1.31757374008192       -1.84037330388097
C           -0.29675928113681        1.29644184541433       -1.37559642719405
N            0.51431570964809        0.24048969129858       -1.46003261244193
C            1.78528864586076        0.27720956997297       -1.05249885314621
C            2.76862222954335       -0.83568369211852       -1.20045644563537
C            4.15607281249832       -0.43564126588040       -0.77620059513998
C            4.74654783673765        0.71859493111283       -1.17780761059158
C            6.04640736678301        1.07881934673974       -0.78276702624734
C            6.78879894804453        0.26318135996979        0.07243691488852
O            8.02774591724869        0.54587308235130        0.53793190371494
C            8.65744105986052        1.73946645937897        0.12946854855747
C            6.24300886329760       -0.94407698477354        0.52229095043153
O            6.99450932968064       -1.66946636478187        1.36107420980683
C            6.53018192812041       -2.90742485898316        1.84348988548183
C            4.89622245082293       -1.41408830901572        0.08151732140724
C           -0.04121896829110       -0.99486475238689       -1.98690302884097
C           -4.18962976517418        2.81752303193676        0.80728017706465
C           -4.64228402166028        2.44817920764550        2.21800439676074
C           -3.88822796135852        4.31238096009743        0.74171811651276
H           -4.78720807362699        0.71107982830845       -1.31769355761660
H           -6.93556892442684       -0.09457637156541       -1.86391477654945
H           -7.14894693580777       -1.55270116291531       -2.86231341302381
H           -5.69146306080586       -0.55184565898776       -3.06465237931314
H           -4.90325145248712       -3.95423308965441        2.41584716776834
H           -5.19993772291719       -5.22676492046359        1.20615916896202
H           -3.55880560482787       -4.56722161582930        1.41043928597708
H           -3.15689048809261       -2.36419733595363        2.16368679263447
H           -2.35049544381449       -0.07957593797006        2.09559767189581
H           -3.47659122184077        2.51669250627893       -1.68528161141473
H           -2.03736249626393        3.28843082609887       -1.03565976337856
H           -2.17194831223713        0.33446930097438       -1.75378355329548
H           -1.72629936137275        1.59135362005757       -2.90527566349732
H           -0.96491681317446        1.37505307677159        0.85414216277911
H            0.15333403454387        2.22660492706132       -1.06817113529338
H            4.29128380405777       -1.68621914030815        0.95132200916487
H            2.12799278187840        1.20742177486277       -0.63341535719971
H            2.81266348934833       -1.15801130027359       -2.25181186325917
H            2.46128639414042       -1.71054219263645       -0.61306972223959
H            4.21197008356291        1.39876571892430       -1.82419934548365
H            6.45853171657421        2.00504857756156       -1.14357732005671
H            8.09376481557871        2.62116588841798        0.44910808007793
H            8.80067356708628        1.76748849415777       -0.95476953919705
H            9.62864099635042        1.73624477485385        0.62056026376649
H            7.32436125603814       -3.28957527537658        2.48189939840012
H            5.61729712623724       -2.79384330875800        2.43654198020330
H            6.34689556873574       -3.61599766113579        1.03049252824809
H            5.02453645850481       -2.35290812732390       -0.48974804838863
H           -0.45705871422781       -0.82032532075079       -2.97858528145033
H           -0.83538689484646       -1.35536113372729       -1.33133209793882
H            0.72195436171112       -1.76123965555078       -2.05863052993002
H           -5.02086719822384        2.60765220595726        0.12334063619620
H           -3.85587810493599        2.67213521769517        2.93199347183904
H           -4.89490241340117        1.39277825996133        2.28736880475884
H           -5.52302463573309        3.02774000974518        2.48191528121293
H           -3.02805016134357        4.54767027162784        1.36028108001100
H           -3.70284045848721        4.64597684973216       -0.27556468093648
H           -4.74429993223096        4.86434148360992        1.12135153938839
H           -0.75573312398623        2.89933612984801        2.60944548851838
