25
 energy: -43.827697132506 gnorm: 0.099295492406 xtb: 6.6.1 (8d0f1dd)
C            3.24781594797844        1.17853439356943        0.08774234058288
N            2.31010381252439        0.09407267277846        0.04000720612472
C            2.61121415259522       -1.22137890675477        0.03563546031564
N            1.45784119715931       -1.92471270655512        0.00907647765383
C            0.41082875466212       -1.05638313781316       -0.01410761472624
C            0.93791439853955        0.23424826999064        0.00828176199773
C            0.10162556510083        1.37465999174838       -0.01749170799816
O            0.48381637081455        2.56421156598483       -0.01612703447151
N           -1.27229967542588        1.03218371692611       -0.03651907143694
C           -2.20968978173567        2.14432043859823       -0.05704058594697
C           -1.84019370043844       -0.25711596418046       -0.04778906664101
O           -3.03231700183776       -0.53348598584822       -0.06110818827428
N           -0.93162437346789       -1.32873253447536       -0.04317420376985
C           -1.53233785337246       -2.62324600769041       -0.05839407627269
H            3.73030718279017        1.22668748441187        1.06953533300109
H            4.02137824658377        1.04997487577459       -0.67295800088802
H            2.71294631986785        2.11429473733236       -0.08279918879170
H            3.59378657326494       -1.64310312410348        0.05552249566036
H           -1.64565948664719        3.07736336171419       -0.02701504796386
H           -2.80667065652294        2.10936718788145       -0.96728954768493
H           -2.86437420452492        2.09038881397651        0.80643553802417
H           -1.11969110494512       -3.22987807052775        0.73844170627176
H           -1.27635297800910       -3.13591461635976       -0.96989656104064
H           -2.69929494332666       -2.53803921227701        0.03661878262176
H            1.39725054654394       -2.92544718889918        0.00463224232606
25
 energy: -43.834447418923 gnorm: 0.037861224592 xtb: 6.6.1 (8d0f1dd)
C            3.24896908199927        1.18342009654527        0.08953320816244
N            2.31172620009935        0.10308428022479        0.03777676572106
C            2.61236391867157       -1.23233711653022        0.03618143313313
N            1.44018404115641       -1.93290736115144        0.00794727252216
C            0.40415510934864       -1.06109577796912       -0.01173694399689
C            0.92841150519033        0.22981779611600        0.00768972300277
C            0.09922922550660        1.37097941446358       -0.01647183469878
O            0.47184146086199        2.55640753134604       -0.01824107786851
N           -1.28000084487516        1.02866851414200       -0.03690187472986
C           -2.21802385149325        2.13815182296202       -0.05730962604350
C           -1.83415474284873       -0.23290777518803       -0.04722196689026
O           -3.02768028150670       -0.46231271413397       -0.06187339028142
N           -0.93776148428920       -1.32002051293367       -0.04055349691688
C           -1.50690365431475       -2.64007877421009       -0.06014803748388
H            3.73305161782938        1.23010499564191        1.07062603878564
H            4.01918760026815        1.05525884280298       -0.67452759108654
H            2.70566504151706        2.11219141710636       -0.08102586132341
H            3.59118831396915       -1.65453371731484        0.05610425243473
H           -1.63658514281494        3.05973676685269       -0.02789793253590
H           -2.81589278593723        2.10702140135838       -0.96788697795704
H           -2.87586968465981        2.08712359657122        0.80814293024203
H           -1.12800578461444       -3.24142176731866        0.76597619958926
H           -1.28366783626239       -3.14964410861070       -0.99575209758856
H           -2.61134205480576       -2.52649712360460        0.03543901829343
H            1.37623834017549       -2.93533967196552        0.00235131618796
25
 energy: -43.835545351789 gnorm: 0.016473373013 xtb: 6.6.1 (8d0f1dd)
C            3.25263438384327        1.18688838040403        0.08895007884452
N            2.31387979038980        0.11213860339160        0.03506278431339
C            2.62089097513359       -1.22795507960097        0.03660130113667
N            1.44485411651954       -1.93184825985350        0.00874844486346
C            0.40664091785778       -1.06666186935420       -0.01187339269871
C            0.92545284780069        0.22692474156040        0.00606113926213
C            0.09961835786054        1.36837245627061       -0.01655749173267
O            0.46824693486679        2.55242373922738       -0.01647858450489
N           -1.28549860990311        1.02019089429015       -0.03748383455031
C           -2.21448949479465        2.13809272605178       -0.05746806466300
C           -1.83207576950252       -0.23673939836868       -0.04689540429066
O           -3.02251719409417       -0.47716201410018       -0.05993682272887
N           -0.93880191602536       -1.32115603607750       -0.03838095322695
C           -1.53270851249700       -2.63535644778090       -0.05774547015947
H            3.73363554664575        1.22918249846303        1.07128178239171
H            4.02439977558564        1.05118419413113       -0.67232500516223
H            2.71498998907231        2.11715187449749       -0.08474268348471
H            3.60055932048293       -1.64188280631124        0.05600316471812
H           -1.63697776251451        3.06312156935690       -0.02767186288960
H           -2.81136938087625        2.10803095014898       -0.96771567586757
H           -2.87088353125307        2.08827368102828        0.80871167807315
H           -1.13778412263232       -3.23446904004366        0.75913045459246
H           -1.29315329396578       -3.13918098567516       -0.99136044050113
H           -2.63591593028790       -2.54244559839811        0.03081873801954
H            1.39269587045904       -2.93424871805530        0.00548556891879
25
 energy: -43.835643395498 gnorm: 0.009861597033 xtb: 6.6.1 (8d0f1dd)
C            3.24942487530281        1.18209621215142        0.09074119011344
N            2.31196668711923        0.11010053613249        0.03607144134151
C            2.61733195761026       -1.23367111754630        0.03701251791435
N            1.43789420570807       -1.93214965657290        0.00669915442390
C            0.40588467468033       -1.06536663357616       -0.01374905139761
C            0.92315630899733        0.22736176251204        0.00716123545690
C            0.10434552165165        1.37330047753846       -0.01624358029873
O            0.47438442872593        2.55554045421758       -0.01650526849008
N           -1.28735656423578        1.02161677102154       -0.03863270314388
C           -2.21526526629116        2.14132629051399       -0.05844588223874
C           -1.83156194142215       -0.23574914532250       -0.04915746362350
O           -3.02168827439436       -0.48725006340778       -0.06364707858428
N           -0.93715248719281       -1.31727876806232       -0.04059749723775
C           -1.53036403495073       -2.63391828679209       -0.05560518436075
H            3.73284954596477        1.22426719034855        1.07151375746294
H            4.01735931619996        1.05172530258987       -0.67518063947234
H            2.70721032959235        2.11039917230104       -0.07783986440275
H            3.59333708506360       -1.65134224784298        0.05479440592998
H           -1.64328634809370        3.06985739238869       -0.02766888783988
H           -2.81242178579400        2.10953413402892       -0.96812235556787
H           -2.87204341667165        2.08941397487921        0.80697143148747
H           -1.11506921145844       -3.22795989428463        0.75465978268172
H           -1.27399657066297       -3.13918627739133       -0.98401956598829
H           -2.63553786431724       -2.53577117392999        0.03896446202757
H            1.38692213703976       -2.93402635069245        0.00104509247985
25
 energy: -43.835795141832 gnorm: 0.005073990939 xtb: 6.6.1 (8d0f1dd)
C            3.25009171997674        1.18422201741549        0.08842979607225
N            2.31254347216775        0.11106182837951        0.03594876347365
C            2.61819357266055       -1.23215398156111        0.03934741862123
N            1.43934187222612       -1.93118647285031        0.00995155273256
C            0.40656138938330       -1.06587018811948       -0.01176688236018
C            0.92375050300367        0.22746305881963        0.00773424895279
C            0.10592111778548        1.37354088056208       -0.01652176605244
O            0.47305278809581        2.55610435044687       -0.01816750375657
N           -1.28643086146481        1.02052724373808       -0.03665933748935
C           -2.21473164139824        2.13897242243827       -0.05677599473052
C           -1.83168724441059       -0.23621654728712       -0.04631850361659
O           -3.02341748054805       -0.48522347143389       -0.06031753692626
N           -0.93665559908793       -1.31890777807804       -0.03989477349296
C           -1.53110702594681       -2.63665391634599       -0.05912067397383
H            3.73211005076240        1.23211693350076        1.06974041449207
H            4.02153322924491        1.05280383359513       -0.67392090170978
H            2.71053877164833        2.11356376530930       -0.08553957802612
H            3.59481461674098       -1.64875139978521        0.05675533764425
H           -1.63770369870001        3.06400914951477       -0.02720596682845
H           -2.81246102983028        2.10728885837537       -0.96639956102810
H           -2.87117182746533        2.08859098547709        0.80924366799509
H           -1.12945403384922       -3.23743656646190        0.75411489526882
H           -1.28256296659802       -3.14317740423449       -0.98948602407923
H           -2.63516381705247       -2.52852913102282        0.03116147422965
H            1.39041743082676       -2.93328841518962        0.00588688326121
25
 energy: -43.835772706894 gnorm: 0.005290584785 xtb: 6.6.1 (8d0f1dd)
C            3.25159660361676        1.18355556730685        0.09146623034521
N            2.31262565608741        0.11137095695066        0.03461781866651
C            2.61860193722670       -1.23090716883090        0.03493358065920
N            1.44001467996135       -1.93042116202324        0.00541750657028
C            0.40618518385129       -1.06558501906413       -0.01385106151500
C            0.92366656184809        0.22785171698861        0.00625199051434
C            0.10554089472591        1.37333877981616       -0.01641951387119
O            0.46965208505780        2.55613602429361       -0.01582598739799
N           -1.28727608337574        1.02110373549207       -0.03819369446312
C           -2.21578726930102        2.13928148706997       -0.05910451206415
C           -1.83288605515105       -0.23465346220353       -0.04789378548647
O           -3.02523907053868       -0.48057198951490       -0.06123714540723
N           -0.93759701356810       -1.31846467823421       -0.03984998183873
C           -1.52988124487008       -2.63747771626392       -0.05529478008317
H            3.73446080445662        1.22503609279589        1.07298208738953
H            4.02321506693794        1.05301507950676       -0.67109568897940
H            2.71507577496213        2.11583395413687       -0.07818251006483
H            3.59662544837375       -1.64572291560302        0.05153938736350
H           -1.63781928452859        3.06349141735639       -0.02836510977783
H           -2.81228659179089        2.10910364937303       -0.96979225683933
H           -2.87355808621348        2.08885989862030        0.80603432295726
H           -1.12992068833004       -3.23476168559803        0.76160476115715
H           -1.28771675379949       -3.14388196608640       -0.98726118352760
H           -2.63323089510133       -2.53973143845304        0.03732691441082
H            1.39226164763377       -2.93292910262949        0.00041205995543
25
 energy: -43.835828861869 gnorm: 0.002482398141 xtb: 6.6.1 (8d0f1dd)
C            3.24994460352177        1.18313902873766        0.08868088722585
N            2.31248834637673        0.11015479808459        0.03554823150476
C            2.61838210710814       -1.23248052318462        0.03905445061799
N            1.43932963150902       -1.93148674296336        0.00927023819162
C            0.40626611269334       -1.06619827592268       -0.01221787138702
C            0.92361597324311        0.22697237025556        0.00728982992072
C            0.10660434445422        1.37291581344589       -0.01656550162016
O            0.47116255468936        2.55534221829033       -0.01674466696637
N           -1.28711234848510        1.02118058806414       -0.03769266763428
C           -2.21530091770579        2.13984801701781       -0.05712801645558
C           -1.83225474064569       -0.23441389504669       -0.04796322888904
O           -3.02405694808211       -0.48157374019748       -0.06217225290711
N           -0.93719717406734       -1.31791894399796       -0.04003850794654
C           -1.52959104092378       -2.63614332945834       -0.05819982642571
H            3.73322841751623        1.22831755977829        1.06979993520457
H            4.02018406216503        1.05143302554383       -0.67509843333283
H            2.71039447618555        2.11324156413496       -0.08334405413414
H            3.59617798088770       -1.64756422839942        0.05731447487231
H           -1.63955837443191        3.06556021689894       -0.02698702795868
H           -2.81301600973017        2.10903434242750       -0.96685979320046
H           -2.87172021286767        2.08869196088584        0.80889074337556
H           -1.12646576727084       -3.23312502704692        0.75684489534179
H           -1.28285192849253       -3.13961423253191       -0.99028756099120
H           -2.63358445962743       -2.53841913636756        0.03325278964727
H            1.39125462015121       -2.93402337324602        0.00557238261987
25
 energy: -43.835819597647 gnorm: 0.003143867410 xtb: 6.6.1 (8d0f1dd)
C            3.24973620765730        1.18384061864529        0.09038904481573
N            2.31273057094898        0.11043426489527        0.03549671493712
C            2.61831109500829       -1.23264044749379        0.03717707053171
N            1.43914225192848       -1.93139979723262        0.00720384471359
C            0.40655207662906       -1.06640306967194       -0.01256130031704
C            0.92366027921553        0.22700729231883        0.00731675014742
C            0.10729147463514        1.37308803800941       -0.01649575900812
O            0.47177773456933        2.55560407117324       -0.01814685874974
N           -1.28702721991707        1.02016330453511       -0.03702634748999
C           -2.21474136594581        2.13897354791211       -0.05799632138948
C           -1.83164099088689       -0.23579795345914       -0.04625070505894
O           -3.02295933665531       -0.48513047414170       -0.05980451768811
N           -0.93649576023093       -1.31867468306627       -0.03954618774559
C           -1.53092105426679       -2.63602007453841       -0.05727085179631
H            3.73149188054929        1.22992176911644        1.07214653592662
H            4.02136603594641        1.05372747271162       -0.67219579404039
H            2.70978744274005        2.11348702702936       -0.08198360841208
H            3.59553047535100       -1.64839321766002        0.05357143334884
H           -1.63884575300531        3.06471568805078       -0.02868927080650
H           -2.81184762804895        2.10666785504830       -0.96799432162067
H           -2.87152154622226        2.08882280333317        0.80772897468235
H           -1.12795651957220       -3.23453547976766        0.75652375413707
H           -1.28290390809830       -3.14200735598405       -0.98756122855069
H           -2.63517590979719       -2.52879283205731        0.03413615808751
H            1.39098277563916       -2.93378831250366        0.00205224001889
25
 energy: -43.835841792485 gnorm: 0.001111307337 xtb: 6.6.1 (8d0f1dd)
C            3.25073966443198        1.18341795170662        0.08938834141752
N            2.31256307772863        0.11078971553490        0.03532794669701
C            2.61790400501303       -1.23202287475376        0.03797976069585
N            1.43885714986498       -1.93075580582313        0.00832647234332
C            0.40602915323915       -1.06579081816029       -0.01263069964462
C            0.92339305813244        0.22767564936728        0.00720714632873
C            0.10681348860515        1.37355840030367       -0.01633585287323
O            0.47070796524279        2.55621732358565       -0.01667874015544
N           -1.28757379670354        1.02070783552320       -0.03764467795989
C           -2.21534009397525        2.13951130603842       -0.05754027282946
C           -1.83241589560985       -0.23520505503882       -0.04788538036755
O           -3.02398012689357       -0.48368087491129       -0.06191671245595
N           -0.93710566887675       -1.31848024790953       -0.04015749510652
C           -1.52999245092270       -2.63682980309859       -0.05755350376961
H            3.73380703238233        1.22825728301748        1.07059112523782
H            4.02166355633110        1.05204830321494       -0.67375178547267
H            2.71245004699354        2.11416934925565       -0.08237338963918
H            3.59533170633762       -1.64759519823879        0.05529285069928
H           -1.63862320035394        3.06465770194549       -0.02689463265380
H           -2.81246340769348        2.10904015388355       -0.96767349283607
H           -2.87235728216928        2.08868695581531        0.80802118940822
H           -1.12749432615331       -3.23482755119371        0.75699441965486
H           -1.28311783233915       -3.14265691250780       -0.98826125728199
H           -2.63422550068901       -2.53482403347075        0.03412100128290
H            1.39075298624814       -2.93319869888333        0.00426708795365
25
 energy: -43.835825015037 gnorm: 0.002607300856 xtb: 6.6.1 (8d0f1dd)
C            3.24913834468558        1.18357253953700        0.09003246455738
N            2.31279924121398        0.10970037604354        0.03542724044871
C            2.61879559607124       -1.23266975269153        0.03788719401737
N            1.43993502144708       -1.93173339234871        0.00763596913456
C            0.40649573217724       -1.06668918184652       -0.01250294187696
C            0.92388603708628        0.22663185558026        0.00700989507124
C            0.10801941470750        1.37275914035475       -0.01703532869755
O            0.47229310108484        2.55512368861165       -0.01797290988840
N           -1.28668187341461        1.02118724412535       -0.03735456572130
C           -2.21487954122817        2.13959980188876       -0.05801409657164
C           -1.83201957679833       -0.23409292412689       -0.04618717135128
O           -3.02390382436554       -0.48091131399918       -0.05956444927597
N           -0.93705797652722       -1.31814626515886       -0.03935846069520
C           -1.52996182915025       -2.63602602539931       -0.05768403647308
H            3.73142876449986        1.22855625499416        1.07164624385815
H            4.02000103933826        1.05346918741239       -0.67335557876426
H            2.70839961947300        2.11309937506756       -0.08153870320203
H            3.59683089568181       -1.64751003359022        0.05562785403244
H           -1.63910788203440        3.06533307038567       -0.02974597302335
H           -2.81310327775023        2.10717550024730       -0.96739787478157
H           -2.87091430871837        2.08961880428395        0.80838807731779
H           -1.12749165675154       -3.23376656092805        0.75711173177122
H           -1.28483930657233       -3.13916819096815       -0.99034622051843
H           -2.63394526432870       -2.53789523623935        0.03437381825500
H            1.39220681834407       -2.93434790603318        0.00313727105035
25
 energy: -43.799251841652 gnorm: 0.149257698862 xtb: 6.6.1 (8d0f1dd)
C            3.25866973733786        1.19043375474972        0.09141076944308
N            2.32145070500047        0.11285455670313        0.04031498669384
C            2.64210975478515       -1.22137040198976        0.04439815902358
N            1.47757054221359       -1.91427362500916        0.01732394632509
C            0.43132328444003       -1.05607385916050       -0.02087378675514
C            0.94321675690313        0.25253741864142       -0.00465605338535
C            0.10403385340821        1.34398241607404       -0.03206180720855
O            0.45368440230619        2.56564503598331       -0.03512717251939
N           -1.29439185913284        1.00232874823429       -0.04362768894972
C           -2.19948685292190        2.13559209001996       -0.06596023999627
C           -1.86523425538741       -0.31343712644964       -0.04939813356205
O           -3.05085977730370       -0.69159154342410       -0.05152969771498
N           -0.94417695293762       -1.35413434167823       -0.03907366405764
C           -1.59604026751914       -2.60389402269858       -0.05619932905935
H            3.74847963620785        1.23838570692356        1.07335472971608
H            4.03440828774938        1.06593083561013       -0.67166484725089
H            2.72767664073278        2.12978446474320       -0.07376475716244
H            3.61955085527564       -1.64101474140452        0.07257817496985
H           -1.61992481967165        3.06204545070523       -0.02874050133286
H           -2.79043899434168        2.12635640267486       -0.98103880042564
H           -2.85473482134766        2.10468172605445        0.79705240770363
H           -1.06927067550716       -3.27297456090415        0.64777874897872
H           -1.40712847035730       -3.10195636440216       -0.99539165483773
H           -2.81989716549024       -2.53054788872843        0.17507215635984
H            1.42228662393222       -2.91367958902972        0.01957317558199
25
 energy: -43.820326474710 gnorm: 0.050604278256 xtb: 6.6.1 (8d0f1dd)
C            3.25613711167428        1.19172628248558        0.09229154698113
N            2.31726134437065        0.11350708207056        0.03787337977076
C            2.63009203230837       -1.22669762824818        0.04500043575250
N            1.45823911204920       -1.92556876790057        0.01666104908134
C            0.41440525017592       -1.06956922670182       -0.01556315235800
C            0.92900137887347        0.23444783710310       -0.00326444063746
C            0.09192379439090        1.34614544513029       -0.02965724744964
O            0.44038900591294        2.54629528388633       -0.03665601898891
N           -1.30295566255125        1.00135336819578       -0.04361105224852
C           -2.21302232807077        2.12994374600473       -0.06612679560661
C           -1.85115966430149       -0.27588034455010       -0.04703906887788
O           -3.04075358943144       -0.56489636199669       -0.05569801155394
N           -0.94508460804554       -1.34397444866478       -0.03394479928909
C           -1.55346107781161       -2.64071145809841       -0.05419966653962
H            3.74621961786977        1.23800639961972        1.07230634341084
H            4.02897704298726        1.06836775553133       -0.67205779460465
H            2.71951393614129        2.12569743045805       -0.07355107298688
H            3.61001694307387       -1.64324568957820        0.07247721410934
H           -1.61392845744720        3.04268470726765       -0.03052694143632
H           -2.80303138381692        2.12283941540755       -0.98201585860218
H           -2.87094884872341        2.09980290708503        0.79920257915838
H           -1.07918265437029       -3.29501876330991        0.68721956844754
H           -1.42842452336669       -3.11525070052757       -1.02732673075954
H           -2.67395821820145       -2.51626822068469        0.16015124729100
H            1.40661061468434       -2.92812550774647        0.01780440851410
25
 energy: -43.821823683763 gnorm: 0.021355399768 xtb: 6.6.1 (8d0f1dd)
C            3.26223026508786        1.19706533354881        0.09285113530960
N            2.32165220981492        0.12119193446902        0.03482731782593
C            2.63610816831611       -1.22083612454224        0.04480301755925
N            1.46145719042825       -1.92418709078491        0.01583199082408
C            0.41306527243781       -1.07465909569814       -0.01646463562433
C            0.92742421613100        0.22829762195608       -0.00600369605222
C            0.08931947965116        1.34872313031637       -0.03217403986855
O            0.43661802370055        2.54130818943046       -0.03652659550928
N           -1.30818394110225        0.98988947448613       -0.04601929273130
C           -2.20931142209230        2.12720138749137       -0.06641859212811
C           -1.84936520981542       -0.27647794391057       -0.04678494350904
O           -3.03150236756109       -0.57124049460686       -0.04945191434295
N           -0.94393689860385       -1.34135508234788       -0.03103104023625
C           -1.58297041313783       -2.63492316448221       -0.04798135605430
H            3.74992549906043        1.23919214841840        1.07345859329147
H            4.03526633568688        1.06842184106165       -0.67010380978093
H            2.72860817124498        2.13129446002274       -0.07469708635340
H            3.61802598227162       -1.63442986644232        0.07295270468812
H           -1.60926613407717        3.04017512407770       -0.03038769389127
H           -2.79848240067807        2.12255239711731       -0.98148543912906
H           -2.86499640537574        2.09888163692973        0.79998146021445
H           -1.09615851590123       -3.27732639360658        0.67789315626269
H           -1.43411580859050       -3.10182189220373       -1.01755830186035
H           -2.69732297715897       -2.55458625805572        0.15084816133452
H            1.41878784863705       -2.92674073040629        0.01939002033891
25
 energy: -43.822155737894 gnorm: 0.012349373287 xtb: 6.6.1 (8d0f1dd)
C            3.25962498481582        1.19465178140721        0.09359723422534
N            2.32175540216352        0.11972936508982        0.03602059063192
C            2.63565812410450       -1.22474026068786        0.04614760825459
N            1.45842712147237       -1.92548232956866        0.01558637142352
C            0.41288249816085       -1.07484384645701       -0.01831599714488
C            0.92655021416355        0.22626363572730       -0.00346247937233
C            0.09215204079667        1.35439026648982       -0.02867076112809
O            0.44235094182343        2.54340324561679       -0.03239388376529
N           -1.31007238319304        0.98737177424292       -0.04608317761704
C           -2.21084638545367        2.12853443341332       -0.06700922179918
C           -1.84914662249462       -0.27868094281606       -0.05112872738410
O           -3.02873107482491       -0.58450330992219       -0.06088688680009
N           -0.93883979083979       -1.33985853153128       -0.03564075422361
C           -1.58462432748942       -2.63622771355408       -0.04769825965440
H            3.74735813457597        1.23655341147278        1.07358991989167
H            4.02876179683131        1.06684976816457       -0.67313445890447
H            2.72072194569521        2.12572381217054       -0.07238704680187
H            3.61515433921987       -1.64306838811737        0.07230543931037
H           -1.61859618447040        3.04678719255771       -0.02936882543005
H           -2.79954973922624        2.12313890078281       -0.98188807421043
H           -2.86850783243186        2.09927041370963        0.79738051884130
H           -1.07777805515837       -3.27419508556491        0.66691333312679
H           -1.42266299993444       -3.10362947561329       -1.01587184896584
H           -2.69515496635727       -2.52439804383381        0.17429938790471
H            1.41598898642517       -2.92742953094039        0.01784912016913
25
 energy: -43.822283416448 gnorm: 0.007568225293 xtb: 6.6.1 (8d0f1dd)
C            3.25946391027175        1.19539823352169        0.09233329287129
N            2.32091427878797        0.12090885789666        0.03539900484178
C            2.63486710500423       -1.22364501374427        0.04674987757575
N            1.45750779488600       -1.92401859113750        0.01759996742391
C            0.41241046007251       -1.07303061855459       -0.01475732029515
C            0.92631956986875        0.22788846728844       -0.00350008623441
C            0.09382450113845        1.35623068162644       -0.03167165455924
O            0.44182512841377        2.54591347369252       -0.04056483225438
N           -1.30970778782533        0.98788864854015       -0.04353996176098
C           -2.20963765968625        2.12982151692819       -0.06516658410457
C           -1.85149291443051       -0.27909091480288       -0.04449079224249
O           -3.03357477677347       -0.58557125948758       -0.04989290267482
N           -0.93858342490240       -1.34089788040645       -0.03251801646977
C           -1.58109783607091       -2.64156911506303       -0.04873889384665
H            3.74668389778375        1.23939188880659        1.07248794214534
H            4.03118417411940        1.06748878500690       -0.67184822519720
H            2.72360743079187        2.12801825858960       -0.07556499177479
H            3.61359575035737       -1.64231446359423        0.07160421855007
H           -1.61230454309758        3.04476919020494       -0.03089426951732
H           -2.80051364083227        2.12376569731427       -0.97907640856619