25
 energy: 0.000000000000 xtb: 6.6.1 (8d0f1dd)
C            3.23720132972391        1.16630909158653        0.08434468864950
N            2.29877796055224        0.07527476373246        0.03981602671198
C            2.58028186251803       -1.21425391179017        0.03006175752192
N            1.43813944744728       -1.93419254010258        0.00098261751768
C            0.39035684826767       -1.05887462812143       -0.00790371763344
C            0.93510047688824        0.21347817468824        0.01709077332874
C            0.09450143016486        1.40504290868848       -0.00410946993748
O            0.49712746915594        2.54126690785742       -0.00342325656480
N           -1.25076628431515        1.06271869620815       -0.03085477937476
C           -2.21907191394203        2.15522079838987       -0.05001256521996
C           -1.81739470187490       -0.20012724136556       -0.04692818139228
O           -2.99983858926755       -0.37846413507442       -0.07008877579474
N           -0.92618577614240       -1.30210203518959       -0.03682761236648
C           -1.46982251276835       -2.64643077634382       -0.06029819901142
H            3.71247229913541        1.21471443890471        1.06488839270555
H            4.00791460421487        1.03430799217987       -0.67357688121503
H            2.69909982127087        2.09770098766290       -0.09130154035862
H            3.56654087521359       -1.63682977417947        0.04233139674524
H           -1.67107945562430        3.09322822573871       -0.02552706696334
H           -2.82428927394145        2.09428605349656       -0.95318074103337
H           -2.87644002486466        2.07745706351925        0.81450059976605
H           -1.17061985538665       -3.19584861009707        0.83242224714061
H           -1.14560246782873       -3.17511580834413       -0.95688266944647
H           -2.55549768731684       -2.55659960601237       -0.07459039105944
H            1.38130842369251       -2.94313824728853       -0.01389874052104
25
 energy: -3.398820039137 xtb: 6.6.1 (8d0f1dd)
C            3.24587068547295        1.18293428202415        0.10309983575385
N            2.31438845173585        0.08227698881674        0.04523469514555
C            2.59717573051517       -1.24987002434442        0.01769763940412
N            1.42228768010948       -1.95573664253535       -0.01788419215707
C            0.39378913335341       -1.06937154317931       -0.01985207145659
C            0.93461057684411        0.20713563514452        0.00398403134185
C            0.10960809570568        1.38258437948180       -0.01218103569968
O            0.51182943440548        2.54564096746899       -0.00706491987430
N           -1.25386221216069        1.04508689125752       -0.03028395865837
C           -2.20894853463032        2.14657546808415       -0.04011678484020
C           -1.82261305340941       -0.20370156131313       -0.04511833858868
O           -3.01998718999808       -0.37999160999492       -0.06070134154819
N           -0.93880711468043       -1.30877954711720       -0.04139708877160
C           -1.48686362284754       -2.64768820844322       -0.06036266918819
H            3.68522374970871        1.45654306121760        1.10599410838884
H            4.05937830635707        0.99797567224816       -0.60204530687169
H            2.69834191610175        2.08396391568497       -0.15783597548084
H            3.57102354903660       -1.68413882737992        0.00743888654088
H           -1.64539565183505        3.07676398931179       -0.01215764975307
H           -2.81709256685573        2.10011841315054       -0.94299446886131
H           -2.86502399611445        2.07455374785896        0.82665015306192
H           -1.18504942977915       -3.20098269311851        0.83102990113847
H           -1.16712265654942       -3.18181529078051       -0.95712086438031
H           -2.57197539447488       -2.55094633245302       -0.07017157344977
H            1.35142841896141       -2.96010234234638       -0.03680709900104
25
 energy: 6.818495658192 xtb: 6.6.1 (8d0f1dd)
C            3.25102484059075        1.20440671751721        0.12713755656429
N            2.33675179701401        0.08539976940634        0.06088114811225
C            2.61196473912862       -1.29060166371351       -0.00129612083408
N            1.40331400204775       -1.97641290291014       -0.04770050492503
C            0.39824439782533       -1.08315589006921       -0.03809149543608
C            0.93707290466402        0.19709844261213       -0.00549432977338
C            0.13200550344192        1.34835770569198       -0.01881461853846
O            0.52125180838738        2.53103575612286       -0.01369741364788
N           -1.25632055174536        1.02442215353359       -0.02779419407565
C           -2.19229212398636        2.13838836124466       -0.02545989425124
C           -1.82184056205374       -0.20813939698910       -0.04020564568266
O           -3.02825905679840       -0.38230466955435       -0.04523459647863
N           -0.95187285073344       -1.31618603025828       -0.04853071648566
C           -1.50902649662451       -2.64895573240300       -0.06045879753036
H            3.61275260207510        1.79873511206247        1.15594837328729
H            4.14438510221538        0.93086362060918       -0.46945502368282
H            2.69915753842429        2.06311856030297       -0.28110554228074
H            3.56901751200264       -1.74414564293487       -0.05532985051439
H           -1.60936122990178        3.05803086235842        0.00843764443589
H           -2.80474884432191        2.11074319488280       -0.92710118934331
H           -2.84695742795737        2.07079666618049        0.84331711251164
H           -1.20768863767591       -3.20853339503113        0.82929359224177
H           -1.20099476074251       -3.19282466368536       -0.95737101475847
H           -2.59385439068564       -2.54256039312036       -0.06298132441088
H            1.31848849038234       -2.97854775311177       -0.07185924230879
25
 energy: 20.094668961238 xtb: 6.6.1 (8d0f1dd)
C            3.24692116356877        1.22956726652615        0.14782163302941
N            2.35005915530501        0.08615401651727        0.07409201070908
C            2.61602589693025       -1.31162986791962       -0.01545869853607
N            1.39617679025252       -1.98933584021344       -0.07509726933429
C            0.39929979938736       -1.09705656292219       -0.05281002749443
C            0.94090107304509        0.18499526141875       -0.00764787569210
C            0.14516862271162        1.32922355905003       -0.02354827444569
O            0.52289834872996        2.51553593949614       -0.02673167505288
N           -1.25548294641192        1.01257217809437       -0.02752278590209
C           -2.17691296160461        2.13406529163973       -0.01507636506887
C           -1.82050065177039       -0.21534438128570       -0.03526115701439
O           -3.02912604926977       -0.38792560595133       -0.03046126482488
N           -0.95775766613469       -1.32543587010542       -0.05455144773266
C           -1.52846803828310       -2.65321497444543       -0.05719558306990
H            3.53648357909587        2.04455845337079        1.17641958843089
H            4.21311830425617        0.89007412926231       -0.32151405070031
H            2.72447978999926        2.04489019070885       -0.39139371955031
H            3.56241271875286       -1.78465882957387       -0.12221799066453
H           -1.57792117035074        3.04340118868739        0.02412335173541
H           -2.79129364137483        2.12030667157041       -0.91567618923082
H           -2.82906942053594        2.06719999661650        0.85553615946912
H           -1.23090558517903       -3.21485808037148        0.83293709330459
H           -1.23589115509843       -3.20697039436435       -0.95366495875318
H           -2.61314379498703       -2.53457380162958       -0.05235112505710
H            1.30474214393834       -2.99251114543223       -0.10571546635934
25
 energy: 28.788140635103 xtb: 6.6.1 (8d0f1dd)
C            3.24339060525089        1.24027163922780        0.15866755612082
N            2.35506869385061        0.08302101305051        0.07908961937795
C            2.61289142040848       -1.31832391959319       -0.02245938904848
N            1.39643792872602       -1.99600522264527       -0.09411792462538
C            0.39695463172752       -1.10795526728209       -0.06177473404914
C            0.94430048622144        0.17294147969214       -0.00427385928241
C            0.15041730246817        1.32196280726469       -0.02686128150475
O            0.52114097435660        2.50085808784286       -0.04034172372543
N           -1.25256062663248        1.00741481992531       -0.03011240220851
C           -2.16624906819390        2.13219797241523       -0.01111293016735
C           -1.81963513435800       -0.22230967172179       -0.03243612564724
O           -3.02605874875186       -0.39205723483976       -0.02017712827035
N           -0.95923309847453       -1.33369504570870       -0.05903883308705
C           -1.54239390239873       -2.65836055755948       -0.05274272527089
H            3.49051572887135        2.20386908600801        1.17218088380508
H            4.23487943781252        0.88522591794408       -0.20845567913162
H            2.77348784633733        2.01599523352994       -0.43980283444581
H            3.55056069609547       -1.80430215891694       -0.18060858560397
H           -1.55882937660924        3.03491872322662        0.03207067376482
H           -2.78057849325846        2.12766215868928       -0.91118951478365
H           -2.81712768768050        2.06439768217707        0.85996845499256
H           -1.24928287799520       -3.21889677730764        0.83899775751115
H           -1.26287855448325       -3.21984684086775       -0.94788490599050
H           -2.62665271628720       -2.52890686054207       -0.04301093153732
H            1.30364883796962       -3.00104827526485       -0.12753952499782
25
 energy: 33.566281606032 xtb: 6.6.1 (8d0f1dd)
C            3.24287411071306        1.23151481583740        0.15827561037056
N            2.35287463057932        0.07803027240130        0.07189749725214
C            2.60661138948881       -1.31325987184565       -0.01548919155551
N            1.40019750429923       -1.99572882298335       -0.10317613116453
C            0.39264618166802       -1.11156351969245       -0.06736823069060
C            0.94558380442113        0.16607295320430       -0.00448246095659
C            0.14998836011493        1.32458579773797       -0.02871068948225
O            0.52019110257997        2.49344292318324       -0.04387994350193
N           -1.24889810046344        1.00785811732257       -0.03062987716741
C           -2.16392524338194        2.13173239660040       -0.00404633681506
C           -1.82001466310305       -0.22564273464589       -0.03112633463534
O           -3.02350176707997       -0.39125002820909       -0.01241088166485
N           -0.95815807988015       -1.33708486951557       -0.06360984426050
C           -1.54601523252653       -2.66139443128682       -0.05422498223048
H            3.45134516788401        2.30024849385000        1.16720672122516
H            4.24443624508004        0.86236699815250       -0.11849882379405
H            2.82555873065068        1.97606023679843       -0.50238036155966
H            3.53712646699362       -1.79990237056953       -0.20939558365974
H           -1.55891434311499        3.03461382761691        0.04239491388120
H           -2.77891272059800        2.13240379029666       -0.90320231316287
H           -2.81391807302282        2.05968897175910        0.86713012577326
H           -1.25304277720331       -3.22087768044720        0.83738897540363
H           -1.27167897373013       -3.22273894300214       -0.94945167599072
H           -2.62966955321436       -2.52826203074602       -0.04214814074729
H            1.30943013781851       -3.00188550307303       -0.13302812867192
25
 energy: 34.951719018183 xtb: 6.6.1 (8d0f1dd)
C            3.24166631104417        1.21753665633709        0.15110698578952
N            2.34748741190699        0.07552548288174        0.05614628103105
C            2.60150375924334       -1.30454756865403       -0.01041469481447
N            1.40148928354992       -1.99215010442461       -0.10459844799953
C            0.38876276131159       -1.10976729089855       -0.06964504134676
C            0.94382649756387        0.16546392731515       -0.00833455219318
C            0.14646046127122        1.32838136670579       -0.02919393333382
O            0.51895515974670        2.49215890796765       -0.04434730066103
N           -1.24724913968510        1.00873450288252       -0.02978992809268
C           -2.16610289398887        2.13105602024479       -0.00132685468810
C           -1.82129815627869       -0.22647606440961       -0.02984914855947
O           -3.02276879523052       -0.38923063824426       -0.00856666501354
N           -0.95794321527767       -1.33680266728401       -0.06470285101681
C           -1.54456465875685       -2.66236216628396       -0.05552807975581
H            3.43777558891572        2.32821529028127        1.15633056162030
H            4.24409621207222        0.84497439084212       -0.07042168840985
H            2.86706227624155        1.95286873833568       -0.51782514712086
H            3.52995226052647       -1.78642634366879       -0.22299211331208
H           -1.56506467398161        3.03659533351938        0.04605628220267
H           -2.78150416399934        2.13154192948462       -0.90011283333541
H           -2.81581131548407        2.05619752503381        0.86981294331626
H           -1.24947464456209       -3.22110653395846        0.83547408464827
H           -1.26943206041464       -3.22159241629664       -0.95124712181946
H           -2.62802439337288       -2.53099851307131       -0.04257751826955
H            1.31241443261127       -2.99876097589336       -0.12641930667100
25
 energy: 35.645740548489 xtb: 6.6.1 (8d0f1dd)
C            3.24052489304069        1.20685728350672        0.14741279577056
N            2.34354902744779        0.07534667519166        0.04455468021928
C            2.59963550481220       -1.29926970296563       -0.00409367702282
N            1.40103151283107       -1.99017118266337       -0.10442617623579
C            0.38708712212323       -1.10739606982027       -0.07140714233727
C            0.94160159620016        0.16728623166176       -0.01395663809557
C            0.14309998438223        1.33115080270593       -0.02939680574048
O            0.51820549787489        2.49460753102665       -0.04055839538418
N           -1.24744274099989        1.00954410962384       -0.02724143921014
C           -2.16940169274934        2.13076725596553        0.00281023209522
C           -1.82245313363514       -0.22613120320261       -0.02880177847740
O           -3.02370316092306       -0.38794210956104       -0.00628564770190
N           -0.95830453229298       -1.33560796462263       -0.06526413218734
C           -1.54203954882382       -2.66236397637541       -0.05820221412587
H            3.42692224693415        2.34533208057513        1.15740229966988
H            4.24992885121637        0.81860184557454       -0.03365889154160
H            2.89301677420033        1.94337655628197       -0.55408073436460
H            3.52816506329715       -1.77653083585978       -0.22754508395346
H           -1.57129161434870        3.03867912880114        0.05041758136345
H           -2.78549857587483        2.13006522122628       -0.89561139021183
H           -2.81836992876235        2.05378997511423        0.87433868838097
H           -1.24450598007712       -3.22170985577935        0.83165573580351
H           -1.26457113538746       -3.21881022317303       -0.95506205752794
H           -2.62557413615512       -2.53381088305008       -0.04477300165087
H            1.31260241064224       -2.99663190143816       -0.12119289533919
25
 energy: 35.763593476962 xtb: 6.6.1 (8d0f1dd)
C            3.23994612723967        1.20439545530789        0.14590582608199
N            2.34347464141421        0.07525790082576        0.04122208669358
C            2.60049043043393       -1.29969755103638       -0.00364087730921
N            1.40027743776008       -1.99091009406408       -0.10354181836151
C            0.38772492466126       -1.10716387620307       -0.07122966322336
C            0.94139479741336        0.16788895270722       -0.01572792669414
C            0.14260697521279        1.33062882811172       -0.02980033527182
O            0.51881316683699        2.49478474744173       -0.03942752190159
N           -1.24743201280093        1.00951111845925       -0.02678955688059
C           -2.16949721249972        2.13099116797290        0.00177216133538
C           -1.82212855694181       -0.22579405237194       -0.02883528855589
O           -3.02360498510145       -0.38787359901956       -0.00721895962002
N           -0.95843529339895       -1.33522805904154       -0.06433399273106
C           -1.54180880768765       -2.66202292542511       -0.05782629550235
H            3.43437153907693        2.34291474875774        1.15692270348564
H            4.24135077951094        0.82232058751817       -0.03768980458263
H            2.89207214839317        1.94366012975816       -0.54270218035522
H            3.52962970385501       -1.77598712270161       -0.22846555360219
H           -1.57099051163364        3.03894230954506        0.04869028722138
H           -2.78538546488847        2.12900960370245       -0.89684662686007
H           -2.81851578010862        2.05470053137068        0.87327094687863
H           -1.24443366575538       -3.22162088802580        0.83205495879287
H           -1.26355865896310       -3.21858527848838       -0.95475290971708
H           -2.62546936652438       -2.53389489392800       -0.04471558536768
H            1.31132194946844       -2.99719895242925       -0.11926016175837
25
 energy: 36.760596807573 xtb: 6.6.1 (8d0f1dd)
C            3.23887960884514        1.20154101619209        0.14077864855677
N            2.34299536018590        0.07562089261329        0.03274328027669
C            2.60125973421655       -1.30089471256654       -0.00357908063326
N            1.39879013816938       -1.99254060519226       -0.10334312534040
C            0.38832464880531       -1.10750403409632       -0.07244674362471
C            0.94061494838248        0.16823139080177       -0.02105781614777
C            0.14145402662215        1.32972055666051       -0.03112106400651
O            0.51897938521914        2.49449390312116       -0.03846750796296
N           -1.24800476302777        1.00947572885849       -0.02581944876198
C           -2.16990430503913        2.13133156167019        0.00180635496451
C           -1.82200535702856       -0.22559930973671       -0.02854232781439
O           -3.02394591834005       -0.38818221741248       -0.00769517940936
N           -0.95897732377342       -1.33511681905055       -0.06327072189547
C           -1.54190632500164       -2.66187409301972       -0.05711697225471
H            3.43778702208676        2.35018368803869        1.15969930961104
H            4.24326239708454        0.82065901332040       -0.03284732820263
H            2.89302216744677        1.94540144622775       -0.53362434919046
H            3.53045545894838       -1.77585328329119       -0.23098602304321
H           -1.57074274948960        3.03904159026252        0.04789520168205
H           -2.78585488810584        2.12815022712905       -0.89680023135992
H           -2.81849583362796        2.05570868215867        0.87357625531009
H           -1.24437460825433       -3.22176528760275        0.83265382534982
H           -1.26313304592191       -3.21845013168212       -0.95424194710156
H           -2.62568819970612       -2.53419963466600       -0.04406488377552
H            1.30942272627653       -2.99855077999390       -0.11709421303150
25
 energy: 42.501476566152 xtb: 6.6.1 (8d0f1dd)
C            3.23516912666756        1.18424135684558        0.12120372436649
N            2.34124840673701        0.07392674345743        0.00184159067331
C            2.60306059135178       -1.30740835091966        0.00149307691180
N            1.39256130956693       -2.00067412008277       -0.10145317321863
C            0.39004155920319       -1.11029513480332       -0.07662799241762
C            0.93830404804801        0.16723660598160       -0.04013759805937
C            0.13739429095243        1.32594861330460       -0.03468520656565
O            0.52074258937751        2.49123249618328       -0.03291803698306
N           -1.24905997928442        1.00976849501396       -0.02113190086111
C           -2.17069774535053        2.13291817987766        0.00353550571552
C           -1.82117935319007       -0.22496121344467       -0.02758154218936
O           -3.02458195969333       -0.38857634539339       -0.01086158023299
N           -0.96103945106493       -1.33504889622674       -0.05971092702684
C           -1.54280298214349       -2.66150221605449       -0.05673562792447
H            3.45763074807974        2.40784319565067        1.17717584821076
H            4.23979590873684        0.80939685626395       -0.01185030136471
H            2.90076366961017        1.94823900778073       -0.51435482136198
H            3.53142783021836       -1.77703622689237       -0.24204568527550
H           -1.56993952718650        3.04001293326625        0.04759672282634
H           -2.78666772459263        2.12600065631065       -0.89515235858799
H           -2.81808362107924        2.05879800449790        0.87590833909855
H           -1.24513965562699       -3.22311522858867        0.83224339759814
H           -1.26173055749093       -3.21697956542634       -0.95489458480696
H           -2.62692855087678       -2.53535941108307       -0.04439400698160
H            1.30192533400301       -3.00557764677475       -0.10942894934836
25
 energy: 49.293405488510 xtb: 6.6.1 (8d0f1dd)
C            3.23126871299690        1.16156969737320        0.09945845843713
N            2.33948450173850        0.06856543068195       -0.02797054386790
C            2.60291705661450       -1.31515437544112        0.00421809829072
N            1.38592678169526       -2.00966539431979       -0.10108428363825
C            0.39029615867278       -1.11430867036816       -0.08138980480001
C            0.93659796129838        0.16375040567556       -0.05813936057935
C            0.13442857744728        1.32203212620286       -0.03790236681041
O            0.52289024559400        2.48614663089979       -0.02945249678645
N           -1.24911179270995        1.01009613283398       -0.01672347596183
C           -2.17066136703899        2.13438803734418        0.00614697291725
C           -1.82061810912690       -0.22463664448223       -0.02656485571587
O           -3.02505358604766       -0.38798822476051       -0.01296307751760
N           -0.96356155779922       -1.33540348168743       -0.05692133097028
C           -1.54460017769703       -2.66156138737500       -0.05694943009184
H            3.47886419540331        2.49410950671424        1.19749578539399
H            4.24014256601089        0.79408021639167        0.01303452146117
H            2.90936802178296        1.94636178250031       -0.49483087734928
H            3.52936942690460       -1.77994908164762       -0.25431202317403
H           -1.56932987138428        3.04131577745625        0.04893730023842
H           -2.78675279315304        2.12475812329407       -0.89250825754377
H           -2.81720212431100        2.06099981314367        0.87886417275042
H           -1.24651062234042       -3.22461390740193        0.83116488252674
H           -1.26157035893162       -3.21552173119361       -0.95616130490948
H           -2.62892904761575       -2.53671600423163       -0.04507402018607
H            1.29456150696921       -3.01362598885873       -0.10333876991870
25
 energy: 57.103808705675 xtb: 6.6.1 (8d0f1dd)
C            3.22513582952036        1.12549109048592        0.06743602411235
N            2.33690244000058        0.05870047589334       -0.06582162112935
C            2.60221747376912       -1.32706835248155        0.00486728640097
N            1.37597960588790       -2.02299313632958       -0.10145960980530
C            0.39035764685396       -1.12039748093204       -0.08741772287409
C            0.93428622301285        0.15822690853191       -0.08148824256648
C            0.13090116894812        1.31625034685598       -0.04204411578237
O            0.52651241097042        2.47881832310233       -0.02495010390026
N           -1.24883433455604        1.01048243861710       -0.01082009583072
C           -2.17021659745537        2.13644532785672        0.00906074130220
C           -1.81982752160985       -0.22409139966666       -0.02527687882474
O           -3.02576780237974       -0.38682786505622       -0.01623472898399
N           -0.96745295295589       -1.33598217404030       -0.05297626706125
C           -1.54737277528253       -2.66169302292064       -0.05729152009918
H            3.51621053877606        2.62353229371481        1.22593512762499
H            4.23712293281316        0.77295276495050        0.04040176143093
H            2.91811842561646        1.94661330298617       -0.45797546137984
H            3.52655870605654       -1.78536292942160       -0.26844926753868
H           -1.56815881125339        3.04321162979785        0.05019503913201
H           -2.78626425525696        2.12299289075679       -0.88974125528798
H           -2.81588376572826        2.06409037169514        0.88204887413216
H           -1.24870697140192       -3.22660638780528        0.82973626220149
H           -1.26142172614765       -3.21366018274721       -0.95789449105974
H           -2.63196180153668       -2.53860032761080       -0.04614905361688
H            1.28378021831142       -3.02549611748870       -0.09665676840155
25
 energy: 62.406154236895 xtb: 6.6.1 (8d0f1dd)
C            3.21648070054671        1.07627398146359        0.02449322379041
N            2.33363896533300        0.04373138072038       -0.10408476061754
C            2.60053150477754       -1.34309389671078        0.00033605711156
N            1.36338673187746       -2.03965447736086       -0.10304533210199
C            0.38984256319701       -1.12868249696209       -0.09360237993552
C            0.93149232133307        0.15044162734539       -0.10634683539418
C            0.12782845090395        1.30906162393447       -0.04677766699953
O            0.53205932571091        2.46972756620835       -0.02129139000485
N           -1.24806070583757        1.01096193524896       -0.00485999632385
C           -2.16910307074049        2.13878788973970        0.01111004346108
C           -1.81899020787690       -0.22343943807859       -0.02434007278191
O           -3.02681804401402       -0.38505729996263       -0.02050143023553
N           -0.97254834102139       -1.33701294421374       -0.04835439312256
C           -1.55114404661281       -2.66203557026826       -0.05716244147907
H            3.57134132231695        2.78592472360542        1.26020239438006
H            4.23280283530210        0.74841316322924        0.05917563495509
H            2.92038925054861        1.95638123279935       -0.39413795061913
H            3.52314911604183       -1.79450369760863       -0.28109782246886
H           -1.56642954515859        3.04531057136263        0.05054092721163
H           -2.78480224514095        2.12123919068901       -0.88808004722254
H           -2.81432705960531        2.06768413617120        0.88403964993839
H           -1.25180324891706       -3.22847833767984        0.82895516719669
H           -1.26185266338053       -3.21206885683860       -0.95901082331794
H           -2.63591683628239       -2.54067277946381       -0.04703205054938
H            1.27106723167158       -3.04021043862582       -0.09209379267584
25
 energy: 63.470641967324 xtb: 6.6.1 (8d0f1dd)
C            3.20695980978864        1.01899951419317       -0.02839216883442
N            2.33059051858255        0.02444053253903       -0.13657080020283
C            2.59745376833621       -1.36186688217927       -0.00884145570092
N            1.34975023897077       -2.05721311902834       -0.10564919065819
C            0.38815069611589       -1.13853490877126       -0.09883127017259
C            0.92874844592351        0.14073608297953       -0.12833477632983
C            0.12655350570479        1.30141287069850       -0.05174399358050
O            0.53956954150336        2.45976630047750       -0.01972390116520
N           -1.24638744439472        1.01145191882895       -0.00052194640080
C           -2.16700068507025        2.14088924443542        0.01146202445750
C           -1.81839466034625       -0.22297377029178       -0.02425839648910
O           -3.02802299806593       -0.38244852580322       -0.02487115711750
N           -0.97825394126534       -1.33851105467694       -0.04404159099829
C           -1.55573766699783       -2.66265614063753       -0.05635787944553
H            3.63888456234591        2.96532841153141        1.29614721848731
H            4.22895199550950        0.72405881105159        0.06181013786245
H            2.91123502167126        1.97465506791338       -0.30002929339916
H            3.51920592335767       -1.80784705258985       -0.29161627500702
H           -1.56428900775470        3.04721991779192        0.04942805883978
H           -2.78216769010404        2.12006063274252       -0.88824483251118
H           -2.81258663022957        2.07114874016071        0.88387751419236
H           -1.25574435328697       -3.22964011543881        0.82935501722657
H           -1.26324442504182       -3.21119436816126       -0.95879973421330
H           -2.64047762517505       -2.54253629342655       -0.04756445898918
H            1.25846740489516       -3.05571702559483       -0.09065293765579
25