25
 energy: -42.188363012172 gnorm: 0.006695143093 xtb: 6.6.1 (8d0f1dd)
C            3.10382987946163        1.21951345435584       -0.04997941032682
N            2.17635909057237        0.12121371252837       -0.06714231170046
C            2.50066212650686       -1.18620201227827       -0.05962651266175
N            1.37288249345920       -1.93394109151634       -0.02884288545287
C            0.30606671348794       -1.09299227464842       -0.01390104281915
C            0.80056639060713        0.21648552750361       -0.03740127907948
C           -0.08401259480152        1.28900216239237       -0.03227600251361
O            0.32333009268681        2.57162153551500       -0.01531589124697
N           -1.43279303352709        1.00578447636305       -0.02270176985431
C           -2.35813234686117        1.97817955512251       -0.05681627821756
C           -1.94678207898719       -0.33907275393032        0.05627229960346
O           -3.12973800497850       -0.53297657505611        0.11711443804981
N           -1.02300528504365       -1.36517342463695        0.04583487087233
C           -1.49909144480240       -2.73589365030386        0.09280563081862
H            3.50658214411967        1.36409341198148        0.95488181457278
H            3.92822110509874        1.02189287805040       -0.73364458309415
H            2.58646512156852        2.12647662288586       -0.35312898330961
H            3.49752389228267       -1.57223972871941       -0.07448782748967
H           -0.42735652945840        3.13681721494253        0.22978493559506
H           -2.11457228184107        2.99158700928166       -0.30275340768994
H           -3.37536301044389        1.69831006356918        0.09006437026481
H           -1.14266995790721       -3.22903605082317        0.99737287407574
H           -1.16526031212920       -3.28182014052023       -0.78991554742908
H           -2.58734554883031       -2.71113505743928        0.10688205639960
H            1.34406489386009       -2.94225632301950       -0.02190793946670
