25
 energy: -42.497721736793 xtb: 6.6.1 (8d0f1dd)
C            3.17359830347920        1.24205725311901        0.09739881973532
N            2.24047785110640        0.14664260846934        0.05597021969928
C            2.58459422105236       -1.14609897673789        0.07106407759010
N            1.40031837233381       -1.83347106587214        0.01790303570772
C            0.34235491898864       -0.97887204361689       -0.00996184304558
C            0.86237253705468        0.29663616096516        0.01299340898018
C            0.01778132819977        1.45556954250201       -0.00525685244354
O            0.36621645832579        2.61941389124583       -0.00092193411595
N           -1.33997892193949        1.09761065258665       -0.03087993945829
C           -2.31820661738351        2.17608766086216       -0.05386147469329
C           -1.88112663510908       -0.17218849244342       -0.04921178022539
O           -3.07702160164600       -0.35709176153131       -0.07467010905539
N           -0.99105613963069       -1.24106215303236       -0.03657676000454
C           -1.50083901408918       -2.59622425834045       -0.05925396737861
H            3.64634575419399        1.29604071983101        1.07983082041886
H            3.94928701013576        1.08892165336195       -0.65243686915459
H            2.64382272392982        2.17283323661564       -0.09869564033508
H            4.97415461994323       -2.93573095941221       -0.08141680946626
H           -1.77736012739610        3.11930639922123       -0.02930848203866
H           -2.92306420671283        2.10958038882147       -0.95796619114632
H           -2.97900664230737        2.09572745001577        0.80884214786262
H           -1.17985326756669       -3.14069771073648        0.83064896222925
H           -1.15898747320837       -3.11830542985246       -0.95466133093667
H           -2.58801897177138       -2.53310194740791       -0.07045649254814
H            1.35288694064519       -2.83895699396978        0.00200313875992
