25
 energy: -42.479924838983 xtb: 6.6.1 (8d0f1dd)
C            3.20318584612416        1.14077920921141        0.08614711648182
N            2.27377996726368        0.17192585908604       -0.09233825725941
C            2.54014468922991       -1.16394508907806       -0.02750068633585
N            1.36634918035066       -1.88811892680408        0.07129657589929
C            0.34473693501933       -1.02291840182629       -0.00700122107186
C            0.86606050156896        0.26920553636088       -0.08406152324172
C            0.01158034444223        1.40965923733294       -0.01471017274288
O            0.33125456979901        2.58328647335504        0.03514540150634
N           -1.35814622588088        1.03698399290895       -0.01708852023206
C           -2.34016842604368        2.10986229414465       -0.04657398577484
C           -1.89166717198807       -0.22333808447436       -0.04174889861315
O           -3.08293590979063       -0.43033903260911       -0.08110495274290
N           -0.98962404590462       -1.29205770978655       -0.00482751080140
C           -1.51130924061979       -2.64606653696155       -0.02585562319094
H            4.07136716096630        0.80658718841276        0.57969564636621
H            5.12453827256419        1.25796503571200       -0.54467272256647
H            2.84210962732421        2.14763306577824        0.10730191690283
H            3.51139078793422       -1.57883635310604        0.14781238927954
H           -1.81455353302403        3.05643832053408       -0.00713034335413
H           -2.92905259224211        2.04897373309012       -0.96259000909953
H           -3.02233671478767        2.02029683479078        0.80006162787274
H           -1.21792495231013       -3.18784150280707        0.87588136741234
H           -1.16616058737963       -3.18416489963679       -0.91237100118614
H           -2.60000885523200       -2.57934005195842       -0.05566340016217
H            1.30606146905143       -2.88870070502979       -0.02016257343167
