      -----------------------------------------------------------      
     |                   =====================                   |     
     |                           x T B                           |     
     |                   =====================                   |     
     |                         S. Grimme                         |     
     |          Mulliken Center for Theoretical Chemistry        |     
     |                    University of Bonn                     |     
      -----------------------------------------------------------      

   * xtb version 6.6.1 (8d0f1dd) compiled by 'conda@1efc2f54142f' on 2023-08-01

   xtb is free software: you can redistribute it and/or modify it under
   the terms of the GNU Lesser General Public License as published by
   the Free Software Foundation, either version 3 of the License, or
   (at your option) any later version.
   
   xtb is distributed in the hope that it will be useful,
   but WITHOUT ANY WARRANTY; without even the implied warranty of
   MERCHANTABILITY or FITNESS FOR A PARTICULAR PURPOSE.  See the
   GNU Lesser General Public License for more details.
   
   Cite this work as:
   * C. Bannwarth, E. Caldeweyher, S. Ehlert, A. Hansen, P. Pracht,
     J. Seibert, S. Spicher, S. Grimme, WIREs Comput. Mol. Sci., 2020, 11,
     e01493. DOI: 10.1002/wcms.1493
   
   for GFN2-xTB:
   * C. Bannwarth, S. Ehlert and S. Grimme., J. Chem. Theory Comput., 2019,
     15, 1652-1671. DOI: 10.1021/acs.jctc.8b01176
   for GFN1-xTB:
   * S. Grimme, C. Bannwarth, P. Shushkov, J. Chem. Theory Comput., 2017,
     13, 1989-2009. DOI: 10.1021/acs.jctc.7b00118
   for GFN0-xTB:
   * P. Pracht, E. Caldeweyher, S. Ehlert, S. Grimme, ChemRxiv, 2019, preprint.
     DOI: 10.26434/chemrxiv.8326202.v1
   for GFN-FF:
   * S. Spicher and S. Grimme, Angew. Chem. Int. Ed., 2020, 59, 15665-15673.
     DOI: 10.1002/anie.202004239
   
   for ALPB and GBSA implicit solvation:
   * S. Ehlert, M. Stahn, S. Spicher, S. Grimme, J. Chem. Theory Comput.,
     2021, 17, 4250-4261. DOI: 10.1021/acs.jctc.1c00471
   
   for DFT-D4:
   * E. Caldeweyher, C. Bannwarth and S. Grimme, J. Chem. Phys., 2017,
     147, 034112. DOI: 10.1063/1.4993215
   * E. Caldeweyher, S. Ehlert, A. Hansen, H. Neugebauer, S. Spicher,
     C. Bannwarth and S. Grimme, J. Chem. Phys., 2019, 150, 154122.
     DOI: 10.1063/1.5090222
   * E. Caldeweyher, J.-M. Mewes, S. Ehlert and S. Grimme, Phys. Chem. Chem. Phys.
     2020, 22, 8499-8512. DOI: 10.1039/D0CP00502A
   
   for sTDA-xTB:
   * S. Grimme and C. Bannwarth, J. Chem. Phys., 2016, 145, 054103.
     DOI: 10.1063/1.4959605
   
   in the mass-spec context:
   * V. Asgeirsson, C. Bauer and S. Grimme, Chem. Sci., 2017, 8, 4879.
     DOI: 10.1039/c7sc00601b
   * J. Koopman and S. Grimme, ACS Omega 2019, 4, 12, 15120-15133.
     DOI: 10.1021/acsomega.9b02011
   
   for metadynamics refer to:
   * S. Grimme, J. Chem. Theory Comput., 2019, 155, 2847-2862
     DOI: 10.1021/acs.jctc.9b00143
   
   for SPH calculations refer to:
   * S. Spicher and S. Grimme, J. Chem. Theory Comput., 2021, 17, 1701-1714
     DOI: 10.1021/acs.jctc.0c01306
   
   with help from (in alphabetical order)
   P. Atkinson, C. Bannwarth, F. Bohle, G. Brandenburg, E. Caldeweyher
   M. Checinski, S. Dohm, S. Ehlert, S. Ehrlich, I. Gerasimov, C. Hölzer
   A. Katbashev, J. Koopman, C. Lavigne, S. Lehtola, F. März, M. Müller,
   F. Musil, H. Neugebauer, J. Pisarek, C. Plett, P. Pracht, F. Pultar,
   J. Seibert, P. Shushkov, S. Spicher, M. Stahn, M. Steiner, T. Strunk,
   J. Stückrath, T. Rose, and J. Unsleber
   
 * started run on 2024/06/05 at 19:58:03.960     

           -------------------------------------------------
          |                Calculation Setup                |
           -------------------------------------------------

          program call               : xtb struc.xyz --opt loose --input .xc1 --gfn2
          hostname                   : n-62-21-71
          coordinate file            : struc.xyz
          omp threads                :                     1

   ID    Z sym.   atoms
    1    6 C      1, 3, 5-7, 10, 11, 14
    2    7 N      2, 4, 9, 13
    3    8 O      8, 12
    4    1 H      15-25
constraining bond 12 19 to    4.6333300 Å, actual value:    3.7175586 Å

           -------------------------------------------------
          |                 G F N 2 - x T B                 |
           -------------------------------------------------

        Reference                      10.1021/acs.jctc.8b01176
      * Hamiltonian:
        H0-scaling (s, p, d)           1.850000    2.230000    2.230000
        zeta-weighting                 0.500000
      * Dispersion:
        s8                             2.700000
        a1                             0.520000
        a2                             5.000000
        s9                             5.000000
      * Repulsion:
        kExp                           1.500000    1.000000
        rExp                           1.000000
      * Coulomb:
        alpha                          2.000000
        third order                    shell-resolved
        anisotropic                    true
        a3                             3.000000
        a5                             4.000000
        cn-shift                       1.200000
        cn-exp                         4.000000
        max-rad                        5.000000


          ...................................................
          :                      SETUP                      :
          :.................................................:
          :  # basis functions                  67          :
          :  # atomic orbitals                  67          :
          :  # shells                           39          :
          :  # electrons                        74          :
          :  max. iterations                   250          :
          :  Hamiltonian                  GFN2-xTB          :
          :  restarted?                      false          :
          :  GBSA solvation                  false          :
          :  PC potential                    false          :
          :  electronic temp.         2500.0000000     K    :
          :  accuracy                    1.0000000          :
          :  -> integral cutoff          0.2500000E+02      :
          :  -> integral neglect         0.1000000E-07      :
          :  -> SCF convergence          0.1000000E-05 Eh   :
          :  -> wf. convergence          0.1000000E-03 e    :
          :  Broyden damping             0.4000000          :
          ...................................................

 iter      E             dE          RMSdq      gap      omega  full diag
   1    -42.5894761 -0.425895E+02  0.446E+00    3.52       0.0  T
   2    -42.7660496 -0.176573E+00  0.253E+00    3.37       1.0  T
   3    -42.7736311 -0.758158E-02  0.147E+00    3.27       1.0  T
   4    -42.7712089  0.242228E-02  0.522E-01    3.20       1.0  T
   5    -42.7763755 -0.516665E-02  0.115E-01    3.24       1.0  T
   6    -42.7764786 -0.103096E-03  0.599E-02    3.22       1.0  T
   7    -42.7764977 -0.190557E-04  0.265E-02    3.24       1.0  T
   8    -42.7765022 -0.458752E-05  0.826E-03    3.24       2.4  T
   9    -42.7765028 -0.511866E-06  0.435E-03    3.24       4.6  T
  10    -42.7765028 -0.741126E-07  0.110E-03    3.24      18.2  T
  11    -42.7765028 -0.615289E-08  0.514E-04    3.24      38.9  T
  12    -42.7765028 -0.131732E-08  0.162E-04    3.24     123.6  T

   *** convergence criteria satisfied after 12 iterations ***

         #    Occupation            Energy/Eh            Energy/eV
      -------------------------------------------------------------
         1        2.0000           -0.9218663             -25.0853
       ...           ...                  ...                  ...
        31        2.0000           -0.6245728             -16.9955
        32        2.0000           -0.6188521             -16.8398
        33        2.0000           -0.5946289             -16.1807
        34        1.9999           -0.5766508             -15.6915
        35        1.9996           -0.5616187             -15.2824
        36        1.9994           -0.5584494             -15.1962
        37        1.9993           -0.5575820             -15.1726 (HOMO)
        38        0.0017           -0.4385664             -11.9340 (LUMO)
        39        0.0000           -0.4059970             -11.0477
        40        0.0000           -0.3720875             -10.1250
        41                         -0.2883077              -7.8453
        42                         -0.2064013              -5.6165
       ...                                ...                  ...
        67                          0.5638960              15.3444
      -------------------------------------------------------------
                  HL-Gap            0.1190156 Eh            3.2386 eV
             Fermi-level           -0.4943591 Eh          -13.4522 eV

 SCC (total)                   0 d,  0 h,  0 min,  0.039 sec
 SCC setup                      ...        0 min,  0.000 sec (  0.865%)
 Dispersion                     ...        0 min,  0.000 sec (  1.030%)
 classical contributions        ...        0 min,  0.000 sec (  0.269%)
 integral evaluation            ...        0 min,  0.007 sec ( 17.945%)
 iterations                     ...        0 min,  0.018 sec ( 45.734%)
 molecular gradient             ...        0 min,  0.013 sec ( 33.702%)
 printout                       ...        0 min,  0.000 sec (  0.415%)

         :::::::::::::::::::::::::::::::::::::::::::::::::::::
         ::                     SUMMARY                     ::
         :::::::::::::::::::::::::::::::::::::::::::::::::::::
         :: total energy             -43.742697050810 Eh    ::
         :: gradient norm              2.447357707082 Eh/a0 ::
         :: HOMO-LUMO gap              3.238579380711 eV    ::
         ::.................................................::
         :: SCC energy               -42.776502838750 Eh    ::
         :: -> isotropic ES            0.143394945287 Eh    ::
         :: -> anisotropic ES         -0.005231236584 Eh    ::
         :: -> anisotropic XC          0.012162721064 Eh    ::
         :: -> dispersion             -0.022660936007 Eh    ::
         :: repulsion energy           0.531105277918 Eh    ::
         :: add. restraining          -1.497413648987 Eh    ::
         :: total charge               1.000000000000 e     ::
         :::::::::::::::::::::::::::::::::::::::::::::::::::::

      ----------------------------------------------------------- 
     |                   =====================                   |
     |                        A N C O P T                        |
     |                   =====================                   |
     |               Approximate Normal Coordinate               |
     |                Rational Function Optimizer                |
      ----------------------------------------------------------- 

          ...................................................
          :                      SETUP                      :
          :.................................................:
          :   optimization level             loose          :
          :   max. optcycles                   200          :
          :   ANC micro-cycles                  20          :
          :   degrees of freedom                69          :
          :.................................................:
          :   RF solver                   davidson          :
          :   write xtbopt.log                true          :
          :   linear?                        false          :
          :   energy convergence         0.5000000E-04 Eh   :
          :   grad. convergence          0.4000000E-02 Eh/α :
          :   maxmium RF displ.          1.0000000          :
          :   Hlow (freq-cutoff)         0.1000000E-01      :
          :   Hmax (freq-cutoff)         5.0000000          :
          :   S6 in model hess.         20.0000000          :
          ...................................................

generating ANC from model Hessian ...
Using Lindh-Hessian (1995)
 Shifting diagonal of input Hessian by    1.6950608500971569     
 Lowest  eigenvalues of input Hessian
    0.010000    0.000000    0.000000    0.000000    0.000000    0.000000
    0.000000    1.698078    1.699207    1.704570    1.705253    1.706199
    1.709023    1.710527    1.712333    1.717387    1.729721    1.730382
 Highest eigenvalues
    3.795738    3.844590    3.921032    3.991472    4.117893    4.250181


........................................................................
.............................. CYCLE    1 ..............................
........................................................................

 iter      E             dE          RMSdq      gap      omega  full diag
   1    -42.7765028 -0.427765E+02  0.540E-05    3.24       0.0  T
   2    -42.7765028 -0.643041E-11  0.289E-05    3.24     692.1  T
   3    -42.7765028  0.881073E-12  0.138E-05    3.24    1448.6  T
     SCC iter.                  ...        0 min,  0.005 sec
     gradient                   ...        0 min,  0.013 sec
 * total energy  :   -43.7426971 Eh     change       -0.6633627E-10 Eh
   gradient norm :     2.4473578 Eh/α   predicted     0.0000000E+00 (-100.00%)
   displ. norm   :     0.9941908 α      lambda       -0.2410768E+01
   maximum displ.:     0.9910305 α      in ANC's #1, #52, #69, ...

........................................................................
.............................. CYCLE    2 ..............................
........................................................................

 iter      E             dE          RMSdq      gap      omega  full diag
   1    -42.7992341 -0.427992E+02  0.906E-01    2.84       0.0  T
   2    -42.8014687 -0.223458E-02  0.529E-01    3.02       1.0  T
   3    -42.8014886 -0.199008E-04  0.161E-01    3.04       1.0  T
   4    -42.8015799 -0.913182E-04  0.474E-02    3.04       1.0  T
   5    -42.8016122 -0.322837E-04  0.211E-02    3.04       1.0  T
   6    -42.8016146 -0.234568E-05  0.114E-02    3.04       1.8  T
   7    -42.8016154 -0.811881E-06  0.266E-03    3.04       7.5  T
   8    -42.8016154 -0.649522E-07  0.131E-03    3.04      15.2  T
   9    -42.8016154 -0.681435E-08  0.572E-04    3.04      34.9  T
  10    -42.8016154 -0.189721E-08  0.161E-04    3.04     124.2  T
     SCC iter.                  ...        0 min,  0.014 sec
     gradient                   ...        0 min,  0.013 sec
 * total energy  :   -46.9468198 Eh     change       -0.3204123E+01 Eh
   gradient norm :     3.9184294 Eh/α   predicted    -0.2407879E+01 ( -24.85%)
   displ. norm   :     0.9968871 α      lambda       -0.3900375E+01
   maximum displ.:     0.9944077 α      in ANC's #1, #52, #47, ...

........................................................................
.............................. CYCLE    3 ..............................
........................................................................

 iter      E             dE          RMSdq      gap      omega  full diag
   1    -42.5779066 -0.425779E+02  0.121E+00    0.68       0.0  T
   2    -42.5826949 -0.478830E-02  0.108E+00    2.16       1.0  T
   3    -42.6024981 -0.198032E-01  0.523E-01    1.38       1.0  T
   4    -42.5999989  0.249923E-02  0.282E-01    0.99       1.0  T
   5    -42.6033293 -0.333039E-02  0.497E-02    1.22       1.0  T
   6    -42.6033540 -0.247218E-04  0.227E-02    1.25       1.0  T
   7    -42.6033568 -0.277390E-05  0.965E-03    1.24       2.1  T
   8    -42.6033581 -0.134154E-05  0.343E-03    1.24       5.8  T
   9    -42.6033583 -0.177416E-06  0.127E-03    1.24      15.7  T
  10    -42.6033583 -0.625118E-08  0.570E-04    1.24      35.1  T
  11    -42.6033583 -0.107520E-08  0.221E-04    1.24      90.5  T
     SCC iter.                  ...        0 min,  0.015 sec
     gradient                   ...        0 min,  0.013 sec
 * total energy  :   -51.2270928 Eh     change       -0.4280273E+01 Eh
   gradient norm :     5.6466035 Eh/α   predicted    -0.3888494E+01 (  -9.15%)
   displ. norm   :     0.9378773 α      lambda       -0.5191207E+01
   maximum displ.:     0.8048275 α      in ANC's #1, #52, #45, ...

........................................................................
.............................. CYCLE    4 ..............................
........................................................................

 iter      E             dE          RMSdq      gap      omega  full diag
   1    -41.6638847 -0.416639E+02  0.363E+00    0.61       0.0  T
   2    -41.5887612  0.751235E-01  0.429E+00    0.60       1.0  T
   3    -42.2129774 -0.624216E+00  0.218E+00    0.34       1.0  T
   4    -42.2428659 -0.298885E-01  0.125E+00    0.04       1.0  T
   5    -42.2157670  0.270989E-01  0.186E+00    0.56       1.0  T
   6    -42.2501035 -0.343365E-01  0.614E-01    0.22       1.0  T
   7    -42.2634834 -0.133799E-01  0.240E-01    0.24       1.0  T
   8    -42.2653723 -0.188887E-02  0.153E-01    0.29       1.0  T
   9    -42.2659135 -0.541201E-03  0.520E-02    0.28       1.0  T
  10    -42.2659433 -0.297860E-04  0.300E-02    0.29       1.0  T
  11    -42.2659557 -0.124748E-04  0.219E-02    0.28       1.0  T
  12    -42.2659671 -0.113178E-04  0.614E-03    0.28       3.3  T
  13    -42.2659676 -0.560453E-06  0.250E-03    0.28       8.0  T
  14    -42.2659678 -0.156769E-06  0.283E-04    0.28      70.6  T
  15    -42.2659678  0.400739E-09  0.189E-04    0.28     106.0  T
     SCC iter.                  ...        0 min,  0.020 sec
     gradient                   ...        0 min,  0.013 sec
 * total energy  :   -56.7235183 Eh     change       -0.5496425E+01 Eh
   gradient norm :     6.7663949 Eh/α   predicted    -0.4878751E+01 ( -11.24%)
   displ. norm   :     0.9946323 α      lambda       -0.6715617E+01
   maximum displ.:     0.9840245 α      in ANC's #1, #69, #51, ...

........................................................................
.............................. CYCLE    5 ..............................
........................................................................

 iter      E             dE          RMSdq      gap      omega  full diag
   1    -41.4229145 -0.414229E+02  0.345E+00    0.35       0.0  T
   2    -40.6381506  0.784764E+00  0.548E+00    0.95       1.0  T
   3    -41.5917738 -0.953623E+00  0.243E+00    0.59       1.0  T
   4    -41.6827797 -0.910059E-01  0.162E+00    0.40       1.0  T
   5    -41.6823991  0.380634E-03  0.839E-01    0.21       1.0  T
   6    -41.7094747 -0.270756E-01  0.337E-01    0.32       1.0  T
   7    -41.7113919 -0.191727E-02  0.191E-01    0.25       1.0  T
   8    -41.7125204 -0.112844E-02  0.907E-02    0.29       1.0  T
   9    -41.7126353 -0.114934E-03  0.691E-02    0.27       1.0  T
  10    -41.7127359 -0.100621E-03  0.213E-02    0.27       1.0  T
  11    -41.7127407 -0.474064E-05  0.122E-02    0.28       1.6  T
  12    -41.7127465 -0.578972E-05  0.229E-03    0.28       8.7  T
  13    -41.7127465 -0.501372E-07  0.975E-04    0.28      20.5  T
  14    -41.7127465  0.312223E-07  0.100E-03    0.28      19.9  T
  15    -41.7127465 -0.380009E-07  0.169E-04    0.28     118.4  T
     SCC iter.                  ...        0 min,  0.020 sec
     gradient                   ...        0 min,  0.013 sec
 * total energy  :   -63.2960820 Eh     change       -0.6572564E+01 Eh
   gradient norm :     8.1469177 Eh/α   predicted    -0.6679724E+01 (   1.63%)
   displ. norm   :     0.9631628 α      lambda       -0.6906103E+01
   maximum displ.:     0.8734526 α      in ANC's #1, #51, #69, ...

........................................................................
.............................. CYCLE    6 ..............................
........................................................................

 iter      E             dE          RMSdq      gap      omega  full diag
   1    -41.0924087 -0.410924E+02  0.434E+00    1.17       0.0  T
   2    -41.2683090 -0.175900E+00  0.362E+00    0.14       1.0  T
   3    -41.5133024 -0.244993E+00  0.223E+00    0.92       1.0  T
   4    -41.5344736 -0.211712E-01  0.134E+00    0.38       1.0  T
   5    -41.5216493  0.128243E-01  0.154E+00    0.68       1.0  T
   6    -41.5576328 -0.359835E-01  0.780E-01    0.64       1.0  T
   7    -41.5705697 -0.129369E-01  0.236E-01    0.47       1.0  T
   8    -41.5712454 -0.675744E-03  0.118E-01    0.47       1.0  T
   9    -41.5713615 -0.116039E-03  0.579E-02    0.46       1.0  T
  10    -41.5713957 -0.342005E-04  0.270E-02    0.46       1.0  T
  11    -41.5714016 -0.589531E-05  0.130E-02    0.46       1.5  T
  12    -41.5714039 -0.229888E-05  0.285E-03    0.46       7.0  T
  13    -41.5714039 -0.606182E-07  0.152E-03    0.46      13.2  T
  14    -41.5714040 -0.175270E-07  0.529E-04    0.46      37.8  T
  15    -41.5714040 -0.504085E-08  0.104E-04    0.46     192.7  T
     SCC iter.                  ...        0 min,  0.020 sec
     gradient                   ...        0 min,  0.013 sec
 * total energy  :   -68.1560782 Eh     change       -0.4859996E+01 Eh
   gradient norm :    15.9409370 Eh/α   predicted    -0.6656388E+01 (  36.96%)
   displ. norm   :     0.7039642 α      lambda       -0.9827532E+01
   maximum displ.:     0.2562967 α      in ANC's #1, #51, #50, ...

........................................................................
.............................. CYCLE    7 ..............................
........................................................................

 iter      E             dE          RMSdq      gap      omega  full diag
   1    -41.5902828 -0.415903E+02  0.444E+00    0.89       0.0  T
   2    -41.7705430 -0.180260E+00  0.272E+00    0.60       1.0  T
   3    -41.9045332 -0.133990E+00  0.173E+00    0.12       1.0  T
   4    -41.9576084 -0.530752E-01  0.108E+00    0.42       1.0  T
   5    -41.9408596  0.167488E-01  0.108E+00    0.59       1.0  T
   6    -41.9361809  0.467871E-02  0.970E-01    0.34       1.0  T
   7    -41.9596265 -0.234456E-01  0.208E-01    0.44       1.0  T
   8    -41.9600380 -0.411466E-03  0.106E-01    0.48       1.0  T
   9    -41.9601747 -0.136646E-03  0.423E-02    0.48       1.0  T
  10    -41.9601950 -0.203048E-04  0.149E-02    0.47       1.3  T
  11    -41.9601987 -0.374415E-05  0.473E-03    0.47       4.2  T
  12    -41.9601987 -0.249633E-07  0.289E-03    0.47       6.9  T
  13    -41.9601988 -0.843786E-07  0.979E-04    0.47      20.4  T
  14    -41.9601988 -0.835957E-08  0.670E-04    0.48      29.8  T
     SCC iter.                  ...        0 min,  0.019 sec
     gradient                   ...        0 min,  0.013 sec
 * total energy  :   -70.9850549 Eh     change       -0.2828977E+01 Eh
   gradient norm :     4.4234184 Eh/α   predicted    -0.7348906E+01 ( 159.77%)
   displ. norm   :     0.6507397 α      lambda       -0.2086380E+01
   maximum displ.:     0.2753575 α      in ANC's #1, #51, #47, ...

........................................................................
.............................. CYCLE    8 ..............................
........................................................................

 iter      E             dE          RMSdq      gap      omega  full diag
   1    -41.9245392 -0.419245E+02  0.170E+00    0.20       0.0  T
   2    -41.3706673  0.553872E+00  0.440E+00    0.84       1.0  T
   3    -42.0004180 -0.629751E+00  0.986E-01    0.48       1.0  T
   4    -41.9985428  0.187516E-02  0.882E-01    0.48       1.0  T
   5    -41.9885340  0.100089E-01  0.806E-01    0.47       1.0  T
   6    -42.0065764 -0.180424E-01  0.237E-01    0.36       1.0  T
   7    -42.0072526 -0.676259E-03  0.170E-01    0.34       1.0  T
   8    -42.0073262 -0.735889E-04  0.106E-01    0.35       1.0  T
   9    -42.0073110  0.152772E-04  0.283E-02    0.35       1.0  T
  10    -42.0073299 -0.188984E-04  0.125E-02    0.35       1.6  T
  11    -42.0073328 -0.298522E-05  0.541E-03    0.35       3.7  T
  12    -42.0073333 -0.508044E-06  0.190E-03    0.35      10.5  T
  13    -42.0073334 -0.627994E-07  0.613E-04    0.35      32.6  T
  14    -42.0073334 -0.475953E-08  0.394E-04    0.35      50.8  T
     SCC iter.                  ...        0 min,  0.019 sec
     gradient                   ...        0 min,  0.013 sec
 * total energy  :   -66.5223540 Eh     change        0.4462701E+01 Eh
   gradient norm :    52.8099763 Eh/α   predicted    -0.1484943E+01 (-133.27%)
   displ. norm   :     0.3097712 α      lambda       -0.1346834E+02
   maximum displ.:     0.2322800 α      in ANC's #1, #39, #46, ...

........................................................................
.............................. CYCLE    9 ..............................
........................................................................

 iter      E             dE          RMSdq      gap      omega  full diag
   1    -41.9824717 -0.419825E+02  0.111E+00    0.62       0.0  T
   2    -41.9588166  0.236551E-01  0.154E+00    0.93       1.0  T
   3    -42.0078600 -0.490434E-01  0.617E-01    0.69       1.0  T
   4    -42.0050445  0.281544E-02  0.491E-01    0.89       1.0  T
   5    -42.0110264 -0.598186E-02  0.113E-01    0.74       1.0  T
   6    -42.0111858 -0.159414E-03  0.808E-02    0.74       1.0  T
   7    -42.0113482 -0.162382E-03  0.203E-02    0.73       1.0  T
   8    -42.0113544 -0.618638E-05  0.821E-03    0.72       2.4  T
   9    -42.0113548 -0.435687E-06  0.317E-03    0.72       6.3  T
  10    -42.0113548 -0.387833E-07  0.183E-03    0.72      10.9  T
  11    -42.0113549 -0.755894E-07  0.573E-04    0.72      34.9  T
  12    -42.0113549 -0.419499E-08  0.216E-04    0.72      92.5  T
     SCC iter.                  ...        0 min,  0.016 sec
     gradient                   ...        0 min,  0.013 sec
 * total energy  :   -71.3416728 Eh     change       -0.4819319E+01 Eh
   gradient norm :     0.8668696 Eh/α   predicted    -0.7380390E+01 (  53.14%)
   displ. norm   :     0.3027765 α      lambda       -0.2564423E+00
   maximum displ.:     0.1103428 α      in ANC's #43, #50, #34, ...

........................................................................
.............................. CYCLE   10 ..............................
........................................................................

 iter      E             dE          RMSdq      gap      omega  full diag
   1    -42.0773082 -0.420773E+02  0.128E+00    0.27       0.0  T
   2    -42.0614862  0.158220E-01  0.126E+00    0.42       1.0  T
   3    -42.0834969 -0.220107E-01  0.659E-01    0.38       1.0  T
   4    -42.0935489 -0.100521E-01  0.413E-01    0.33       1.0  T
   5    -42.0924147  0.113426E-02  0.316E-01    0.48       1.0  T
   6    -42.0954592 -0.304448E-02  0.112E-01    0.39       1.0  T
   7    -42.0956935 -0.234336E-03  0.438E-02    0.40       1.0  T
   8    -42.0957238 -0.303077E-04  0.199E-02    0.40       1.0  T
   9    -42.0957277 -0.385447E-05  0.615E-03    0.40       3.3  T
  10    -42.0957281 -0.466034E-06  0.180E-03    0.40      11.1  T
  11    -42.0957282 -0.215522E-07  0.102E-03    0.40      19.5  T
  12    -42.0957282 -0.570538E-08  0.387E-04    0.40      51.6  T
  13    -42.0957282 -0.351969E-08  0.105E-04    0.40     190.6  T
     SCC iter.                  ...        0 min,  0.018 sec
     gradient                   ...        0 min,  0.013 sec
 * total energy  :   -71.4739345 Eh     change       -0.1322617E+00 Eh
   gradient norm :     1.1049862 Eh/α   predicted    -0.1399785E+00 (   5.83%)
   displ. norm   :     0.2555333 α      lambda       -0.8959863E-01
   maximum displ.:     0.0978910 α      in ANC's #39, #34, #43, ...

........................................................................
.............................. CYCLE   11 ..............................
........................................................................

 iter      E             dE          RMSdq      gap      omega  full diag
   1    -42.1149595 -0.421150E+02  0.130E+00    0.28       0.0  T
   2    -42.0947373  0.202222E-01  0.111E+00    0.28       1.0  T
   3    -42.1087812 -0.140439E-01  0.844E-01    0.28       1.0  T
   4    -42.1261439 -0.173627E-01  0.251E-01    0.25       1.0  T
   5    -42.1252685  0.875388E-03  0.344E-01    0.25       1.0  T
   6    -42.1280282 -0.275971E-02  0.726E-02    0.25       1.0  T
   7    -42.1281136 -0.854243E-04  0.296E-02    0.25       1.0  T
   8    -42.1281193 -0.570182E-05  0.189E-02    0.25       1.1  T
   9    -42.1281244 -0.508016E-05  0.648E-03    0.25       3.1  T
  10    -42.1281253 -0.826579E-06  0.167E-03    0.25      12.0  T
  11    -42.1281253 -0.155626E-07  0.111E-03    0.25      18.1  T
  12    -42.1281253 -0.214579E-07  0.363E-04    0.25      55.1  T
  13    -42.1281253 -0.175402E-08  0.100E-04    0.25     199.7  T
     SCC iter.                  ...        0 min,  0.018 sec
     gradient                   ...        0 min,  0.013 sec
 * total energy  :   -71.5517221 Eh     change       -0.7778762E-01 Eh
   gradient norm :     0.5153994 Eh/α   predicted    -0.4772453E-01 ( -38.65%)
   displ. norm   :     0.5936025 α      lambda       -0.1641177E+00
   maximum displ.:     0.2045375 α      in ANC's #34, #39, #43, ...

........................................................................
.............................. CYCLE   12 ..............................
........................................................................

 iter      E             dE          RMSdq      gap      omega  full diag
   1    -42.1058812 -0.421059E+02  0.269E+00    1.11       0.0  T
   2    -42.0793769  0.265043E-01  0.236E+00    0.67       1.0  T
   3    -42.1502652 -0.708882E-01  0.132E+00    0.46       1.0  T
   4    -42.1625020 -0.122369E-01  0.126E+00    1.23       1.0  T
   5    -42.1925603 -0.300582E-01  0.603E-01    0.69       1.0  T
   6    -42.1976024 -0.504211E-02  0.323E-01    0.87       1.0  T
   7    -42.2005077 -0.290528E-02  0.117E-01    0.76       1.0  T
   8    -42.2006933 -0.185684E-03  0.418E-02    0.76       1.0  T
   9    -42.2007053 -0.119432E-04  0.271E-02    0.76       1.0  T
  10    -42.2007192 -0.139375E-04  0.395E-03    0.75       5.1  T
  11    -42.2007192  0.276513E-08  0.214E-03    0.75       9.4  T
  12    -42.2007193 -0.521115E-07  0.742E-04    0.75      27.0  T
  13    -42.2007193 -0.633145E-08  0.246E-04    0.75      81.5  T
     SCC iter.                  ...        0 min,  0.018 sec
     gradient                   ...        0 min,  0.013 sec
 * total energy  :   -71.6316938 Eh     change       -0.7997173E-01 Eh
   gradient norm :     2.1869588 Eh/α   predicted    -0.1109730E+00 (  38.77%)
   displ. norm   :     0.3236089 α      lambda       -0.1342377E+00
   maximum displ.:     0.1349107 α      in ANC's #39, #44, #34, ...

........................................................................
.............................. CYCLE   13 ..............................
........................................................................

 iter      E             dE          RMSdq      gap      omega  full diag
   1    -42.2099265 -0.422099E+02  0.690E-01    1.01       0.0  T
   2    -42.2087736  0.115287E-02  0.652E-01    0.81       1.0  T
   3    -42.2169682 -0.819460E-02  0.284E-01    0.83       1.0  T
   4    -42.2150447  0.192355E-02  0.299E-01    1.01       1.0  T
   5    -42.2173458 -0.230111E-02  0.165E-01    0.80       1.0  T
   6    -42.2180386 -0.692815E-03  0.381E-02    0.87       1.0  T
   7    -42.2180666 -0.280257E-04  0.214E-02    0.86       1.0  T
   8    -42.2180768 -0.102253E-04  0.692E-03    0.86       2.9  T
   9    -42.2180769 -0.612684E-07  0.260E-03    0.86       7.7  T
  10    -42.2180770 -0.117232E-06  0.729E-04    0.86      27.4  T
  11    -42.2180770 -0.131706E-08  0.342E-04    0.86      58.5  T
     SCC iter.                  ...        0 min,  0.015 sec
     gradient                   ...        0 min,  0.013 sec
 * total energy  :   -71.6991152 Eh     change       -0.6742140E-01 Eh
   gradient norm :     0.3075705 Eh/α   predicted    -0.7414813E-01 (   9.98%)
   displ. norm   :     0.3140048 α      lambda       -0.3832040E-01
   maximum displ.:     0.1076028 α      in ANC's #15, #39, #45, ...

........................................................................
.............................. CYCLE   14 ..............................
........................................................................

 iter      E             dE          RMSdq      gap      omega  full diag
   1    -42.2063670 -0.422064E+02  0.123E+00    1.22       0.0  T
   2    -42.1192087  0.871583E-01  0.209E+00    1.48       1.0  T
   3    -42.2406810 -0.121472E+00  0.421E-01    0.93       1.0  T
   4    -42.2430160 -0.233499E-02  0.222E-01    1.20       1.0  T
   5    -42.2438123 -0.796290E-03  0.958E-02    1.07       1.0  T
   6    -42.2438855 -0.731914E-04  0.393E-02    1.08       1.0  T
   7    -42.2439248 -0.393619E-04  0.112E-02    1.08       1.8  T
   8    -42.2439257 -0.866739E-06  0.897E-03    1.09       2.2  T
   9    -42.2439269 -0.121606E-05  0.257E-03    1.09       7.8  T
  10    -42.2439270 -0.919069E-07  0.699E-04    1.09      28.6  T
  11    -42.2439270 -0.434538E-08  0.328E-04    1.09      61.0  T
     SCC iter.                  ...        0 min,  0.015 sec
     gradient                   ...        0 min,  0.013 sec
 * total energy  :   -71.7291237 Eh     change       -0.3000848E-01 Eh
   gradient norm :     0.5427845 Eh/α   predicted    -0.2104945E-01 ( -29.86%)
   displ. norm   :     0.4040729 α      lambda       -0.4962835E-01
   maximum displ.:     0.1770724 α      in ANC's #15, #14, #12, ...

........................................................................
.............................. CYCLE   15 ..............................
........................................................................

 iter      E             dE          RMSdq      gap      omega  full diag
   1    -42.2460420 -0.422460E+02  0.122E+00    1.49       0.0  T
   2    -42.1005422  0.145500E+00  0.255E+00    1.86       1.0  T
   3    -42.2844787 -0.183937E+00  0.281E-01    1.32       1.0  T
   4    -42.2847669 -0.288199E-03  0.160E-01    1.44       1.0  T
   5    -42.2849708 -0.203928E-03  0.845E-02    1.34       1.0  T
   6    -42.2851058 -0.134968E-03  0.203E-02    1.38       1.0  T
   7    -42.2851129 -0.704152E-05  0.821E-03    1.37       2.4  T
   8    -42.2851129 -0.574580E-07  0.480E-03    1.38       4.2  T
   9    -42.2851134 -0.455918E-06  0.147E-03    1.37      13.6  T
  10    -42.2851134 -0.179298E-07  0.630E-04    1.37      31.8  T
  11    -42.2851134 -0.479302E-08  0.235E-04    1.37      85.3  T
     SCC iter.                  ...        0 min,  0.015 sec
     gradient                   ...        0 min,  0.013 sec
 * total energy  :   -71.7600536 Eh     change       -0.3092990E-01 Eh
   gradient norm :     1.4790436 Eh/α   predicted    -0.2886569E-01 (  -6.67%)
   displ. norm   :     0.4580181 α      lambda       -0.7698900E-01
   maximum displ.:     0.2241331 α      in ANC's #15, #14, #39, ...

........................................................................
.............................. CYCLE   16 ..............................
........................................................................

 iter      E             dE          RMSdq      gap      omega  full diag
   1    -42.3171313 -0.423171E+02  0.424E-01    1.47       0.0  T
   2    -42.3181290 -0.997719E-03  0.238E-01    1.44       1.0  T
   3    -42.3181082  0.207788E-04  0.179E-01    1.46       1.0  T
   4    -42.3170657  0.104249E-02  0.233E-01    1.39       1.0  T
   5    -42.3185055 -0.143983E-02  0.446E-02    1.43       1.0  T
   6    -42.3185569 -0.513406E-04  0.167E-02    1.43       1.2  T
   7    -42.3185624 -0.552520E-05  0.677E-03    1.42       3.0  T
   8    -42.3185628 -0.395163E-06  0.254E-03    1.43       7.9  T
   9    -42.3185629 -0.539169E-07  0.851E-04    1.43      23.5  T
  10    -42.3185629 -0.754779E-08  0.326E-04    1.43      61.4  T
     SCC iter.                  ...        0 min,  0.014 sec
     gradient                   ...        0 min,  0.013 sec
 * total energy  :   -71.8170943 Eh     change       -0.5704063E-01 Eh
   gradient norm :     0.4620311 Eh/α   predicted    -0.4657038E-01 ( -18.36%)
   displ. norm   :     0.5584502 α      lambda       -0.7590357E-01
   maximum displ.:     0.2782824 α      in ANC's #15, #14, #12, ...

........................................................................
.............................. CYCLE   17 ..............................
........................................................................

 iter      E             dE          RMSdq      gap      omega  full diag
   1    -42.3796331 -0.423796E+02  0.723E-01    1.23       0.0  T
   2    -42.3706571  0.897602E-02  0.764E-01    1.31       1.0  T
   3    -42.3725341 -0.187703E-02  0.694E-01    1.36       1.0  T
   4    -42.3839787 -0.114446E-01  0.224E-01    1.26       1.0  T
   5    -42.3846306 -0.651881E-03  0.474E-02    1.29       1.0  T
   6    -42.3846675 -0.368822E-04  0.255E-02    1.29       1.0  T
   7    -42.3846798 -0.123738E-04  0.105E-02    1.29       1.9  T
   8    -42.3846800 -0.195348E-06  0.570E-03    1.29       3.5  T
   9    -42.3846806 -0.605173E-06  0.137E-03    1.29      14.6  T
  10    -42.3846807 -0.367989E-07  0.697E-04    1.29      28.7  T
  11    -42.3846807 -0.406862E-08  0.343E-04    1.29      58.3  T
     SCC iter.                  ...        0 min,  0.015 sec
     gradient                   ...        0 min,  0.013 sec
 * total energy  :   -71.8781494 Eh     change       -0.6105518E-01 Eh
   gradient norm :     0.3558582 Eh/α   predicted    -0.4978807E-01 ( -18.45%)
   displ. norm   :     0.5477333 α      lambda       -0.5699110E-01
   maximum displ.:     0.2783079 α      in ANC's #15, #14, #12, ...

........................................................................
.............................. CYCLE   18 ..............................
........................................................................

 iter      E             dE          RMSdq      gap      omega  full diag
   1    -42.4388513 -0.424389E+02  0.926E-01    0.96       0.0  T
   2    -42.3693000  0.695513E-01  0.159E+00    1.18       1.0  T
   3    -42.4391920 -0.698919E-01  0.713E-01    1.12       1.0  T
   4    -42.4494445 -0.102525E-01  0.249E-01    0.97       1.0  T
   5    -42.4502774 -0.832852E-03  0.122E-01    1.13       1.0  T
   6    -42.4506998 -0.422384E-03  0.361E-02    1.08       1.0  T
   7    -42.4507291 -0.293796E-04  0.141E-02    1.08       1.4  T
   8    -42.4507312 -0.203182E-05  0.687E-03    1.08       2.9  T
   9    -42.4507314 -0.266317E-06  0.290E-03    1.08       6.9  T
  10    -42.4507316 -0.179249E-06  0.939E-04    1.08      21.3  T
  11    -42.4507316 -0.118304E-07  0.498E-04    1.08      40.2  T
     SCC iter.                  ...        0 min,  0.015 sec
     gradient                   ...        0 min,  0.013 sec
 * total energy  :   -71.9164476 Eh     change       -0.3829816E-01 Eh
   gradient norm :     0.5009552 Eh/α   predicted    -0.3704457E-01 (  -3.27%)
   displ. norm   :     0.3558118 α      lambda       -0.3087967E-01
   maximum displ.:     0.1966355 α      in ANC's #15, #14, #12, ...

........................................................................
.............................. CYCLE   19 ..............................
........................................................................

 iter      E             dE          RMSdq      gap      omega  full diag
   1    -42.4806233 -0.424806E+02  0.341E-01    1.01       0.0  T
   2    -42.4793820  0.124122E-02  0.301E-01    1.03       1.0  T
   3    -42.4747416  0.464042E-02  0.466E-01    1.03       1.0  T
   4    -42.4804124 -0.567077E-02  0.135E-01    1.00       1.0  T
   5    -42.4809383 -0.525907E-03  0.484E-02    1.04       1.0  T
   6    -42.4810103 -0.720394E-04  0.126E-02    1.03       1.6  T
   7    -42.4810128 -0.246644E-05  0.573E-03    1.03       3.5  T
   8    -42.4810133 -0.490732E-06  0.240E-03    1.03       8.3  T
   9    -42.4810134 -0.705791E-07  0.647E-04    1.03      30.9  T
  10    -42.4810134 -0.527245E-08  0.295E-04    1.03      67.8  T
     SCC iter.                  ...        0 min,  0.014 sec
     gradient                   ...        0 min,  0.013 sec
 * total energy  :   -71.9426621 Eh     change       -0.2621446E-01 Eh
   gradient norm :     0.2714478 Eh/α   predicted    -0.1739492E-01 ( -33.64%)
   displ. norm   :     0.6070452 α      lambda       -0.6001669E-01
   maximum displ.:     0.3325211 α      in ANC's #15, #14, #12, ...

........................................................................
.............................. CYCLE   20 ..............................
........................................................................

 iter      E             dE          RMSdq      gap      omega  full diag
   1    -42.4812324 -0.424812E+02  0.122E+00    1.10       0.0  T
   2    -42.1453122  0.335920E+00  0.346E+00    1.34       1.0  T
   3    -42.5091204 -0.363808E+00  0.518E-01    1.01       1.0  T
   4    -42.5135936 -0.447320E-02  0.261E-01    0.91       1.0  T
   5    -42.5141389 -0.545290E-03  0.104E-01    0.91       1.0  T
   6    -42.5144384 -0.299524E-03  0.271E-02    0.91       1.0  T
   7    -42.5144465 -0.807957E-05  0.159E-02    0.91       1.3  T
   8    -42.5144482 -0.173820E-05  0.803E-03    0.91       2.5  T
   9    -42.5144490 -0.787332E-06  0.459E-03    0.91       4.4  T
  10    -42.5144494 -0.402763E-06  0.722E-04    0.91      27.7  T
  11    -42.5144494 -0.197421E-08  0.531E-04    0.91      37.6  T
     SCC iter.                  ...        0 min,  0.015 sec
     gradient                   ...        0 min,  0.013 sec
 * total energy  :   -71.9852178 Eh     change       -0.4255573E-01 Eh
   gradient norm :     0.6498171 Eh/α   predicted    -0.4106692E-01 (  -3.50%)
   displ. norm   :     0.4322696 α      lambda       -0.3594283E-01
   maximum displ.:     0.2260569 α      in ANC's #15, #14, #12, ...
 * RMSD in coord.:     1.2848623 α      energy gain  -0.2824252E+02 Eh

generating ANC from model Hessian ...
Using Lindh-Hessian (1995)
 Shifting diagonal of input Hessian by    9.0813967106697230E-003
 Lowest  eigenvalues of input Hessian
    0.000000    0.000000    0.000000    0.000000    0.000000    0.000000
    0.010000    0.012177    0.014276    0.015966    0.017133    0.019091
    0.019519    0.024317    0.028166    0.029567    0.030606    0.032793
 Highest eigenvalues
    2.157647    2.237695    2.361698    2.729314   22.036423   26.317932


........................................................................
.............................. CYCLE   21 ..............................
........................................................................

 iter      E             dE          RMSdq      gap      omega  full diag
   1    -42.5020331 -0.425020E+02  0.101E+00    1.00       0.0  T
   2    -42.1850140  0.317019E+00  0.326E+00    1.06       1.0  T
   3    -42.5165696 -0.331556E+00  0.553E-01    0.96       1.0  T
   4    -42.5230918 -0.652218E-02  0.269E-01    0.86       1.0  T
   5    -42.5241077 -0.101590E-02  0.833E-02    0.84       1.0  T
   6    -42.5242769 -0.169217E-03  0.233E-02    0.83       1.0  T
   7    -42.5242818 -0.488372E-05  0.131E-02    0.83       1.5  T
   8    -42.5242834 -0.163639E-05  0.571E-03    0.83       3.5  T
   9    -42.5242839 -0.529703E-06  0.312E-03    0.83       6.4  T
  10    -42.5242842 -0.219819E-06  0.687E-04    0.83      29.1  T
  11    -42.5242842 -0.747868E-08  0.322E-04    0.83      62.2  T
     SCC iter.                  ...        0 min,  0.015 sec
     gradient                   ...        0 min,  0.013 sec
 * total energy  :   -72.0002264 Eh     change       -0.1500862E-01 Eh
   gradient norm :     0.5511190 Eh/α   predicted     0.0000000E+00 (-100.00%)
   displ. norm   :     0.3481999 α      lambda       -0.1596327E+00
   maximum displ.:     0.2282846 α      in ANC's #61, #58, #38, ...

........................................................................
.............................. CYCLE   22 ..............................
........................................................................

 iter      E             dE          RMSdq      gap      omega  full diag
   1    -42.5305240 -0.425305E+02  0.457E-01    0.75       0.0  T
   2    -42.5231847  0.733930E-02  0.565E-01    0.69       1.0  T
   3    -42.5192185  0.396620E-02  0.659E-01    0.88       1.0  T
   4    -42.5310011 -0.117826E-01  0.175E-01    0.71       1.0  T
   5    -42.5316986 -0.697523E-03  0.476E-02    0.75       1.0  T
   6    -42.5317555 -0.568354E-04  0.155E-02    0.74       1.3  T
   7    -42.5317561 -0.634470E-06  0.104E-02    0.74       1.9  T
   8    -42.5317577 -0.155152E-05  0.350E-03    0.74       5.7  T
   9    -42.5317579 -0.209963E-06  0.942E-04    0.74      21.2  T
  10    -42.5317579 -0.616953E-08  0.522E-04    0.74      38.3  T
     SCC iter.                  ...        0 min,  0.014 sec
     gradient                   ...        0 min,  0.013 sec
 * total energy  :   -70.7127947 Eh     change        0.1287432E+01 Eh
   gradient norm :     8.2707259 Eh/α   predicted    -0.8950922E-01 (-106.95%)
   displ. norm   :     0.2334412 α      lambda       -0.1922711E+01
   maximum displ.:     0.2023639 α      in ANC's #61, #58, #60, ...

........................................................................
.............................. CYCLE   23 ..............................
........................................................................

 iter      E             dE          RMSdq      gap      omega  full diag
   1    -42.5422332 -0.425422E+02  0.359E-01    0.81       0.0  T
   2    -42.5027693  0.394639E-01  0.115E+00    0.66       1.0  T
   3    -42.5438833 -0.411140E-01  0.169E-01    0.77       1.0  T
   4    -42.5438097  0.735584E-04  0.650E-02    0.78       1.0  T
   5    -42.5438895 -0.798356E-04  0.231E-02    0.77       1.0  T
   6    -42.5439013 -0.118082E-04  0.857E-03    0.77       2.3  T
   7    -42.5439016 -0.251947E-06  0.507E-03    0.77       3.9  T
   8    -42.5439022 -0.639910E-06  0.104E-03    0.77      19.3  T
   9    -42.5439023 -0.160816E-07  0.377E-04    0.77      53.1  T
  10    -42.5439023 -0.344258E-09  0.173E-04    0.77     115.7  T
     SCC iter.                  ...        0 min,  0.014 sec
     gradient                   ...        0 min,  0.013 sec
 * total energy  :   -72.0105824 Eh     change       -0.1297788E+01 Eh
   gradient norm :     1.2921619 Eh/α   predicted    -0.1013745E+01 ( -21.89%)
   displ. norm   :     0.3028944 α      lambda       -0.7148130E-01
   maximum displ.:     0.1485587 α      in ANC's #12, #9, #17, ...

........................................................................
.............................. CYCLE   24 ..............................
........................................................................

 iter      E             dE          RMSdq      gap      omega  full diag
   1    -42.5573266 -0.425573E+02  0.307E-01    0.72       0.0  T
   2    -42.5205355  0.367911E-01  0.108E+00    0.60       1.0  T
   3    -42.5583939 -0.378583E-01  0.167E-01    0.72       1.0  T
   4    -42.5587596 -0.365698E-03  0.857E-02    0.69       1.0  T
   5    -42.5588628 -0.103268E-03  0.252E-02    0.70       1.0  T
   6    -42.5588851 -0.222973E-04  0.694E-03    0.70       2.9  T
   7    -42.5588859 -0.755121E-06  0.284E-03    0.70       7.0  T
   8    -42.5588859 -0.167513E-07  0.107E-03    0.70      18.8  T
   9    -42.5588859 -0.188970E-07  0.342E-04    0.70      58.4  T
  10    -42.5588859 -0.160487E-08  0.151E-04    0.70     132.1  T
     SCC iter.                  ...        0 min,  0.014 sec
     gradient                   ...        0 min,  0.013 sec
 * total energy  :   -72.0253506 Eh     change       -0.1476822E-01 Eh
   gradient norm :     1.4226702 Eh/α   predicted    -0.3901983E-01 ( 164.21%)
   displ. norm   :     0.3261276 α      lambda       -0.4162318E-01
   maximum displ.:     0.1736092 α      in ANC's #12, #9, #13, ...

........................................................................
.............................. CYCLE   25 ..............................
........................................................................

 iter      E             dE          RMSdq      gap      omega  full diag
   1    -42.5665390 -0.425665E+02  0.286E-01    0.65       0.0  T
   2    -42.5252370  0.413020E-01  0.113E+00    0.51       1.0  T
   3    -42.5674746 -0.422376E-01  0.164E-01    0.65       1.0  T
   4    -42.5679222 -0.447658E-03  0.778E-02    0.61       1.0  T
   5    -42.5680149 -0.926309E-04  0.189E-02    0.62       1.1  T
   6    -42.5680270 -0.121504E-04  0.575E-03    0.62       3.5  T
   7    -42.5680275 -0.441054E-06  0.268E-03    0.62       7.5  T
   8    -42.5680275 -0.708676E-07  0.634E-04    0.62      31.5  T
   9    -42.5680275 -0.783899E-08  0.236E-04    0.62      84.6  T
     SCC iter.                  ...        0 min,  0.013 sec
     gradient                   ...        0 min,  0.014 sec
 * total energy  :   -72.0517076 Eh     change       -0.2635697E-01 Eh
   gradient norm :     0.1243119 Eh/α   predicted    -0.2302514E-01 ( -12.64%)
   displ. norm   :     0.5228986 α      lambda       -0.1759297E-01
   maximum displ.:     0.2959217 α      in ANC's #12, #9, #13, ...

........................................................................
.............................. CYCLE   26 ..............................
........................................................................

 iter      E             dE          RMSdq      gap      omega  full diag
   1    -42.5758922 -0.425759E+02  0.399E-01    0.59       0.0  T
   2    -42.4857871  0.901052E-01  0.166E+00    0.43       1.0  T
   3    -42.5777579 -0.919708E-01  0.219E-01    0.57       1.0  T
   4    -42.5783215 -0.563567E-03  0.108E-01    0.52       1.0  T
   5    -42.5785685 -0.247034E-03  0.251E-02    0.54       1.0  T
   6    -42.5785888 -0.203538E-04  0.844E-03    0.54       2.4  T
   7    -42.5785899 -0.103019E-05  0.432E-03    0.54       4.6  T
   8    -42.5785902 -0.280888E-06  0.118E-03    0.53      17.0  T
   9    -42.5785902 -0.371580E-07  0.336E-04    0.53      59.6  T
  10    -42.5785902 -0.124491E-08  0.170E-04    0.53     117.6  T
     SCC iter.                  ...        0 min,  0.014 sec
     gradient                   ...        0 min,  0.013 sec
 * total energy  :   -72.0654900 Eh     change       -0.1378237E-01 Eh
   gradient norm :     0.4579313 Eh/α   predicted    -0.1120166E-01 ( -18.72%)
   displ. norm   :     0.6205048 α      lambda       -0.1532841E-01
   maximum displ.:     0.3653391 α      in ANC's #12, #9, #13, ...

........................................................................
.............................. CYCLE   27 ..............................
........................................................................

 iter      E             dE          RMSdq      gap      omega  full diag
   1    -42.5843435 -0.425843E+02  0.406E-01    0.51       0.0  T
   2    -42.5231475  0.611961E-01  0.135E+00    0.32       1.0  T
   3    -42.5844364 -0.612890E-01  0.281E-01    0.52       1.0  T
   4    -42.5856927 -0.125627E-02  0.103E-01    0.46       1.0  T
   5    -42.5859537 -0.261047E-03  0.335E-02    0.47       1.0  T
   6    -42.5859882 -0.344967E-04  0.118E-02    0.47       1.7  T
   7    -42.5859911 -0.290670E-05  0.512E-03    0.46       3.9  T
   8    -42.5859917 -0.557945E-06  0.915E-04    0.46      21.9  T
   9    -42.5859917 -0.157608E-07  0.352E-04    0.46      56.8  T
     SCC iter.                  ...        0 min,  0.012 sec
     gradient                   ...        0 min,  0.012 sec
 * total energy  :   -72.0775997 Eh     change       -0.1210974E-01 Eh
   gradient norm :     0.5472203 Eh/α   predicted    -0.1061516E-01 ( -12.34%)
   displ. norm   :     0.5783278 α      lambda       -0.1315379E-01
   maximum displ.:     0.3301449 α      in ANC's #12, #9, #13, ...

........................................................................
.............................. CYCLE   28 ..............................
........................................................................

 iter      E             dE          RMSdq      gap      omega  full diag
   1    -42.5914714 -0.425915E+02  0.338E-01    0.43       0.0  T
   2    -42.5839675  0.750388E-02  0.506E-01    0.31       1.0  T
   3    -42.5855963 -0.162879E-02  0.437E-01    0.54       1.0  T
   4    -42.5915473 -0.595109E-02  0.739E-02    0.41       1.0  T
   5    -42.5916734 -0.126049E-03  0.347E-02    0.43       1.0  T
   6    -42.5917129 -0.395044E-04  0.791E-03    0.42       2.5  T
   7    -42.5917144 -0.148066E-05  0.198E-03    0.42      10.1  T
   8    -42.5917143  0.689452E-07  0.179E-03    0.42      11.2  T
   9    -42.5917144 -0.910368E-07  0.443E-04    0.42      45.1  T
  10    -42.5917144 -0.502057E-08  0.141E-04    0.42     141.8  T
     SCC iter.                  ...        0 min,  0.014 sec
     gradient                   ...        0 min,  0.012 sec
 * total energy  :   -72.0876187 Eh     change       -0.1001894E-01 Eh
   gradient norm :     0.2022482 Eh/α   predicted    -0.8776633E-02 ( -12.40%)
   displ. norm   :     0.5440929 α      lambda       -0.9098204E-02
   maximum displ.:     0.2882497 α      in ANC's #12, #9, #6, ...

........................................................................
.............................. CYCLE   29 ..............................
........................................................................

 iter      E             dE          RMSdq      gap      omega  full diag
   1    -42.6000047 -0.426000E+02  0.424E-01    0.48       0.0  T
   2    -42.4667609  0.133244E+00  0.195E+00    0.29       1.0  T
   3    -42.6029369 -0.136176E+00  0.190E-01    0.41       1.0  T
   4    -42.6023144  0.622432E-03  0.146E-01    0.36       1.0  T
   5    -42.6030676 -0.753168E-03  0.234E-02    0.39       1.0  T
   6    -42.6030853 -0.177220E-04  0.479E-03    0.39       4.2  T
   7    -42.6030854 -0.120855E-06  0.347E-03    0.39       5.8  T
   8    -42.6030857 -0.248180E-06  0.151E-03    0.39      13.2  T
   9    -42.6030857 -0.537571E-07  0.403E-04    0.39      49.6  T
  10    -42.6030857 -0.397583E-08  0.136E-04    0.39     147.3  T
     SCC iter.                  ...        0 min,  0.014 sec
     gradient                   ...        0 min,  0.012 sec
 * total energy  :   -72.0945534 Eh     change       -0.6934725E-02 Eh
   gradient norm :     0.2668437 Eh/α   predicted    -0.5895860E-02 ( -14.98%)
   displ. norm   :     0.5042536 α      lambda       -0.7529605E-02
   maximum displ.:     0.3009030 α      in ANC's #12, #6, #9, ...

........................................................................
.............................. CYCLE   30 ..............................
........................................................................

 iter      E             dE          RMSdq      gap      omega  full diag
   1    -42.6059787 -0.426060E+02  0.492E-01    0.49       0.0  T
   2    -42.4312388  0.174740E+00  0.220E+00    0.34       1.0  T
   3    -42.6080696 -0.176831E+00  0.299E-01    0.45       1.0  T
   4    -42.6095481 -0.147857E-02  0.109E-01    0.37       1.0  T
   5    -42.6099329 -0.384720E-03  0.143E-02    0.38       1.4  T
   6    -42.6099316  0.129255E-05  0.132E-02    0.39       1.5  T
   7    -42.6099346 -0.299063E-05  0.836E-03    0.39       2.4  T
   8    -42.6099365 -0.195320E-05  0.266E-03    0.39       7.5  T
   9    -42.6099367 -0.192551E-06  0.744E-04    0.38      26.9  T
  10    -42.6099367 -0.156961E-07  0.182E-04    0.38     110.2  T
     SCC iter.                  ...        0 min,  0.014 sec
     gradient                   ...        0 min,  0.012 sec
 * total energy  :   -72.0999426 Eh     change       -0.5389244E-02 Eh
   gradient norm :     0.0561255 Eh/α   predicted    -0.4722119E-02 ( -12.38%)
   displ. norm   :     0.5405246 α      lambda       -0.5821551E-02
   maximum displ.:     0.2646588 α      in ANC's #12, #9, #6, ...

........................................................................
.............................. CYCLE   31 ..............................
........................................................................

 iter      E             dE          RMSdq      gap      omega  full diag
   1    -42.6063930 -0.426064E+02  0.655E-01    0.58       0.0  T
   2    -42.2061615  0.400231E+00  0.333E+00    0.72       1.0  T
   3    -42.6152866 -0.409125E+00  0.299E-01    0.46       1.0  T
   4    -42.6165335 -0.124692E-02  0.142E-01    0.38       1.0  T
   5    -42.6171171 -0.583650E-03  0.225E-02    0.38       1.0  T
   6    -42.6171260 -0.886761E-05  0.122E-02    0.39       1.6  T
   7    -42.6171291 -0.309753E-05  0.665E-03    0.39       3.0  T
   8    -42.6171303 -0.116404E-05  0.153E-03    0.39      13.1  T
   9    -42.6171303 -0.452068E-07  0.413E-04    0.39      48.4  T
  10    -42.6171303 -0.335338E-08  0.161E-04    0.39     124.0  T
     SCC iter.                  ...        0 min,  0.014 sec
     gradient                   ...        0 min,  0.012 sec
 * total energy  :   -72.1031254 Eh     change       -0.3182777E-02 Eh
   gradient norm :     0.2867278 Eh/α   predicted    -0.3761242E-02 (  18.17%)
   displ. norm   :     0.3019361 α      lambda       -0.4019059E-02
   maximum displ.:     0.1319300 α      in ANC's #9, #6, #5, ...

........................................................................
.............................. CYCLE   32 ..............................
........................................................................

 iter      E             dE          RMSdq      gap      omega  full diag
   1    -42.6219407 -0.426219E+02  0.270E-01    0.45       0.0  T
   2    -42.5746683  0.472724E-01  0.112E+00    0.13       1.0  T
   3    -42.6223079 -0.476396E-01  0.177E-01    0.43       1.0  T
   4    -42.6229805 -0.672567E-03  0.193E-02    0.39       1.0  T
   5    -42.6229858 -0.525928E-05  0.838E-03    0.39       2.4  T
   6    -42.6229876 -0.184118E-05  0.308E-03    0.39       6.5  T
   7    -42.6229877 -0.854753E-07  0.166E-03    0.39      12.1  T
   8    -42.6229877 -0.480972E-07  0.473E-04    0.39      42.3  T
   9    -42.6229877 -0.563819E-08  0.208E-04    0.39      96.4  T
     SCC iter.                  ...        0 min,  0.012 sec
     gradient                   ...        0 min,  0.012 sec
 * total energy  :   -72.1054774 Eh     change       -0.2352032E-02 Eh
   gradient norm :     0.0715091 Eh/α   predicted    -0.2192757E-02 (  -6.77%)
   displ. norm   :     0.5374127 α      lambda       -0.4393830E-02
   maximum displ.:     0.3579859 α      in ANC's #12, #9, #6, ...

........................................................................
.............................. CYCLE   33 ..............................
........................................................................

 iter      E             dE          RMSdq      gap      omega  full diag
   1    -42.6058481 -0.426058E+02  0.532E-01    0.44       0.0  T
   2    -42.5602134  0.456347E-01  0.106E+00    0.12       1.0  T
   3    -42.5779129 -0.176995E-01  0.951E-01    0.73       1.0  T
   4    -42.6036842 -0.257713E-01  0.295E-01    0.49       1.0  T
   5    -42.6060141 -0.232981E-02  0.157E-01    0.45       1.0  T
   6    -42.6066514 -0.637317E-03  0.805E-02    0.42       1.0  T
   7    -42.6068500 -0.198662E-03  0.305E-02    0.41       1.0  T
   8    -42.6068751 -0.250931E-04  0.126E-02    0.40       1.6  T
   9    -42.6068806 -0.550643E-05  0.101E-03    0.40      19.7  T
  10    -42.6068806 -0.404620E-08  0.869E-04    0.40      23.0  T
  11    -42.6068807 -0.221773E-07  0.269E-04    0.40      74.2  T
     SCC iter.                  ...        0 min,  0.015 sec
     gradient                   ...        0 min,  0.012 sec
 * total energy  :   -72.1055680 Eh     change       -0.9058505E-04 Eh
   gradient norm :     0.1376134 Eh/α   predicted    -0.2831417E-02 (3025.70%)
   displ. norm   :     0.1598783 α      lambda       -0.3706636E-02
   maximum displ.:     0.0980048 α      in ANC's #4, #12, #3, ...

........................................................................
.............................. CYCLE   34 ..............................
........................................................................

 iter      E             dE          RMSdq      gap      omega  full diag
   1    -42.6180245 -0.426180E+02  0.125E-01    0.40       0.0  T
   2    -42.6174219  0.602545E-03  0.167E-01    0.36       1.0  T
   3    -42.6179251 -0.503210E-03  0.744E-02    0.41       1.0  T
   4    -42.6179816 -0.564759E-04  0.471E-02    0.38       1.0  T
   5    -42.6180406 -0.590223E-04  0.165E-02    0.39       1.2  T
   6    -42.6180487 -0.804491E-05  0.705E-03    0.39       2.8  T
   7    -42.6180500 -0.132213E-05  0.227E-03    0.39       8.8  T
   8    -42.6180501 -0.153909E-06  0.297E-04    0.39      67.4  T
   9    -42.6180501 -0.699728E-09  0.145E-04    0.39     137.9  T
     SCC iter.                  ...        0 min,  0.012 sec
     gradient                   ...        0 min,  0.012 sec
 * total energy  :   -72.1076681 Eh     change       -0.2100112E-02 Eh
   gradient norm :     0.0369722 Eh/α   predicted    -0.1900717E-02 (  -9.49%)
   displ. norm   :     0.1698049 α      lambda       -0.5925436E-03
   maximum displ.:     0.0797898 α      in ANC's #4, #9, #6, ...

........................................................................
.............................. CYCLE   35 ..............................
........................................................................

 iter      E             dE          RMSdq      gap      omega  full diag
   1    -42.6198149 -0.426198E+02  0.101E-01    0.40       0.0  T
   2    -42.6197674  0.474322E-04  0.672E-02    0.38       1.0  T
   3    -42.6169277  0.283973E-02  0.275E-01    0.49       1.0  T
   4    -42.6198112 -0.288356E-02  0.185E-02    0.39       1.1  T
   5    -42.6198215 -0.102358E-04  0.383E-03    0.39       5.2  T
   6    -42.6198218 -0.284120E-06  0.177E-03    0.39      11.3  T
   7    -42.6198218 -0.272347E-07  0.105E-03    0.39      19.0  T
   8    -42.6198218 -0.296400E-07  0.210E-04    0.39      95.3  T
   9    -42.6198218 -0.775678E-09  0.972E-05    0.39     205.8  T
     SCC iter.                  ...        0 min,  0.012 sec
     gradient                   ...        0 min,  0.012 sec
 * total energy  :   -72.1081087 Eh     change       -0.4405362E-03 Eh
   gradient norm :     0.0479792 Eh/α   predicted    -0.3048322E-03 ( -30.80%)
   displ. norm   :     0.3437809 α      lambda       -0.8899152E-03
   maximum displ.:     0.1833332 α      in ANC's #4, #9, #3, ...

........................................................................
.............................. CYCLE   36 ..............................
........................................................................

 iter      E             dE          RMSdq      gap      omega  full diag
   1    -42.6213709 -0.426214E+02  0.218E-01    0.41       0.0  T
   2    -42.6179064  0.346443E-02  0.316E-01    0.30       1.0  T
   3    -42.6165979  0.130851E-02  0.378E-01    0.52       1.0  T
   4    -42.6213786 -0.478066E-02  0.511E-02    0.41       1.0  T
   5    -42.6214719 -0.932716E-04  0.950E-03    0.40       2.1  T
   6    -42.6214741 -0.220079E-05  0.293E-03    0.40       6.8  T
   7    -42.6214740  0.854085E-07  0.236E-03    0.39       8.5  T
   8    -42.6214741 -0.149754E-06  0.819E-04    0.39      24.4  T
   9    -42.6214741 -0.213390E-07  0.228E-04    0.40      87.9  T
     SCC iter.                  ...        0 min,  0.012 sec
     gradient                   ...        0 min,  0.012 sec
 * total energy  :   -72.1082418 Eh     change       -0.1330825E-03 Eh
   gradient norm :     0.1457794 Eh/α   predicted    -0.4975552E-03 ( 273.87%)
   displ. norm   :     0.2590692 α      lambda       -0.1091314E-02
   maximum displ.:     0.1078293 α      in ANC's #12, #1, #4, ...

........................................................................
.............................. CYCLE   37 ..............................
........................................................................

 iter      E             dE          RMSdq      gap      omega  full diag
   1    -42.6184165 -0.426184E+02  0.208E-01    0.42       0.0  T
   2    -42.6075939  0.108226E-01  0.527E-01    0.24       1.0  T
   3    -42.6153753 -0.778137E-02  0.323E-01    0.50       1.0  T
   4    -42.6186177 -0.324245E-02  0.421E-02    0.41       1.0  T
   5    -42.6186595 -0.417998E-04  0.219E-02    0.40       1.0  T
   6    -42.6186739 -0.144227E-04  0.911E-03    0.40       2.2  T
   7    -42.6186765 -0.259831E-05  0.107E-03    0.40      18.8  T
   8    -42.6186765 -0.779139E-08  0.514E-04    0.40      38.9  T
   9    -42.6186766 -0.612150E-08  0.191E-04    0.40     104.9  T
     SCC iter.                  ...        0 min,  0.012 sec
     gradient                   ...        0 min,  0.012 sec
 * total energy  :   -72.1086445 Eh     change       -0.4027699E-03 Eh
   gradient norm :     0.0658590 Eh/α   predicted    -0.5822865E-03 (  44.57%)
   displ. norm   :     0.1464286 α      lambda       -0.4277538E-03
   maximum displ.:     0.0688502 α      in ANC's #12, #9, #6, ...

........................................................................
.............................. CYCLE   38 ..............................
........................................................................

 iter      E             dE          RMSdq      gap      omega  full diag
   1    -42.6214975 -0.426215E+02  0.136E-01    0.37       0.0  T
   2    -42.6139058  0.759177E-02  0.443E-01    0.55       1.0  T
   3    -42.6211104 -0.720465E-02  0.146E-01    0.35       1.0  T
   4    -42.6217382 -0.627798E-03  0.939E-03    0.39       2.1  T
   5    -42.6217391 -0.926391E-06  0.380E-03    0.40       5.3  T
   6    -42.6217395 -0.367992E-06  0.150E-03    0.39      13.4  T
   7    -42.6217395 -0.254880E-07  0.640E-04    0.39      31.2  T
   8    -42.6217395 -0.170451E-08  0.333E-04    0.39      60.0  T
     SCC iter.                  ...        0 min,  0.011 sec
     gradient                   ...        0 min,  0.012 sec
 * total energy  :   -72.1088143 Eh     change       -0.1697832E-03 Eh
   gradient norm :     0.0277228 Eh/α   predicted    -0.2184673E-03 (  28.67%)
   displ. norm   :     0.1053719 α      lambda       -0.3030080E-03
   maximum displ.:     0.0663055 α      in ANC's #4, #3, #1, ...

........................................................................
.............................. CYCLE   39 ..............................
........................................................................

 iter      E             dE          RMSdq      gap      omega  full diag
   1    -42.6221298 -0.426221E+02  0.561E-02    0.39       0.0  T
   2    -42.6220302  0.995792E-04  0.619E-02    0.41       1.0  T
   3    -42.6217009  0.329286E-03  0.109E-01    0.36       1.0  T
   4    -42.6221325 -0.431548E-03  0.102E-02    0.39       2.0  T
   5    -42.6221351 -0.261147E-05  0.350E-03    0.39       5.7  T
   6    -42.6221354 -0.361278E-06  0.804E-04    0.39      24.9  T
   7    -42.6221354 -0.164525E-08  0.409E-04    0.39      48.9  T
     SCC iter.                  ...        0 min,  0.010 sec
     gradient                   ...        0 min,  0.012 sec
 * total energy  :   -72.1090355 Eh     change       -0.2212120E-03 Eh
   gradient norm :     0.0310547 Eh/α   predicted    -0.1532049E-03 ( -30.74%)
   displ. norm   :     0.3094328 α      lambda       -0.3889750E-03
   maximum displ.:     0.1852858 α      in ANC's #4, #1, #2, ...

........................................................................
.............................. CYCLE   40 ..............................
........................................................................

 iter      E             dE          RMSdq      gap      omega  full diag
   1    -42.6209764 -0.426210E+02  0.141E-01    0.40       0.0  T
   2    -42.6209093  0.671965E-04  0.907E-02    0.38       1.0  T
   3    -42.6159216  0.498763E-02  0.368E-01    0.52       1.0  T
   4    -42.6209662 -0.504463E-02  0.221E-02    0.39       1.0  T
   5    -42.6209837 -0.174112E-04  0.612E-03    0.39       3.3  T
   6    -42.6209848 -0.114113E-05  0.204E-03    0.39       9.8  T
   7    -42.6209849 -0.571901E-07  0.769E-04    0.39      26.0  T
   8    -42.6209849 -0.564527E-08  0.346E-04    0.39      57.8  T
     SCC iter.                  ...        0 min,  0.011 sec
     gradient                   ...        0 min,  0.012 sec
 * total energy  :   -72.1093177 Eh     change       -0.2821493E-03 Eh
   gradient norm :     0.0272302 Eh/α   predicted    -0.2131425E-03 ( -24.46%)
   displ. norm   :     0.3257737 α      lambda       -0.2891241E-03
   maximum displ.:     0.1805922 α      in ANC's #1, #4, #8, ...

........................................................................
.............................. CYCLE   41 ..............................
........................................................................

 iter      E             dE          RMSdq      gap      omega  full diag
   1    -42.6198558 -0.426199E+02  0.121E-01    0.38       0.0  T
   2    -42.6191847  0.671097E-03  0.155E-01    0.43       1.0  T
   3    -42.6185817  0.602997E-03  0.191E-01    0.33       1.0  T
   4    -42.6198729 -0.129117E-02  0.138E-02    0.39       1.5  T
   5    -42.6198773 -0.434633E-05  0.553E-03    0.39       3.6  T
   6    -42.6198782 -0.913908E-06  0.194E-03    0.39      10.3  T
   7    -42.6198782 -0.518876E-07  0.494E-04    0.39      40.5  T
   8    -42.6198782  0.354738E-09  0.345E-04    0.39      58.0  T
     SCC iter.                  ...        0 min,  0.011 sec
     gradient                   ...        0 min,  0.012 sec
 * total energy  :   -72.1095247 Eh     change       -0.2070517E-03 Eh
   gradient norm :     0.0124462 Eh/α   predicted    -0.1599152E-03 ( -22.77%)
   displ. norm   :     0.2804309 α      lambda       -0.2201487E-03
   maximum displ.:     0.1797752 α      in ANC's #1, #4, #13, ...

........................................................................
.............................. CYCLE   42 ..............................
........................................................................

 iter      E             dE          RMSdq      gap      omega  full diag
   1    -42.6198541 -0.426199E+02  0.944E-02    0.37       0.0  T
   2    -42.6170777  0.277639E-02  0.278E-01    0.48       1.0  T
   3    -42.6198417 -0.276395E-02  0.665E-02    0.37       1.0  T
   4    -42.6199326 -0.909263E-04  0.610E-03    0.39       3.3  T
   5    -42.6199334 -0.827919E-06  0.217E-03    0.39       9.2  T
   6    -42.6199335 -0.418267E-07  0.126E-03    0.39      15.9  T
   7    -42.6199335 -0.346665E-07  0.373E-04    0.39      53.7  T
   8    -42.6199335 -0.157448E-08  0.164E-04    0.39     122.1  T
     SCC iter.                  ...        0 min,  0.011 sec
     gradient                   ...        0 min,  0.012 sec
 * total energy  :   -72.1096884 Eh     change       -0.1636278E-03 Eh
   gradient norm :     0.0085561 Eh/α   predicted    -0.1187618E-03 ( -27.42%)
   displ. norm   :     0.2805761 α      lambda       -0.2020898E-03
   maximum displ.:     0.1938628 α      in ANC's #1, #4, #13, ...
 * RMSD in coord.:     1.0768812 α      energy gain  -0.1244706E+00 Eh

generating ANC from model Hessian ...
Using Lindh-Hessian (1995)
 Shifting diagonal of input Hessian by    9.8889479364699072E-003
 Lowest  eigenvalues of input Hessian
    0.000000    0.000000    0.000000    0.000000    0.000000    0.000000
    0.010000    0.010032    0.010187    0.010718    0.012797    0.018047
    0.019993    0.021250    0.022913    0.028872    0.029519    0.034214
 Highest eigenvalues
    2.152821    2.233648    2.325688    2.455801   21.877013   25.817155


........................................................................
.............................. CYCLE   43 ..............................
........................................................................

 iter      E             dE          RMSdq      gap      omega  full diag
   1    -42.6204828 -0.426205E+02  0.947E-02    0.37       0.0  T
   2    -42.6164186  0.406420E-02  0.335E-01    0.50       1.0  T
   3    -42.6205594 -0.414082E-02  0.530E-02    0.37       1.0  T
   4    -42.6205973 -0.378744E-04  0.868E-03    0.39       2.3  T
   5    -42.6205997 -0.241885E-05  0.365E-03    0.38       5.5  T
   6    -42.6206001 -0.393911E-06  0.132E-03    0.38      15.2  T
   7    -42.6206001 -0.164162E-07  0.401E-04    0.38      49.9  T
   8    -42.6206001 -0.171151E-08  0.125E-04    0.38     159.7  T
     SCC iter.                  ...        0 min,  0.011 sec
     gradient                   ...        0 min,  0.012 sec
 * total energy  :   -72.1098365 Eh     change       -0.1481257E-03 Eh
   gradient norm :     0.0088797 Eh/α   predicted     0.0000000E+00 (-100.00%)
   displ. norm   :     0.0581858 α      lambda       -0.1171461E-03
   maximum displ.:     0.0329649 α      in ANC's #3, #1, #2, ...

........................................................................
.............................. CYCLE   44 ..............................
........................................................................

 iter      E             dE          RMSdq      gap      omega  full diag
   1    -42.6212873 -0.426213E+02  0.345E-02    0.38       0.0  T
   2    -42.6209770  0.310338E-03  0.945E-02    0.41       1.0  T
   3    -42.6212888 -0.311836E-03  0.218E-02    0.38       1.0  T
   4    -42.6212956 -0.681657E-05  0.403E-03    0.38       5.0  T
   5    -42.6212959 -0.311560E-06  0.187E-03    0.38      10.7  T
   6    -42.6212960 -0.105227E-06  0.618E-04    0.38      32.3  T
   7    -42.6212960  0.766462E-09  0.382E-04    0.38      52.3  T
     SCC iter.                  ...        0 min,  0.010 sec
     gradient                   ...        0 min,  0.012 sec
 * total energy  :   -72.1098103 Eh     change        0.2614144E-04 Eh
   gradient norm :     0.1214883 Eh/α   predicted    -0.5878014E-04 (-324.85%)
   displ. norm   :     0.4226458 α      lambda       -0.1051194E-02
   maximum displ.:     0.2298303 α      in ANC's #3, #1, #2, ...

........................................................................
.............................. CYCLE   45 ..............................
........................................................................

 iter      E             dE          RMSdq      gap      omega  full diag
   1    -42.6228056 -0.426228E+02  0.251E-01    0.35       0.0  T
   2    -42.6124259  0.103797E-01  0.558E-01    0.57       1.0  T
   3    -42.6226609 -0.102350E-01  0.168E-01    0.35       1.0  T
   4    -42.6231431 -0.482259E-03  0.245E-02    0.39       1.0  T
   5    -42.6231547 -0.115505E-04  0.844E-03    0.38       2.4  T
   6    -42.6231556 -0.895820E-06  0.452E-03    0.38       4.4  T
   7    -42.6231557 -0.106922E-06  0.265E-03    0.38       7.5  T
   8    -42.6231559 -0.206335E-06  0.589E-04    0.38      33.9  T
   9    -42.6231559 -0.520016E-08  0.280E-04    0.38      71.4  T
     SCC iter.                  ...        0 min,  0.012 sec
     gradient                   ...        0 min,  0.013 sec
 * total energy  :   -72.1088142 Eh     change        0.9961747E-03 Eh
   gradient norm :     0.1766865 Eh/α   predicted    -0.6194865E-03 (-162.19%)
   displ. norm   :     0.2004841 α      lambda       -0.2268689E-02
   maximum displ.:     0.0821129 α      in ANC's #3, #1, #2, ...

........................................................................
.............................. CYCLE   46 ..............................
........................................................................

 iter      E             dE          RMSdq      gap      omega  full diag
   1    -42.6224145 -0.426224E+02  0.162E-01    0.41       0.0  T
   2    -42.6143563  0.805825E-02  0.477E-01    0.24       1.0  T
   3    -42.6223682 -0.801193E-02  0.114E-01    0.41       1.0  T
   4    -42.6226069 -0.238725E-03  0.195E-02    0.39       1.0  T
   5    -42.6226142 -0.730359E-05  0.823E-03    0.39       2.4  T
   6    -42.6226159 -0.166651E-05  0.334E-03    0.39       6.0  T
   7    -42.6226159 -0.309944E-07  0.190E-03    0.39      10.5  T
   8    -42.6226160 -0.114460E-06  0.346E-04    0.39      57.8  T
   9    -42.6226160 -0.177779E-08  0.166E-04    0.39     120.7  T
     SCC iter.                  ...        0 min,  0.012 sec
     gradient                   ...        0 min,  0.012 sec
 * total energy  :   -72.1100538 Eh     change       -0.1239667E-02 Eh
   gradient norm :     0.0141261 Eh/α   predicted    -0.1180009E-02 (  -4.81%)
   displ. norm   :     0.0462901 α      lambda       -0.7452788E-04
   maximum displ.:     0.0329315 α      in ANC's #3, #1, #2, ...

........................................................................
.............................. CYCLE   47 ..............................
........................................................................

 iter      E             dE          RMSdq      gap      omega  full diag
   1    -42.6217233 -0.426217E+02  0.390E-02    0.39       0.0  T
   2    -42.6210984  0.624893E-03  0.130E-01    0.35       1.0  T
   3    -42.6217008 -0.602403E-03  0.374E-02    0.40       1.0  T
   4    -42.6217388 -0.380033E-04  0.484E-03    0.39       4.1  T
   5    -42.6217392 -0.466751E-06  0.200E-03    0.39      10.0  T
   6    -42.6217394 -0.139544E-06  0.515E-04    0.39      38.8  T
   7    -42.6217394 -0.123973E-08  0.352E-04    0.39      56.9  T
     SCC iter.                  ...        0 min,  0.010 sec
     gradient                   ...        0 min,  0.012 sec
 * total energy  :   -72.1101096 Eh     change       -0.5578984E-04 Eh
   gradient norm :     0.0064405 Eh/α   predicted    -0.3736184E-04 ( -33.03%)
   displ. norm   :     0.1208824 α      lambda       -0.8496719E-04
   maximum displ.:     0.0839815 α      in ANC's #3, #1, #2, ...

........................................................................
.............................. CYCLE   48 ..............................
........................................................................

 iter      E             dE          RMSdq      gap      omega  full diag
   1    -42.6209802 -0.426210E+02  0.659E-02    0.40       0.0  T
   2    -42.6203368  0.643421E-03  0.134E-01    0.35       1.0  T
   3    -42.6207064 -0.369570E-03  0.960E-02    0.42       1.0  T
   4    -42.6209961 -0.289789E-03  0.557E-03    0.39       3.6  T
   5    -42.6209968 -0.637728E-06  0.249E-03    0.39       8.0  T
   6    -42.6209970 -0.197668E-06  0.821E-04    0.39      24.3  T
   7    -42.6209970 -0.575066E-08  0.377E-04    0.39      53.0  T
     SCC iter.                  ...        0 min,  0.010 sec
     gradient                   ...        0 min,  0.012 sec
 * total energy  :   -72.1101792 Eh     change       -0.6962824E-04 Eh
   gradient norm :     0.0116814 Eh/α   predicted    -0.4311347E-04 ( -38.08%)
   displ. norm   :     0.2250104 α      lambda       -0.1222791E-03
   maximum displ.:     0.1519049 α      in ANC's #3, #1, #2, ...

........................................................................
.............................. CYCLE   49 ..............................
........................................................................

 iter      E             dE          RMSdq      gap      omega  full diag
   1    -42.6201346 -0.426201E+02  0.105E-01    0.39       0.0  T
   2    -42.6199578  0.176820E-03  0.880E-02    0.37       1.0  T
   3    -42.6174666  0.249122E-02  0.273E-01    0.48       1.0  T
[...]
C           -3.13348384163714        3.40017384363339       -0.22763114266431
C           -1.66370058350129       -0.96164557090202        0.10580102781709
O           -2.80296298067900        2.45807083563912        0.60775503551944
N           -0.69871405540464       -1.92822019118848       -0.00827991202107
C           -1.03117087441592       -3.33325976360401       -0.07872359640060
H            3.69599872684962        1.19360159681805        0.88389490519353
H            3.55075029088700        1.35314337387577       -0.87660466472533
H            2.28401696794716        2.01957840760568        0.17835777148686
H            3.80262371995471       -1.50021911426263       -0.12831304394635
H           -2.44903351706433        2.36187102754246        0.78278747269169
H           -4.14154667651206        3.43355860370334       -0.61668357644929
H           -2.40878327723843        4.14637230244385       -0.53636190813070
H           -0.53118394374121       -3.88886631773081        0.71699146355770
H           -0.75145713455758       -3.74956443642718       -1.04860949761272
H           -2.10780849954212       -3.42542124461311        0.04712266523462
H            1.87685024859765       -3.15892145193020       -0.17535395791870

 Bond Distances (Angstroems)
 ---------------------------
C1-N2=1.4394         C1-H15=1.0897        C1-H16=1.0903        C1-H17=1.0900        N2-C1=1.4394         N2-C3=1.3226         
N2-C6=1.3735         C3-N2=1.3226         C3-N4=1.3495         C3-H18=1.0721        N4-C3=1.3495         N4-C5=1.3698         
N4-H25=1.0098        C5-N4=1.3698         C5-C6=1.3894         C5-N13=1.3478        C6-N2=1.3735         C6-C5=1.3894         
C6-C7=1.4675         C7-C6=1.4675         C7-O8=1.2141         C7-N9=1.3748         O8-C7=1.2141         N9-C7=1.3748         
N9-C11=1.2723        C10-O12=1.3018       C10-H20=1.0810       C10-H21=1.0850       C11-N9=1.2723        C11-N13=1.3706       
O12-C10=1.3018       O12-H19=0.4064       N13-C5=1.3478        N13-C11=1.3706       N13-C14=1.4456       C14-N13=1.4456       
C14-H22=1.0917       C14-H23=1.0919       C14-H24=1.0879       H15-C1=1.0897        H16-C1=1.0903        H17-C1=1.0900        
H18-C3=1.0721        H19-O12=0.4064       H20-C10=1.0810       H21-C10=1.0850       H22-C14=1.0917       H23-C14=1.0919       
H24-C14=1.0879       H25-N4=1.0098        
 C  H  Rav=1.0866 sigma=0.0061  Rmin=1.0721  Rmax=1.0919     9
 C  C  Rav=1.4284 sigma=0.0391  Rmin=1.3894  Rmax=1.4675     2
 N  H  Rav=1.0098 sigma=0.0000  Rmin=1.0098  Rmax=1.0098     1
 N  C  Rav=1.3666 sigma=0.0481  Rmin=1.2723  Rmax=1.4456    10
 O  H  Rav=0.4064 sigma=0.0000  Rmin=0.4064  Rmax=0.4064     1
 O  C  Rav=1.2579 sigma=0.0439  Rmin=1.2141  Rmax=1.3018     2

 selected bond angles (degree)
 --------------------
H15-C1-N2=110.35               H16-C1-N2=110.36               H16-C1-H15=108.90              H17-C1-N2=108.31               
H17-C1-H15=109.63              H17-C1-H16=109.28              C3-N2-C1=127.08                C6-N2-C1=124.57                
C6-N2-C3=108.35                N4-C3-N2=109.83                H18-C3-N2=125.56               H18-C3-N4=124.62               
C5-N4-C3=108.04                H25-N4-C3=125.25               H25-N4-C5=126.71               C6-C5-N4=106.65                
N13-C5-N4=130.65               N13-C5-C6=122.69               C5-C6-N2=107.14                C7-C6-N2=132.35                
C7-C6-C5=120.49                O8-C7-C6=125.54                N9-C7-C6=110.43                N9-C7-O8=124.03                
C11-N9-C7=127.56               H20-C10-O12=119.34             H21-C10-O12=120.71             H21-C10-H20=119.95             

 selected dihedral angles (degree)
 ---------------------------------
C3-N2-C1-H15=303.43           C3-N2-C1-H16= 63.83           C3-N2-C1-H17=183.42           C6-N2-C1-H15=123.42           
C6-N2-C1-H16=243.83           C6-N2-C1-H17=  3.41           N4-C3-N2-C1=179.94            N4-C3-N2-C6=359.95            
H18-C3-N2-C1=  0.07           H18-C3-N2-C6=180.08           C5-N4-C3-N2=  0.00            C5-N4-C3-H18=179.86           
H25-N4-C3-N2=179.65           H25-N4-C3-H18=359.53          C6-C5-N4-C3=  0.07            C6-C5-N4-H25=180.41           
N13-C5-N4-C3=180.95           N13-C5-N4-H25=  1.30          C5-C6-N2-C1=180.10            C5-C6-N2-C3=  0.09            
C7-C6-N2-C1=358.27            C7-C6-N2-C3=178.27            N2-C6-C5-N4=359.90            N2-C6-C5-N13=179.11           
C7-C6-C5-N4=181.47            C7-C6-C5-N13=  0.67           O8-C7-C6-N2=  1.47            O8-C7-C6-C5=179.45            
N9-C7-C6-N2=181.90            N9-C7-C6-C5=359.87            C11-N9-C7-C6=359.60           C11-N9-C7-O8=180.02           
           -------------------------------------------------
          |                Final Singlepoint                |
           -------------------------------------------------

          ...................................................
          :                      SETUP                      :
          :.................................................:
          :  # basis functions                  67          :
          :  # atomic orbitals                  67          :
          :  # shells                           39          :
          :  # electrons                        74          :
          :  max. iterations                   250          :
          :  Hamiltonian                  GFN2-xTB          :
          :  restarted?                      false          :
          :  GBSA solvation                  false          :
          :  PC potential                    false          :
          :  electronic temp.         2500.0000000     K    :
          :  accuracy                    1.0000000          :
          :  -> integral cutoff          0.2500000E+02      :
          :  -> integral neglect         0.1000000E-07      :
          :  -> SCF convergence          0.1000000E-05 Eh   :
          :  -> wf. convergence          0.1000000E-03 e    :
          :  Broyden damping             0.4000000          :
          ...................................................

 iter      E             dE          RMSdq      gap      omega  full diag
   1    -42.6243370 -0.426243E+02  0.554E-05    0.45       0.0  T
   2    -42.6243370  0.247134E-09  0.880E-05    0.45     227.2  T
   3    -42.6243370  0.108784E-09  0.102E-04    0.45     196.0  T

   *** convergence criteria satisfied after 3 iterations ***

         #    Occupation            Energy/Eh            Energy/eV
      -------------------------------------------------------------
         1        2.0000           -0.8939516             -24.3257
       ...           ...                  ...                  ...
        31        2.0000           -0.6020251             -16.3819
        32        2.0000           -0.5767933             -15.6953
        33        2.0000           -0.5727812             -15.5862
        34        2.0000           -0.5425340             -14.7631
        35        1.9999           -0.5301863             -14.4271
        36        1.9999           -0.5277981             -14.3621
        37        1.4658           -0.4567138             -12.4278 (HOMO)
        38        0.5021           -0.4400701             -11.9749 (LUMO)
        39        0.0321           -0.4161325             -11.3235
        40        0.0001           -0.3733334             -10.1589
        41        0.0000           -0.3559002              -9.6845
        42                         -0.2449004              -6.6641
       ...                                ...                  ...
        67                          5.4193894             147.4691
      -------------------------------------------------------------
                  HL-Gap            0.0166437 Eh            0.4529 eV
             Fermi-level           -0.4487227 Eh          -12.2104 eV

 SCC (total)                   0 d,  0 h,  0 min,  0.022 sec
 SCC setup                      ...        0 min,  0.000 sec (  0.852%)
 Dispersion                     ...        0 min,  0.000 sec (  0.887%)
 classical contributions        ...        0 min,  0.000 sec (  0.319%)
 integral evaluation            ...        0 min,  0.005 sec ( 21.105%)
 iterations                     ...        0 min,  0.005 sec ( 20.920%)
 molecular gradient             ...        0 min,  0.012 sec ( 55.300%)
 printout                       ...        0 min,  0.000 sec (  0.556%)

         :::::::::::::::::::::::::::::::::::::::::::::::::::::
         ::                     SUMMARY                     ::
         :::::::::::::::::::::::::::::::::::::::::::::::::::::
         :: total energy             -72.113778788088 Eh    ::
         :: gradient norm              0.003812179219 Eh/a0 ::
         :: HOMO-LUMO gap              0.452898522338 eV    ::
         ::.................................................::
         :: SCC energy               -42.624336978833 Eh    ::
         :: -> isotropic ES            0.118399198188 Eh    ::
         :: -> anisotropic ES         -0.005027829034 Eh    ::
         :: -> anisotropic XC          0.016923760800 Eh    ::
         :: -> dispersion             -0.021130349289 Eh    ::
         :: repulsion energy           2.412615914278 Eh    ::
         :: add. restraining         -31.902065889465 Eh    ::
         :: total charge               0.999999999977 e     ::
         :::::::::::::::::::::::::::::::::::::::::::::::::::::

           -------------------------------------------------
          |                Property Printout                |
           -------------------------------------------------

    * Orbital Energies and Occupations

         #    Occupation            Energy/Eh            Energy/eV
      -------------------------------------------------------------
         1        2.0000           -0.8939516             -24.3257
       ...           ...                  ...                  ...
        25        2.0000           -0.6600645             -17.9613
        26        2.0000           -0.6553731             -17.8336
        27        2.0000           -0.6363984             -17.3173
        28        2.0000           -0.6201693             -16.8757
        29        2.0000           -0.6117076             -16.6454
        30        2.0000           -0.6086776             -16.5630
        31        2.0000           -0.6020251             -16.3819
        32        2.0000           -0.5767933             -15.6953
        33        2.0000           -0.5727812             -15.5862
        34        2.0000           -0.5425340             -14.7631
        35        1.9999           -0.5301863             -14.4271
        36        1.9999           -0.5277981             -14.3621
        37        1.4658           -0.4567138             -12.4278 (HOMO)
        38        0.5021           -0.4400701             -11.9749 (LUMO)
        39        0.0321           -0.4161325             -11.3235
        40        0.0001           -0.3733334             -10.1589
        41        0.0000           -0.3559002              -9.6845
        42                         -0.2449004              -6.6641
        43                         -0.1796919              -4.8897
        44                         -0.1503502              -4.0912
        45                         -0.1139316              -3.1002
        46                         -0.0657621              -1.7895
        47                         -0.0252127              -0.6861
        48                         -0.0140042              -0.3811
       ...                                ...                  ...
        67                          5.4193894             147.4691
      -------------------------------------------------------------
                  HL-Gap            0.0166437 Eh            0.4529 eV
             Fermi-level           -0.4487227 Eh          -12.2104 eV

     #   Z          covCN         q      C6AA      α(0)
     1   6 C        3.692    -0.087    22.361     6.766
     2   7 N        2.837     0.074    19.961     6.636
     3   6 C        3.052     0.057    26.666     8.469
     4   7 N        2.797    -0.071    22.610     7.062
     5   6 C        3.071     0.113    25.452     8.272
     6   6 C        3.121    -0.018    28.270     8.708
     7   6 C        2.772     0.285    22.168     7.711
     8   8 O        0.858    -0.417    22.023     6.292
     9   7 N        1.844    -0.239    27.104     7.716
    10   6 C        2.795     0.070    26.417     8.420
    11   6 C        1.906    -0.010    31.386     9.048
    12   8 O        1.664    -0.220    17.671     5.675
    13   7 N        2.741    -0.000    21.271     6.850
    14   6 C        3.696    -0.069    21.995     6.709
    15   1 H        0.925     0.099     1.792     2.093
    16   1 H        0.924     0.101     1.779     2.086
    17   1 H        0.925     0.133     1.512     1.923
    18   1 H        0.926     0.115     1.656     2.012
    19   1 H        0.899     0.375     0.525     1.134
    20   1 H        0.926     0.126     1.562     1.955
    21   1 H        0.925     0.111     1.689     2.032
    22   1 H        0.924     0.069     2.091     2.262
    23   1 H        0.924     0.073     2.053     2.241
    24   1 H        0.925     0.109     1.703     2.041
    25   1 H        0.860     0.222     1.002     1.568

 Mol. C6AA /au·bohr⁶  :       6691.985319
 Mol. C8AA /au·bohr⁸  :     154673.234559
 Mol. α(0) /au        :        125.679341


Wiberg/Mayer (AO) data.
largest (>0.10) Wiberg bond orders for each atom

 ---------------------------------------------------------------------------
     #   Z sym  total        # sym  WBO       # sym  WBO       # sym  WBO
 ---------------------------------------------------------------------------
     1   6 C    3.921 --     2 N    0.985    15 H    0.964    17 H    0.962
                            16 H    0.961
     2   7 N    3.705 --     3 C    1.412     6 C    1.160     1 C    0.985
     3   6 C    3.915 --     2 N    1.412     4 N    1.287    18 H    0.954
     4   7 N    3.588 --     3 C    1.287     5 C    1.167    25 H    0.922
     5   6 C    3.943 --     6 C    1.364    13 N    1.216     4 N    1.167
     6   6 C    3.902 --     5 C    1.364     2 N    1.160     7 C    1.041
     7   6 C    3.918 --     8 O    1.662     9 N    1.127     6 C    1.041
     8   8 O    2.003 --     7 C    1.662     9 N    0.121
     9   7 N    3.077 --    11 C    1.665     7 C    1.127     8 O    0.121
    10   6 C    3.318 --    12 O    1.374    20 H    0.962    21 H    0.958
    11   6 C    2.997 --     9 N    1.665    13 N    1.153
    12   8 O    2.276 --    10 C    1.374    19 H    0.851
    13   7 N    3.587 --     5 C    1.216    11 C    1.153    14 C    0.986
    14   6 C    3.947 --    13 N    0.986    24 H    0.974    22 H    0.973
                            23 H    0.972
    15   1 H    0.989 --     1 C    0.964
    16   1 H    0.989 --     1 C    0.961
    17   1 H    0.982 --     1 C    0.962
    18   1 H    0.986 --     3 C    0.954
    19   1 H    0.859 --    12 O    0.851
    20   1 H    0.984 --    10 C    0.962
    21   1 H    0.988 --    10 C    0.958
    22   1 H    0.993 --    14 C    0.973
    23   1 H    0.993 --    14 C    0.972
    24   1 H    0.987 --    14 C    0.974
    25   1 H    0.950 --     4 N    0.922
 ---------------------------------------------------------------------------

Topologies differ in total number of bonds
Writing topology from bond orders to xtbtopo.mol

molecular dipole:
                 x           y           z       tot (Debye)
 q only:        1.150      -0.804      -0.268
   full:        2.135      -1.505      -0.265       6.673
molecular quadrupole (traceless):
                xx          xy          yy          xz          yz          zz
 q only:       17.000     -22.221      14.726       0.866      -0.794     -31.726
  q+dip:       14.100     -23.618      15.370       0.592      -0.056     -29.471
   full:       12.497     -23.533      14.575       0.722      -0.064     -27.072

           -------------------------------------------------
          |                Geometry Summary                 |
           -------------------------------------------------

      molecular mass/u    :      195.1988581
   center of mass at/Å    :       -0.0020663      -0.0122472       0.0631394
  moments of inertia/u·Å² :        0.5009780E+03   0.9940822E+03   0.1473781E+04
rotational constants/cm⁻¹ :        0.3364945E-01   0.1695799E-01   0.1143836E-01

 * 24 selected distances

     #   Z          #   Z                                           value/Å
     1   6 C        2   7 N                                       1.4394259
     2   7 N        3   6 C                                       1.3226001
     3   6 C        4   7 N                                       1.3494883
     4   7 N        5   6 C                                       1.3697887
     2   7 N        6   6 C                                       1.3735144
     5   6 C        6   6 C                                       1.3893678
     7   6 C        8   8 O                                       1.2140568
     7   6 C        9   7 N                                       1.3748289
     9   7 N       11   6 C                                       1.2722713
    10   6 C       12   8 O                                       1.3017959
     5   6 C       13   7 N                                       1.3477569
    11   6 C       13   7 N                                       1.3705766
    13   7 N       14   6 C                                       1.4455540 (max)
     1   6 C       15   1 H                                       1.0897041
     1   6 C       16   1 H                                       1.0902828
     1   6 C       17   1 H                                       1.0900438
     3   6 C       18   1 H                                       1.0721187
    12   8 O       19   1 H                                       0.4063949 (min)
    10   6 C       20   1 H                                       1.0810491
    10   6 C       21   1 H                                       1.0850428
    14   6 C       22   1 H                                       1.0917180
    14   6 C       23   1 H                                       1.0918920
    14   6 C       24   1 H                                       1.0878786
     4   7 N       25   1 H                                       1.0097640

 * 6 distinct bonds (by element types)

   Z      Z             #   av. dist./Å        max./Å        min./Å
   1 H    6 C           9     1.0866367     1.0918920     1.0721187
   6 C    6 C           1     1.3893678     1.3893678     1.3893678
   1 H    7 N           1     1.0097640     1.0097640     1.0097640
   6 C    7 N          10     1.3665805     1.4455540     1.2722713
   1 H    8 O           1     0.4063949     0.4063949     0.4063949
   6 C    8 O           2     1.2579263     1.3017959     1.2140568


optimized geometry written to: xtbopt.xyz


           -------------------------------------------------
          | TOTAL ENERGY              -72.113778788088 Eh   |
          | GRADIENT NORM               0.003812179219 Eh/α |
          | HOMO-LUMO GAP               0.452898522338 eV   |
           -------------------------------------------------

------------------------------------------------------------------------
 * finished run on 2024/06/05 at 19:58:06.269     
------------------------------------------------------------------------
 total:
 * wall-time:     0 d,  0 h,  0 min,  2.309 sec
 *  cpu-time:     0 d,  0 h,  0 min,  2.291 sec
 * ratio c/w:     0.992 speedup
 SCF:
 * wall-time:     0 d,  0 h,  0 min,  0.039 sec
 *  cpu-time:     0 d,  0 h,  0 min,  0.039 sec
 * ratio c/w:     1.000 speedup
 ANC optimizer:
 * wall-time:     0 d,  0 h,  0 min,  2.243 sec
 *  cpu-time:     0 d,  0 h,  0 min,  2.240 sec
 * ratio c/w:     0.999 speedup

