72
 energy: -103.312273229735 gnorm: 0.083139738729 xtb: 6.6.1 (8d0f1dd)
N           -1.48907569626227        2.82095369214720        2.22205836236499
C           -1.57710588380594        2.20221372845107        1.15826715706753
C           -2.76420166117911        2.08442060269225        0.25351691251500
C           -3.32612192512963        0.66472959753365        0.32890030063978
C           -4.30759054946755        0.26588770694019       -0.58005042529941
C           -4.84059835943709       -1.00742395617297       -0.54828641033462
O           -5.79896411048740       -1.48027886116613       -1.39183704090274
C           -6.37596009589571       -0.59991750484025       -2.32170627573977
C           -4.38806665723738       -1.93034066513530        0.42522472058342
O           -4.96643858071062       -3.15887620905029        0.37750248484904
C           -4.63575847201030       -4.09267952288824        1.37762364736584
C           -3.42199160657307       -1.52649164178173        1.32651280478377
C           -2.89497976605914       -0.24371664873316        1.27678286750417
C           -2.24267791131310        2.31674591971439       -1.15052083670926
C           -1.30672150846921        1.13887362202526       -1.69919619878652
C           -0.01618612620722        1.08152788612508       -0.94999120873329
N            0.62808665538877       -0.06454822239142       -0.56415556764581
C            2.00426864089514       -0.04535858871456       -0.15890212466645
C            2.93653424393362       -0.56462455172348       -1.27715640647155
C            4.36314376429228       -0.44754844522292       -0.84068730446454
C            5.07484058777701        0.71475963760802       -1.05095302760838
C            6.38393091457944        0.82943197594863       -0.61305412530180
C            7.00153663828601       -0.21407648305141        0.05500565177321
O            8.27662520617592       -0.20959213499991        0.52433559653872
C            9.06839072760008        0.93391811801653        0.30298792756998
C            6.27653245718068       -1.40516723022306        0.28677014651290
O            6.95883005338900       -2.38027908402485        0.93935318984631
C            6.32819440931530       -3.61158188320508        1.17409769851371
C            4.97281850797561       -1.50479191482050       -0.15812821319843
C           -0.04903864357409       -1.33151691201221       -0.60305684248391
C           -3.89714352859692        3.08716946427424        0.61119519054253
C           -4.48509146365363        2.77685709710939        1.98260597647580
C           -3.43402858317195        4.54079577661149        0.57471760350414
H           -4.65943440120924        0.96623125994464       -1.32311426665843
H           -6.83793467948634        0.26242856433803       -1.83067341950454
H           -7.14550605327265       -1.17915469183609       -2.82961303152112
H           -5.64449357439033       -0.25059711526738       -3.05650758697375
H           -4.86256626031857       -3.71168468745529        2.37873346657446
H           -5.25290633156262       -4.96529182819770        1.17364579566233
H           -3.58180631548305       -4.37987396130291        1.33103100757997
H           -3.06453566157396       -2.20368348867679        2.08544054639973
H           -2.15601605734666        0.04503408988640        2.00758759995508
H           -3.05213575169571        2.48793515138848       -1.84471331590524
H           -1.61530957271279        3.20827797128381       -1.18977212980786
H           -1.82552174719930        0.16359792976190       -1.63231585756446
H           -1.03792269781662        1.36064761014703       -2.73451892775632
H           -0.70416156983557        1.65970462636889        0.65819601946089
H            0.64517318881398        1.96805708711743       -0.98939425504912
H            2.12262576757029       -0.67075209787612        0.73119652997728
H            2.29448002926928        0.97187914843677        0.09687770131430
H            2.76301710641022        0.02852574236073       -2.17046003849175
H            2.68625702900363       -1.60592396148865       -1.50005547021606
H            4.61542587079195        1.53857028188071       -1.57344920506245
H            6.91636134732238        1.74514829770930       -0.80850298892156
H            8.64568158273832        1.81622592901103        0.79640560137176
H            9.19500242102552        1.13814574074645       -0.76313176471228
H           10.03680199124891        0.70308263486235        0.74711926102176
H            7.06965325492809       -4.22919105543697        1.68119916440741
H            5.45109519642723       -3.49967148335657        1.82159616130595
H            6.03315200469638       -4.09525581199634        0.24008798882423
H            4.41114146762040       -2.41181979033624        0.01031410980868
H           -0.21144338772421       -1.67394937001240       -1.62888503755570
H           -1.01743935373424       -1.26908546630649       -0.09714125705941
H            0.55990762851159       -2.07249711492516       -0.08914444405810
H           -4.68408720985202        2.96020907536970       -0.14148738187940
H           -3.72910300241141        2.90982481757776        2.74508847818734
H           -4.85158472935220        1.75464166937545        2.02232749391101
H           -5.31492740211802        3.45269708452855        2.18165558000693
H           -2.63756066961815        4.70190377302416        1.28656894559623
H           -3.11096809510097        4.83545154817149       -0.41401871564996
H           -4.26306613604490        5.18742151280366        0.85416074449907
H           -0.60474236903011        2.84644750851064        2.70450197179835
72
 energy: -103.315576913440 gnorm: 0.031402990941 xtb: 6.6.1 (8d0f1dd)
N           -1.50050833079219        2.84262208241993        2.22947252203509
C           -1.57546876730582        2.18762075093680        1.16648247263370
C           -2.76160193179965        2.08013445648575        0.25405063414569
C           -3.33049438559622        0.66760209843400        0.33460570088084
C           -4.30887245522250        0.26574950041370       -0.57652702148112
C           -4.84183412757632       -1.00827167581312       -0.54543260070910
O           -5.80063732682625       -1.48125499349530       -1.39053983161634
C           -6.37462355353886       -0.59970852312046       -2.32130276011732
C           -4.38929464114029       -1.93093292544678        0.42582253859441
O           -4.96873974577214       -3.16176390541217        0.37909367909401
C           -4.63553102377731       -4.09392792218111        1.37747492301331
C           -3.42402024478965       -1.52738322128410        1.32826838874949
C           -2.90068477963731       -0.24065548764284        1.28233659328223
C           -2.21663921900344        2.30957409896767       -1.16195744073453
C           -1.29535854635677        1.15712547712539       -1.69245929517879
C           -0.00871243594194        1.09640349836018       -0.94128414014232
N            0.62564216825732       -0.06843593514568       -0.55603203524071
C            2.00150962603399       -0.05239961016222       -0.16295474785982
C            2.93882354800666       -0.56717237240344       -1.27918032391715
C            4.36547787358154       -0.45240782712215       -0.84495157033891
C            5.07804932477398        0.71234462803373       -1.05395169131917
C            6.38724457002620        0.83033595981774       -0.61223256678456
C            7.00337469725862       -0.21354630664446        0.05533983227856
O            8.28144621553799       -0.20914009640079        0.52534383093916
C            9.06950345187347        0.93432435939395        0.30460066144226
C            6.27881045793791       -1.40543808580696        0.28563844341981
O            6.96298952664739       -2.38119716404348        0.94260643595554
C            6.32787354727795       -3.61124730830531        1.17490455298625
C            4.97536601011114       -1.50579631069621       -0.16070814461997
C           -0.05009880021431       -1.33504315702338       -0.60163066722376
C           -3.89732810359654        3.08465674706305        0.60695504372229
C           -4.48986623699405        2.77644700498406        1.97975378138762
C           -3.43681407993229        4.54021746963402        0.57150443129275
H           -4.65721091315641        0.96460025040001       -1.32005734395453
H           -6.83669980274743        0.26298750015570       -1.82990473881438
H           -7.14458546296343       -1.17700940870250       -2.83117177643658
H           -5.64156994537017       -0.24981866561929       -3.05586083217620
H           -4.86276814276958       -3.71145837639595        2.37802781679891
H           -5.25247376042399       -4.96786545768557        1.17590030175959
H           -3.57939181998761       -4.37852834329524        1.32981022527541
H           -3.06505608518464       -2.20626069747809        2.08557108030972
H           -2.15701560681403        0.04646874775841        2.00913411721196
H           -3.04010038866046        2.45859393241770       -1.85780872165792
H           -1.61068203065263        3.21806094292967       -1.18349425898596
H           -1.82720044773824        0.20393046031588       -1.63387735601960
H           -1.08452426656699        1.37674645886011       -2.74589494324483
H           -0.70689823095245        1.65374231611466        0.68467651230951
H            0.65145752486940        1.95755589117667       -1.02022613903258
H            2.12955256605981       -0.67534063518749        0.72902988662841
H            2.29049639077849        0.96819025249279        0.09279611269890
H            2.76226004704889        0.03039937371133       -2.17301791618299
H            2.68721734480742       -1.60605892612036       -1.50123668331298
H            4.61764957603856        1.53815957859696       -1.57484970530799
H            6.92018033129833        1.74746757701884       -0.80473665069461
H            8.64566257754128        1.81671331778809        0.79622139738484
H            9.19484698348510        1.13814342591484       -0.76318692143338
H           10.03877285204035        0.70685357628273        0.74615203700651
H            7.06719121054329       -4.23022243230080        1.68184031575732
H            5.44970610956507       -3.49900211162999        1.82067859204514
H            6.03146122667464       -4.09597261354678        0.23940031747985
H            4.41244645637120       -2.41114481761417        0.00756506083680
H           -0.21397235209158       -1.67515265025692       -1.63038316395382
H           -1.01885023429913       -1.27034949741825       -0.09798186976672
H            0.55657039664397       -2.07855420470291       -0.08752712216767
H           -4.68628131799259        2.95977789254306       -0.14435520799952
H           -3.73059332448775        2.90975419586203        2.74221835500652
H           -4.85667415543690        1.75399997546330        2.02327899561525
H           -5.31877313206645        3.45123275801848        2.18417090888727
H           -2.63378444823138        4.69563055386419        1.28324285425233
H           -3.10462197258423        4.83255121072724       -0.41948348665207
H           -4.26641904297564        5.18790898687774        0.85088086726122
H           -0.61171245608644        2.84696585391805        2.71796075861912
72
 energy: -103.316176668400 gnorm: 0.019136471776 xtb: 6.6.1 (8d0f1dd)
N           -1.49052077534686        2.84115755334633        2.22074176049611
C           -1.56563618952716        2.18066963455724        1.15178818064864
C           -2.76379212103509        2.07921438158126        0.25345463537098
C           -3.32781721285163        0.66795209353092        0.32902700782967
C           -4.30710489431856        0.26563105897042       -0.58136402475942
C           -4.83948338231815       -1.00868733522083       -0.54897479966183
O           -5.80075709779596       -1.48206177360593       -1.39234416179488
C           -6.37688921501370       -0.60104293866352       -2.32200345095259
C           -4.38678513653905       -1.92992584251188        0.42193915502579
O           -4.96858873819236       -3.16152214117743        0.37800492102709
C           -4.63662457585181       -4.09222484177038        1.37642225864000
C           -3.42059732274136       -1.52759908387485        1.32362159883300
C           -2.89514886535268       -0.24127679083840        1.27454661467835
C           -2.21413838115531        2.29983974310859       -1.17524694355205
C           -1.29885781994636        1.14690545100535       -1.68617225534646
C           -0.01480583154255        1.10129850323359       -0.93221580767447
N            0.62310007918657       -0.06870502245434       -0.55132042397826
C            1.99699876175561       -0.04694220716473       -0.15996591583794
C            2.93515527723354       -0.56515274482537       -1.27432288035794
C            4.35979656616350       -0.45115291581891       -0.83851352481533
C            5.07285377640630        0.71393883153712       -1.05028135204682
C            6.38376825833739        0.83142579421016       -0.61269784306014
C            6.99881030674912       -0.21263571687393        0.05438599883468
O            8.27914681950566       -0.20973110973531        0.52352210412129
C            9.06717139214919        0.93199478255886        0.30465903930658
C            6.27465517909071       -1.40389757240559        0.28656309932626
O            6.96276890666969       -2.38044406458791        0.94281004603848
C            6.32887881286848       -3.61109702364578        1.17490687997675
C            4.97020268864599       -1.50360819901584       -0.15606355105622
C           -0.04678327109994       -1.33598812309381       -0.60292584956791
C           -3.89454998905272        3.08720389223252        0.61006751758820
C           -4.48568282792122        2.77697165114819        1.98352580076243
C           -3.43857286382022        4.54467220054850        0.57752595751220
H           -4.65801984626267        0.96510792663881       -1.32225554801928
H           -6.83892035686279        0.26175247660234       -1.83015433072292
H           -7.14733599013841       -1.17937816636915       -2.83006894157618
H           -5.64566562143956       -0.25051783670810       -3.05872098812135
H           -4.86389338743877       -3.71000605827105        2.37729139802139
H           -5.25447329729793       -4.96555138551365        1.17444687841719
H           -3.58045743661751       -4.37928962434860        1.33015654570372
H           -3.06369276433170       -2.20478024625363        2.08355539982789
H           -2.15363784079480        0.04612452852124        2.00348271349556
H           -3.05505602070100        2.47139227089890       -1.85276953422021
H           -1.61492975550918        3.21204063314715       -1.18470089955535
H           -1.81398903445724        0.18589874019622       -1.63815934550010
H           -1.06375423952226        1.35222666339139       -2.73956969269551
H           -0.70672118742000        1.66406991388490        0.66478726733303
H            0.62768739272298        1.96294630853488       -0.98938132968269
H            2.12622720593672       -0.66760144254487        0.73444056874182
H            2.28774948046753        0.97527957908416        0.09670084894030
H            2.76082736996542        0.03233355367398       -2.17063540722399
H            2.68374779640873       -1.60307275275119       -1.49620420990640
H            4.61252303041060        1.53979967145007       -1.57234236136873
H            6.91770004305515        1.74717164123752       -0.80911826700684
H            8.64514005466158        1.81524434212639        0.79605285079719
H            9.19424962978712        1.13722316108817       -0.76371878941486
H           10.03561903638873        0.70283894913700        0.74594065702764
H            7.07013545065134       -4.22881427451962        1.67977349526428
H            5.45140041017414       -3.50077159935819        1.82168865274670
H            6.03177789470164       -4.09642725552526        0.23871690108280
H            4.40756361922261       -2.40895808989940        0.01168702417805
H           -0.20904480629342       -1.67585894432851       -1.63296998596105
H           -1.01604945687064       -1.27281745244355       -0.10045920056503
H            0.56272825815887       -2.07584203409599       -0.08774099207377
H           -4.68562964881283        2.96228413831060       -0.13893700557809
H           -3.72585609512191        2.91073580356673        2.74716127037358
H           -4.85094088218970        1.75382421902895        2.02562713201764
H           -5.31431200060271        3.45164869653578        2.18664843485791
H           -2.63279516683559        4.70201678629417        1.28850359448872
H           -3.10726277211477        4.83907440278979       -0.41500293076826
H           -4.26868445742443        5.18971595393393        0.85877407905271
H           -0.58753038595625        2.83688817374760        2.69098555995777
72
 energy: -103.316574168409 gnorm: 0.010944284755 xtb: 6.6.1 (8d0f1dd)
N           -1.50996827147539        2.83757941303386        2.23399715263909
C           -1.57089696973562        2.18730173434795        1.16018756969844
C           -2.76647111830276        2.07997339612265        0.26051805863992
C           -3.32752481401173        0.66728722918737        0.33201492974913
C           -4.30745592302426        0.26596395514723       -0.57839891558136
C           -4.84031040997344       -1.00786365258559       -0.54556770767812
O           -5.80017509863133       -1.48089128719441       -1.39057731612652
C           -6.37431034055605       -0.59962673226104       -2.32093432196582
C           -4.38862452873381       -1.92895814544033        0.42598400647438
O           -4.96842731749507       -3.16143592159131        0.38011074108046
C           -4.63558066912271       -4.09281575418550        1.37743068840828
C           -3.42357044769664       -1.52725852728060        1.32887622616285
C           -2.89709885727977       -0.24196101494655        1.27916029815891
C           -2.21692015389797        2.30511692215698       -1.16814855167704
C           -1.30328482097938        1.14960386286389       -1.68710869622488
C           -0.00981903626910        1.10027462488518       -0.94438387665368
N            0.62634475191678       -0.06901193567530       -0.56221404856071
C            2.00018987379937       -0.04997715112243       -0.16673246352171
C            2.93963017775572       -0.56859647930352       -1.27994772677171
C            4.36390408161496       -0.45284992800301       -0.84238074030134
C            5.07656364000397        0.71244076167730       -1.05266428251539
C            6.38648911758918        0.83001229178294       -0.61344354916137
C            7.00132561238131       -0.21367778839945        0.05415173041705
O            8.28103764170407       -0.20902229883340        0.52478932754225
C            9.06835411549460        0.93314073836154        0.30544523338871
C            6.27770198778785       -1.40516094007372        0.28464711237384
O            6.96385323457853       -2.38171168466062        0.94232793284414
C            6.32838056979377       -3.61114392015998        1.17535382739789
C            4.97443156753268       -1.50579006802853       -0.16046892788072
C           -0.05050304581970       -1.33216858831770       -0.60404477902968
C           -3.89772538202861        3.08619193701179        0.60851663152763
C           -4.49030753279301        2.77671406259786        1.98048607269995
C           -3.43718536240330        4.54105338640484        0.57240462290581
H           -4.65811538648842        0.96558030815631       -1.31996891810222
H           -6.83672891174583        0.26352157805925       -1.83028172911873
H           -7.14379653206630       -1.17780618795401       -2.83048754018057
H           -5.64142843084381       -0.24956450899826       -3.05583159241476
H           -4.86233666789107       -3.71306143010163        2.37943916863409
H           -5.25200492948105       -4.96671005649958        1.17415530591775
H           -3.57965710265489       -4.37966060406781        1.33105694492608
H           -3.06643523295341       -2.20446955439499        2.08840773069851
H           -2.15861410557852        0.04548393849637        2.01118692566220
H           -3.05529950893407        2.48650598244770       -1.84384186939222
H           -1.61430927889872        3.21370256662648       -1.18031427124904
H           -1.81906144222079        0.18342184069676       -1.63584369387309
H           -1.05110900413344        1.35825065797786       -2.73748005356168
H           -0.71093208682676        1.66564679485068        0.67760709089408
H            0.64205625413203        1.95958360987610       -1.00271908667433
H            2.12544840699252       -0.67261332150312        0.72721415801339
H            2.29527444099728        0.97001347948994        0.09278572585674
H            2.76621495837681        0.02858281473697       -2.17581897977296
H            2.68889531976539       -1.60672292959016       -1.50368113577082
H            4.61736911706037        1.53797880731283       -1.57559870034614
H            6.91910485485349        1.74649302150185       -0.80755282337883
H            8.64599370688169        1.81678153935787        0.79620448578544
H            9.19610291684300        1.13867823801050       -0.76286287289420
H           10.03714152745772        0.70513929509497        0.74730850715552
H            7.06802305215872       -4.22953992586748        1.68204088018461
H            5.45012413975588       -3.49859457509672        1.82066572493359
H            6.03237625623063       -4.09644319352332        0.23928447254334
H            4.41297115824639       -2.41235260677071        0.00628807887678
H           -0.21632989067266       -1.67656598403408       -1.63120235860864
H           -1.01816975049474       -1.26401703734766       -0.09841785412356
H            0.55746963379598       -2.07198148447972       -0.08778604616673
H           -4.68499608694144        2.95853594346952       -0.14402419413410
H           -3.73146565671396        2.91014117875901        2.74450801800659
H           -4.85582777601711        1.75384125327073        2.02124627256418
H           -5.31844542051613        3.45288346306732        2.17968195390528
H           -2.63413515354123        4.69971754035914        1.28469490015788
H           -3.10591189652630        4.83275309604592       -0.41992942950712
H           -4.26534539179104        5.18823409003745        0.84989585999561
H           -0.60956183630337        2.83903136018350        2.70719599001912
72
 energy: -103.316693679148 gnorm: 0.009467970615 xtb: 6.6.1 (8d0f1dd)
N           -1.50035380186309        2.84129662480087        2.22729739308442
C           -1.56576685299604        2.18951906909247        1.15778873856662
C           -2.76395602930578        2.08056397372186        0.26028569934265
C           -3.32831254639574        0.66806257414114        0.33197524076714
C           -4.30865027433190        0.26670755988902       -0.57848135350048
C           -4.84083288432217       -1.00754543820706       -0.54679373970966
O           -5.80044281539567       -1.48087276778676       -1.39183937291262
C           -6.37618884716944       -0.60014836349792       -2.32156514492752
C           -4.38806959634498       -1.92929783800472        0.42381216107028
O           -4.96797689624906       -3.16154599054978        0.37783642966447
C           -4.63625581052359       -4.09211138774950        1.37632555799562
C           -3.42232426145086       -1.52781103446291        1.32613487751762
C           -2.89743518332144       -0.24198428342110        1.27813522542685
C           -2.21828140488819        2.30564379215335       -1.16803934852649
C           -1.30547887028657        1.15187520597017       -1.69164051588833
C           -0.00923531404781        1.09635018184707       -0.94988363812112
N            0.62528579429845       -0.06977490890202       -0.55948660056115
C            1.99863436146535       -0.04870305861739       -0.15981373753682
C            2.93682590297765       -0.56551817523960       -1.27458633924485
C            4.36253661491257       -0.45037252938932       -0.84020312563422
C            5.07566616707002        0.71406379256943       -1.05105729270315
C            6.38552079289335        0.83084954614986       -0.61186457513398
C            7.00053904637871       -0.21322861543629        0.05536982493460
O            8.28031020499924       -0.20891883883319        0.52484566582751
C            9.06790096074937        0.93299375335388        0.30415318324435
C            6.27641991782129       -1.40413651826934        0.28627845943633
O            6.96214062809130       -2.38128753544762        0.94237828140822
C            6.32768318077845       -3.61121281010772        1.17489650725024
C            4.97280765105511       -1.50396094535082       -0.15817656618727
C           -0.04885566521511       -1.33486402200672       -0.60188546970968
C           -3.89527541650148        3.08557797730833        0.60967737194051
C           -4.48651164222001        2.77605832705674        1.98237630144694
C           -3.43612420708421        4.54051241901514        0.57495636815256
H           -4.65825357074652        0.96574772099262       -1.32146051908969
H           -6.83838557180776        0.26259799472059       -1.83030997908731
H           -7.14609746712056       -1.17848665889761       -2.83030686340826
H           -5.64431434710180       -0.24996224467668       -3.05710644603813
H           -4.86283284063478       -3.71048683376831        2.37764907276427
H           -5.25317570292136       -4.96611463395344        1.17480423506177
H           -3.58059508938740       -4.37928385707474        1.33034388494127
H           -3.06258044992579       -2.20620279996703        2.08310903205658
H           -2.15526941459125        0.04431791882388        2.00690310009283
H           -3.04903519046162        2.46942815191028       -1.85364374672655
H           -1.61483096484071        3.21360547218150       -1.18973036818441
H           -1.82872859645814        0.18896973568621       -1.63396956446079
H           -1.06622826173750        1.36822379648719       -2.74393691770172
H           -0.70852227027681        1.65595584087763        0.67819403108880
H            0.64758717872439        1.95704690690346       -1.00938926765284
H            2.12533421982921       -0.67169706427257        0.73383103465245
H            2.29087482872624        0.97155809444149        0.09852958531720
H            2.76029780512165        0.03150104942273       -2.16923664489500
H            2.68510960381094       -1.60397351638068       -1.49762491916209
H            4.61612494017243        1.53989446518188       -1.57269370371171
H            6.91808333388844        1.74730045381883       -0.80545844077012
H            8.64594129001663        1.81661982845889        0.79556298004004
H            9.19409753755278        1.13827908438392       -0.76417830650460
H           10.03752916006548        0.70519494134820        0.74502490179210
H            7.06808156617889       -4.22991105010016        1.68046070182840
H            5.45007990927225       -3.49977744363459        1.82124454220978
H            6.03130386902603       -4.09546962944458        0.23890031991844
H            4.41036891774279       -2.40969495536281        0.01098289158627
H           -0.21046285367002       -1.67694372982424       -1.62992723359677
H           -1.01824122984545       -1.27298927868824       -0.09849351853807
H            0.55945835698089       -2.07592909971872       -0.08727509584928
H           -4.68375733523582        2.95937329781543       -0.14193280318780
H           -3.72661525374264        2.90907783701280        2.74443774039535
H           -4.85201834244402        1.75342925605111        2.02408452125144
H           -5.31457231585574        3.45147020969369        2.18507764317770
H           -2.63342083933081        4.69805097604682        1.28649692710489
H           -3.10720066763834        4.83526034596852       -0.41634388873304
H           -4.26441409105860        5.18645368000699        0.85529523756606
H           -0.60006821881715        2.84391749691443        2.69949068159254
72
 energy: -103.316813405686 gnorm: 0.004702705115 xtb: 6.6.1 (8d0f1dd)
N           -1.50180403759736        2.83854832428211        2.22862893936532
C           -1.56756387758157        2.18491462204198        1.15898048773484
C           -2.76522836568127        2.08017319538607        0.25938854462850
C           -3.32900027157967        0.66797709327425        0.33137966722481
C           -4.30806924720444        0.26547277606937       -0.57956931493781
C           -4.84020274803672       -1.00878370285963       -0.54713040097093
O           -5.80019836090865       -1.48199368909939       -1.39186636714700
C           -6.37520454847378       -0.60070934915599       -2.32157186432553
C           -4.38803582709804       -1.92973492374127        0.42435707556325
O           -4.96829130191109       -3.16209364075375        0.37907685506903
C           -4.63614891406239       -4.09276433626117        1.37707538517412
C           -3.42286048080423       -1.52730890594557        1.32703158636702
C           -2.89821161706621       -0.24112678193400        1.27828543798465
C           -2.21579138584455        2.30460112704523       -1.16833963491343
C           -1.30180324833373        1.15188124914503       -1.68788219838844
C           -0.01013793945605        1.09878353403090       -0.94080679717860
N            0.62554658757372       -0.06875065844231       -0.55527256979583
C            2.00032145898340       -0.04877049813438       -0.16247429277716
C            2.93746533647968       -0.56658728293085       -1.27818775708617