      -----------------------------------------------------------      
     |                   =====================                   |     
     |                           x T B                           |     
     |                   =====================                   |     
     |                         S. Grimme                         |     
     |          Mulliken Center for Theoretical Chemistry        |     
     |                    University of Bonn                     |     
      -----------------------------------------------------------      

   * xtb version 6.6.1 (8d0f1dd) compiled by 'conda@1efc2f54142f' on 2023-08-01

   xtb is free software: you can redistribute it and/or modify it under
   the terms of the GNU Lesser General Public License as published by
   the Free Software Foundation, either version 3 of the License, or
   (at your option) any later version.
   
   xtb is distributed in the hope that it will be useful,
   but WITHOUT ANY WARRANTY; without even the implied warranty of
   MERCHANTABILITY or FITNESS FOR A PARTICULAR PURPOSE.  See the
   GNU Lesser General Public License for more details.
   
   Cite this work as:
   * C. Bannwarth, E. Caldeweyher, S. Ehlert, A. Hansen, P. Pracht,
     J. Seibert, S. Spicher, S. Grimme, WIREs Comput. Mol. Sci., 2020, 11,
     e01493. DOI: 10.1002/wcms.1493
   
   for GFN2-xTB:
   * C. Bannwarth, S. Ehlert and S. Grimme., J. Chem. Theory Comput., 2019,
     15, 1652-1671. DOI: 10.1021/acs.jctc.8b01176
   for GFN1-xTB:
   * S. Grimme, C. Bannwarth, P. Shushkov, J. Chem. Theory Comput., 2017,
     13, 1989-2009. DOI: 10.1021/acs.jctc.7b00118
   for GFN0-xTB:
   * P. Pracht, E. Caldeweyher, S. Ehlert, S. Grimme, ChemRxiv, 2019, preprint.
     DOI: 10.26434/chemrxiv.8326202.v1
   for GFN-FF:
   * S. Spicher and S. Grimme, Angew. Chem. Int. Ed., 2020, 59, 15665-15673.
     DOI: 10.1002/anie.202004239
   
   for ALPB and GBSA implicit solvation:
   * S. Ehlert, M. Stahn, S. Spicher, S. Grimme, J. Chem. Theory Comput.,
     2021, 17, 4250-4261. DOI: 10.1021/acs.jctc.1c00471
   
   for DFT-D4:
   * E. Caldeweyher, C. Bannwarth and S. Grimme, J. Chem. Phys., 2017,
     147, 034112. DOI: 10.1063/1.4993215
   * E. Caldeweyher, S. Ehlert, A. Hansen, H. Neugebauer, S. Spicher,
     C. Bannwarth and S. Grimme, J. Chem. Phys., 2019, 150, 154122.
     DOI: 10.1063/1.5090222
   * E. Caldeweyher, J.-M. Mewes, S. Ehlert and S. Grimme, Phys. Chem. Chem. Phys.
     2020, 22, 8499-8512. DOI: 10.1039/D0CP00502A
   
   for sTDA-xTB:
   * S. Grimme and C. Bannwarth, J. Chem. Phys., 2016, 145, 054103.
     DOI: 10.1063/1.4959605
   
   in the mass-spec context:
   * V. Asgeirsson, C. Bauer and S. Grimme, Chem. Sci., 2017, 8, 4879.
     DOI: 10.1039/c7sc00601b
   * J. Koopman and S. Grimme, ACS Omega 2019, 4, 12, 15120-15133.
     DOI: 10.1021/acsomega.9b02011
   
   for metadynamics refer to:
   * S. Grimme, J. Chem. Theory Comput., 2019, 155, 2847-2862
     DOI: 10.1021/acs.jctc.9b00143
   
   for SPH calculations refer to:
   * S. Spicher and S. Grimme, J. Chem. Theory Comput., 2021, 17, 1701-1714
     DOI: 10.1021/acs.jctc.0c01306
   
   with help from (in alphabetical order)
   P. Atkinson, C. Bannwarth, F. Bohle, G. Brandenburg, E. Caldeweyher
   M. Checinski, S. Dohm, S. Ehlert, S. Ehrlich, I. Gerasimov, C. Hölzer
   A. Katbashev, J. Koopman, C. Lavigne, S. Lehtola, F. März, M. Müller,
   F. Musil, H. Neugebauer, J. Pisarek, C. Plett, P. Pracht, F. Pultar,
   J. Seibert, P. Shushkov, S. Spicher, M. Stahn, M. Steiner, T. Strunk,
   J. Stückrath, T. Rose, and J. Unsleber
   
 * started run on 2024/06/05 at 19:57:51.059     

           -------------------------------------------------
          |                Calculation Setup                |
           -------------------------------------------------

          program call               : xtb struc.xyz --opt loose --input .xc1 --gfn2
          hostname                   : n-62-12-66
          coordinate file            : struc.xyz
          omp threads                :                     1

   ID    Z sym.   atoms
    1    6 C      1, 3, 5-7, 10, 11, 14
    2    7 N      2, 4, 9, 13
    3    8 O      8, 12
    4    1 H      15-25
constraining bond 2 6 to    3.9200000 Å, actual value:    1.3708515 Å

           -------------------------------------------------
          |                 G F N 2 - x T B                 |
           -------------------------------------------------

        Reference                      10.1021/acs.jctc.8b01176
      * Hamiltonian:
        H0-scaling (s, p, d)           1.850000    2.230000    2.230000
        zeta-weighting                 0.500000
      * Dispersion:
        s8                             2.700000
        a1                             0.520000
        a2                             5.000000
        s9                             5.000000
      * Repulsion:
        kExp                           1.500000    1.000000
        rExp                           1.000000
      * Coulomb:
        alpha                          2.000000
        third order                    shell-resolved
        anisotropic                    true
        a3                             3.000000
        a5                             4.000000
        cn-shift                       1.200000
        cn-exp                         4.000000
        max-rad                        5.000000


          ...................................................
          :                      SETUP                      :
          :.................................................:
          :  # basis functions                  67          :
          :  # atomic orbitals                  67          :
          :  # shells                           39          :
          :  # electrons                        74          :
          :  max. iterations                   250          :
          :  Hamiltonian                  GFN2-xTB          :
          :  restarted?                      false          :
          :  GBSA solvation                  false          :
          :  PC potential                    false          :
          :  electronic temp.         5000.0000000     K    :
          :  accuracy                    1.0000000          :
          :  -> integral cutoff          0.2500000E+02      :
          :  -> integral neglect         0.1000000E-07      :
          :  -> SCF convergence          0.1000000E-05 Eh   :
          :  -> wf. convergence          0.1000000E-03 e    :
          :  Broyden damping             0.4000000          :
          ...................................................

 iter      E             dE          RMSdq      gap      omega  full diag
   1    -42.5894031 -0.425894E+02  0.445E+00    3.52       0.0  T
   2    -42.7683054 -0.178902E+00  0.251E+00    3.36       1.0  T
   3    -42.7759211 -0.761567E-02  0.147E+00    3.35       1.0  T
   4    -42.7728404  0.308066E-02  0.553E-01    3.33       1.0  T
   5    -42.7789548 -0.611444E-02  0.112E-01    3.35       1.0  T
   6    -42.7790473 -0.924914E-04  0.614E-02    3.33       1.0  T
   7    -42.7790721 -0.247928E-04  0.258E-02    3.34       1.0  T
   8    -42.7790772 -0.508996E-05  0.938E-03    3.34       2.1  T
   9    -42.7790779 -0.669422E-06  0.448E-03    3.34       4.5  T
  10    -42.7790780 -0.821510E-07  0.115E-03    3.34      17.4  T
  11    -42.7790780 -0.322663E-08  0.553E-04    3.34      36.2  T
  12    -42.7790780 -0.287051E-08  0.180E-04    3.34     111.1  T

   *** convergence criteria satisfied after 12 iterations ***

         #    Occupation            Energy/Eh            Energy/eV
      -------------------------------------------------------------
         1        2.0000           -0.9185990             -24.9964
       ...           ...                  ...                  ...
        31        1.9996           -0.6230278             -16.9534
        32        1.9995           -0.6194601             -16.8564
        33        1.9979           -0.5974976             -16.2587
        34        1.9932           -0.5789629             -15.7544
        35        1.9817           -0.5631863             -15.3251
        36        1.9779           -0.5602245             -15.2445
        37        1.9748           -0.5581234             -15.1873 (HOMO)
        38        0.0652           -0.4353579             -11.8467 (LUMO)
        39        0.0099           -0.4050467             -11.0219
        40        0.0013           -0.3732218             -10.1559
        41        0.0000           -0.2886859              -7.8555
        42                         -0.2065804              -5.6213
       ...                                ...                  ...
        67                          0.5625656              15.3082
      -------------------------------------------------------------
                  HL-Gap            0.1227656 Eh            3.3406 eV
             Fermi-level           -0.4890455 Eh          -13.3076 eV

 SCC (total)                   0 d,  0 h,  0 min,  0.059 sec
 SCC setup                      ...        0 min,  0.001 sec (  1.091%)
 Dispersion                     ...        0 min,  0.001 sec (  1.171%)
 classical contributions        ...        0 min,  0.000 sec (  0.324%)
 integral evaluation            ...        0 min,  0.013 sec ( 21.338%)
 iterations                     ...        0 min,  0.027 sec ( 45.226%)
 molecular gradient             ...        0 min,  0.018 sec ( 30.543%)
 printout                       ...        0 min,  0.000 sec (  0.285%)

         :::::::::::::::::::::::::::::::::::::::::::::::::::::
         ::                     SUMMARY                     ::
         :::::::::::::::::::::::::::::::::::::::::::::::::::::
         :: total energy             -30.645189192460 Eh    ::
         :: gradient norm              6.814708002839 Eh/a0 ::
         :: HOMO-LUMO gap              3.340621582928 eV    ::
         ::.................................................::
         :: SCC energy               -42.779077977399 Eh    ::
         :: -> isotropic ES            0.141123876439 Eh    ::
         :: -> anisotropic ES         -0.005230418907 Eh    ::
         :: -> anisotropic XC          0.011966818540 Eh    ::
         :: -> dispersion             -0.022657731803 Eh    ::
         :: repulsion energy           0.531105277918 Eh    ::
         :: add. restraining          11.602669348012 Eh    ::
         :: total charge               1.000000000002 e     ::
         :::::::::::::::::::::::::::::::::::::::::::::::::::::

      ----------------------------------------------------------- 
     |                   =====================                   |
     |                        A N C O P T                        |
     |                   =====================                   |
     |               Approximate Normal Coordinate               |
     |                Rational Function Optimizer                |
      ----------------------------------------------------------- 

          ...................................................
          :                      SETUP                      :
          :.................................................:
          :   optimization level             loose          :
          :   max. optcycles                   200          :
          :   ANC micro-cycles                  20          :
          :   degrees of freedom                69          :
          :.................................................:
          :   RF solver                   davidson          :
          :   write xtbopt.log                true          :
          :   linear?                        false          :
          :   energy convergence         0.5000000E-04 Eh   :
          :   grad. convergence          0.4000000E-02 Eh/α :
          :   maxmium RF displ.          1.0000000          :
          :   Hlow (freq-cutoff)         0.1000000E-01      :
          :   Hmax (freq-cutoff)         5.0000000          :
          :   S6 in model hess.         20.0000000          :
          ...................................................

generating ANC from model Hessian ...
Using Lindh-Hessian (1995)
 Shifting diagonal of input Hessian by    3.3831158461411817     
 Lowest  eigenvalues of input Hessian
    0.010000    1.050870    0.000000    0.000000    0.000000    0.000000
    0.000000    0.000000    3.385856    3.388701    3.390163    3.392982
    3.393151    3.395135    3.395715    3.397168    3.403029    3.408432
 Highest eigenvalues
    5.361452    5.583371    5.656688    5.753009    5.911898    7.315464


........................................................................
.............................. CYCLE    1 ..............................
........................................................................

 iter      E             dE          RMSdq      gap      omega  full diag
   1    -42.7790780 -0.427791E+02  0.626E-05    3.34       0.0  T
   2    -42.7790780 -0.124416E-10  0.329E-05    3.34     607.4  T
   3    -42.7790780  0.127898E-12  0.193E-05    3.34    1034.2  T
     SCC iter.                  ...        0 min,  0.005 sec
     gradient                   ...        0 min,  0.014 sec
 * total energy  :   -30.6451892 Eh     change       -0.6650680E-10 Eh
   gradient norm :     6.8147077 Eh/α   predicted     0.0000000E+00 (-100.00%)
   displ. norm   :     0.6990314 α      lambda       -0.4758110E+01
   maximum displ.:     0.6864057 α      in ANC's #62, #60, #50, ...

........................................................................
.............................. CYCLE    2 ..............................
........................................................................

 iter      E             dE          RMSdq      gap      omega  full diag
   1    -42.7222810 -0.427223E+02  0.139E+00    3.14       0.0  T
   2    -42.7265436 -0.426260E-02  0.741E-01    3.04       1.0  T
   3    -42.7266385 -0.949336E-04  0.456E-01    3.20       1.0  T
   4    -42.7284277 -0.178921E-02  0.638E-02    3.08       1.0  T
   5    -42.7284955 -0.678233E-04  0.281E-02    3.11       1.0  T
   6    -42.7284986 -0.307186E-05  0.164E-02    3.10       1.2  T
   7    -42.7285009 -0.229018E-05  0.706E-03    3.11       2.8  T
   8    -42.7285017 -0.808135E-06  0.190E-03    3.11      10.5  T
   9    -42.7285017 -0.920999E-08  0.660E-04    3.11      30.3  T
  10    -42.7285017 -0.295933E-08  0.292E-04    3.11      68.5  T
     SCC iter.                  ...        0 min,  0.012 sec
     gradient                   ...        0 min,  0.012 sec
 * total energy  :   -34.8021801 Eh     change       -0.4156991E+01 Eh
   gradient norm :     5.1656439 Eh/α   predicted    -0.3545484E+01 ( -14.71%)
   displ. norm   :     0.7986719 α      lambda       -0.4122411E+01
   maximum displ.:     0.7787538 α      in ANC's #62, #60, #50, ...

........................................................................
.............................. CYCLE    3 ..............................
........................................................................

 iter      E             dE          RMSdq      gap      omega  full diag
   1    -42.5922148 -0.425922E+02  0.155E+00    1.93       0.0  T
   2    -42.5215816  0.706332E-01  0.177E+00    0.99       1.0  T
   3    -42.6092061 -0.876245E-01  0.970E-01    1.80       1.0  T
   4    -42.6231266 -0.139205E-01  0.273E-01    1.50       1.0  T
   5    -42.6253280 -0.220141E-02  0.593E-02    1.41       1.0  T
   6    -42.6253710 -0.429923E-04  0.279E-02    1.42       1.0  T
   7    -42.6253795 -0.848533E-05  0.143E-02    1.42       1.4  T
   8    -42.6253819 -0.245784E-05  0.418E-03    1.42       4.8  T
   9    -42.6253823 -0.371299E-06  0.172E-03    1.42      11.6  T
  10    -42.6253823  0.894419E-08  0.110E-03    1.42      18.2  T
  11    -42.6253823 -0.243945E-07  0.393E-04    1.42      50.9  T
  12    -42.6253823 -0.294966E-08  0.623E-05    1.42     321.1  T
     SCC iter.                  ...        0 min,  0.012 sec
     gradient                   ...        0 min,  0.010 sec
 * total energy  :   -38.2879773 Eh     change       -0.3485797E+01 Eh
   gradient norm :     3.5967711 Eh/α   predicted    -0.3377585E+01 (  -3.10%)
   displ. norm   :     0.7695078 α      lambda       -0.2765766E+01
   maximum displ.:     0.7370368 α      in ANC's #62, #60, #50, ...

........................................................................
.............................. CYCLE    4 ..............................
........................................................................

 iter      E             dE          RMSdq      gap      omega  full diag
   1    -42.4682509 -0.424683E+02  0.131E+00    2.20       0.0  T
   2    -42.4695325 -0.128162E-02  0.118E+00    1.13       1.0  T
   3    -42.5045199 -0.349874E-01  0.542E-01    1.75       1.0  T
   4    -42.5052564 -0.736437E-03  0.382E-01    1.38       1.0  T
   5    -42.5080724 -0.281598E-02  0.111E-01    1.49       1.0  T
   6    -42.5083761 -0.303712E-03  0.395E-02    1.50       1.0  T
   7    -42.5084064 -0.303733E-04  0.129E-02    1.52       1.6  T
   8    -42.5084073 -0.879821E-06  0.376E-03    1.52       5.3  T
   9    -42.5084076 -0.266545E-06  0.158E-03    1.52      12.6  T
  10    -42.5084076 -0.387536E-07  0.725E-04    1.52      27.6  T
  11    -42.5084076 -0.260224E-08  0.291E-04    1.52      68.7  T
     SCC iter.                  ...        0 min,  0.009 sec
     gradient                   ...        0 min,  0.008 sec
 * total energy  :   -40.5085230 Eh     change       -0.2220546E+01 Eh
   gradient norm :     2.1631414 Eh/α   predicted    -0.2201746E+01 (  -0.85%)
   displ. norm   :     0.6629959 α      lambda       -0.1432956E+01
   maximum displ.:     0.6251264 α      in ANC's #62, #60, #50, ...

........................................................................
.............................. CYCLE    5 ..............................
........................................................................

 iter      E             dE          RMSdq      gap      omega  full diag
   1    -42.3475175 -0.423475E+02  0.135E+00    2.29       0.0  T
   2    -42.3587317 -0.112142E-01  0.820E-01    1.64       1.0  T
   3    -42.3620641 -0.333243E-02  0.485E-01    1.98       1.0  T
   4    -42.3646606 -0.259648E-02  0.230E-01    1.75       1.0  T
   5    -42.3653962 -0.735640E-03  0.711E-02    1.83       1.0  T
   6    -42.3655311 -0.134874E-03  0.277E-02    1.80       1.0  T
   7    -42.3655406 -0.946871E-05  0.110E-02    1.81       1.8  T
   8    -42.3655413 -0.741704E-06  0.290E-03    1.81       6.9  T
   9    -42.3655414 -0.477113E-07  0.135E-03    1.81      14.8  T
  10    -42.3655414 -0.213206E-07  0.643E-04    1.81      31.1  T
  11    -42.3655414 -0.382504E-08  0.210E-04    1.81      95.3  T
     SCC iter.                  ...        0 min,  0.009 sec
     gradient                   ...        0 min,  0.008 sec
 * total energy  :   -41.4940691 Eh     change       -0.9855461E+00 Eh
   gradient norm :     0.8141757 Eh/α   predicted    -0.1031417E+01 (   4.65%)
   displ. norm   :     0.3599908 α      lambda       -0.2901942E+00
   maximum displ.:     0.3138177 α      in ANC's #62, #2, #38, ...

........................................................................
.............................. CYCLE    6 ..............................
........................................................................

 iter      E             dE          RMSdq      gap      omega  full diag
   1    -42.2848445 -0.422848E+02  0.683E-01    2.14       0.0  T
   2    -42.2864545 -0.161001E-02  0.480E-01    1.87       1.0  T
   3    -42.2893173 -0.286280E-02  0.262E-01    2.05       1.0  T
   4    -42.2900309 -0.713586E-03  0.105E-01    1.97       1.0  T
   5    -42.2901426 -0.111696E-03  0.344E-02    2.00       1.0  T
   6    -42.2901728 -0.302130E-04  0.157E-02    1.98       1.3  T
   7    -42.2901756 -0.281268E-05  0.580E-03    1.99       3.4  T
   8    -42.2901760 -0.396385E-06  0.193E-03    1.99      10.4  T
   9    -42.2901760 -0.329860E-07  0.995E-04    1.99      20.1  T
  10    -42.2901760 -0.106514E-07  0.380E-04    1.99      52.6  T
     SCC iter.                  ...        0 min,  0.008 sec
     gradient                   ...        0 min,  0.008 sec
 * total energy  :   -41.6637975 Eh     change       -0.1697285E+00 Eh
   gradient norm :     0.3608279 Eh/α   predicted    -0.1639121E+00 (  -3.43%)
   displ. norm   :     0.1504311 α      lambda       -0.4648797E-01
   maximum displ.:     0.0616164 α      in ANC's #62, #2, #18, ...

........................................................................
.............................. CYCLE    7 ..............................
........................................................................

 iter      E             dE          RMSdq      gap      omega  full diag
   1    -42.2982590 -0.422983E+02  0.241E-01    2.06       0.0  T
   2    -42.2983442 -0.851381E-04  0.178E-01    2.02       1.0  T
   3    -42.2986982 -0.354083E-03  0.100E-01    2.05       1.0  T
   4    -42.2987734 -0.751601E-04  0.365E-02    2.02       1.0  T
   5    -42.2988000 -0.265797E-04  0.122E-02    2.04       1.6  T
   6    -42.2988023 -0.231822E-05  0.605E-03    2.03       3.3  T
   7    -42.2988028 -0.474709E-06  0.270E-03    2.03       7.4  T
   8    -42.2988029 -0.114571E-06  0.995E-04    2.03      20.1  T
   9    -42.2988029 -0.772367E-08  0.497E-04    2.03      40.3  T
     SCC iter.                  ...        0 min,  0.008 sec
     gradient                   ...        0 min,  0.008 sec
 * total energy  :   -41.7030559 Eh     change       -0.3925834E-01 Eh
   gradient norm :     0.3333599 Eh/α   predicted    -0.2377014E-01 ( -39.45%)
   displ. norm   :     0.3969130 α      lambda       -0.1084588E+00
   maximum displ.:     0.1451366 α      in ANC's #18, #38, #2, ...

........................................................................
.............................. CYCLE    8 ..............................
........................................................................

 iter      E             dE          RMSdq      gap      omega  full diag
   1    -42.3457013 -0.423457E+02  0.657E-01    2.11       0.0  T
   2    -42.3472584 -0.155716E-02  0.466E-01    2.13       1.0  T
   3    -42.3496805 -0.242201E-02  0.258E-01    2.16       1.0  T
   4    -42.3500165 -0.335997E-03  0.900E-02    2.10       1.0  T
   5    -42.3502003 -0.183811E-03  0.364E-02    2.15       1.0  T
   6    -42.3502304 -0.301269E-04  0.144E-02    2.13       1.4  T
   7    -42.3502317 -0.133987E-05  0.645E-03    2.14       3.1  T
   8    -42.3502323 -0.567628E-06  0.240E-03    2.14       8.3  T
   9    -42.3502323 -0.469104E-07  0.122E-03    2.14      16.4  T
  10    -42.3502324 -0.975876E-08  0.367E-04    2.14      54.5  T
  11    -42.3502324 -0.609681E-09  0.162E-04    2.14     123.5  T
     SCC iter.                  ...        0 min,  0.009 sec
     gradient                   ...        0 min,  0.008 sec
 * total energy  :   -41.7824537 Eh     change       -0.7939786E-01 Eh
   gradient norm :     0.3121542 Eh/α   predicted    -0.6277301E-01 ( -20.94%)
   displ. norm   :     0.3805325 α      lambda       -0.7234313E-01
   maximum displ.:     0.1512521 α      in ANC's #18, #38, #33, ...

........................................................................
.............................. CYCLE    9 ..............................
........................................................................

 iter      E             dE          RMSdq      gap      omega  full diag
   1    -42.3981281 -0.423981E+02  0.592E-01    2.08       0.0  T
   2    -42.4003206 -0.219241E-02  0.394E-01    2.19       1.0  T
   3    -42.4017062 -0.138570E-02  0.209E-01    2.12       1.0  T
   4    -42.4019161 -0.209855E-03  0.658E-02    2.15       1.0  T
   5    -42.4019865 -0.704000E-04  0.196E-02    2.14       1.0  T
   6    -42.4019901 -0.357966E-05  0.103E-02    2.14       1.9  T
   7    -42.4019912 -0.108573E-05  0.411E-03    2.14       4.9  T
   8    -42.4019915 -0.332497E-06  0.195E-03    2.14      10.2  T
   9    -42.4019916 -0.489370E-07  0.846E-04    2.14      23.7  T
  10    -42.4019916 -0.348402E-08  0.286E-04    2.14      69.9  T
     SCC iter.                  ...        0 min,  0.008 sec
     gradient                   ...        0 min,  0.009 sec
 * total energy  :   -41.8386187 Eh     change       -0.5616493E-01 Eh
   gradient norm :     0.3087305 Eh/α   predicted    -0.4140938E-01 ( -26.27%)
   displ. norm   :     0.4352193 α      lambda       -0.6993481E-01
   maximum displ.:     0.1834968 α      in ANC's #18, #38, #33, ...

........................................................................
.............................. CYCLE   10 ..............................
........................................................................

 iter      E             dE          RMSdq      gap      omega  full diag
   1    -42.4483941 -0.424484E+02  0.619E-01    2.21       0.0  T
   2    -42.4515016 -0.310750E-02  0.403E-01    2.24       1.0  T
   3    -42.4528272 -0.132558E-02  0.207E-01    2.24       1.0  T
   4    -42.4528950 -0.678074E-04  0.836E-02    2.30       1.0  T
   5    -42.4530129 -0.117877E-03  0.211E-02    2.26       1.0  T
   6    -42.4530195 -0.664417E-05  0.118E-02    2.27       1.7  T
   7    -42.4530209 -0.136748E-05  0.283E-03    2.27       7.1  T
   8    -42.4530210 -0.986901E-07  0.155E-03    2.27      12.9  T
   9    -42.4530210 -0.212135E-07  0.640E-04    2.27      31.2  T
  10    -42.4530210 -0.291249E-08  0.272E-04    2.27      73.5  T
     SCC iter.                  ...        0 min,  0.008 sec
     gradient                   ...        0 min,  0.008 sec
 * total energy  :   -41.8931578 Eh     change       -0.5453919E-01 Eh
   gradient norm :     0.2871204 Eh/α   predicted    -0.4159100E-01 ( -23.74%)
   displ. norm   :     0.4538373 α      lambda       -0.6224988E-01
   maximum displ.:     0.1986903 α      in ANC's #18, #33, #38, ...

........................................................................
.............................. CYCLE   11 ..............................
........................................................................

 iter      E             dE          RMSdq      gap      omega  full diag
   1    -42.4882845 -0.424883E+02  0.587E-01    2.35       0.0  T
   2    -42.4909958 -0.271136E-02  0.382E-01    2.32       1.0  T
   3    -42.4920559 -0.106005E-02  0.197E-01    2.39       1.0  T
   4    -42.4920880 -0.321055E-04  0.854E-02    2.39       1.0  T
   5    -42.4922159 -0.127904E-03  0.189E-02    2.38       1.1  T
   6    -42.4922193 -0.345746E-05  0.108E-02    2.39       1.9  T
   7    -42.4922206 -0.120662E-05  0.239E-03    2.39       8.4  T
   8    -42.4922206 -0.325966E-07  0.135E-03    2.39      14.8  T
   9    -42.4922206 -0.185339E-07  0.460E-04    2.39      43.5  T
  10    -42.4922206 -0.123414E-08  0.223E-04    2.39      89.7  T
     SCC iter.                  ...        0 min,  0.008 sec
     gradient                   ...        0 min,  0.008 sec
 * total energy  :   -41.9410173 Eh     change       -0.4785949E-01 Eh
   gradient norm :     0.2693408 Eh/α   predicted    -0.3753781E-01 ( -21.57%)
   displ. norm   :     0.4125418 α      lambda       -0.5105296E-01
   maximum displ.:     0.1826387 α      in ANC's #18, #33, #38, ...

........................................................................
.............................. CYCLE   12 ..............................
........................................................................

 iter      E             dE          RMSdq      gap      omega  full diag
   1    -42.5124298 -0.425124E+02  0.528E-01    2.41       0.0  T
   2    -42.5139384 -0.150853E-02  0.337E-01    2.44       1.0  T
   3    -42.5144493 -0.510882E-03  0.180E-01    2.46       1.0  T
   4    -42.5146027 -0.153453E-03  0.691E-02    2.49       1.0  T
   5    -42.5146810 -0.783281E-04  0.163E-02    2.48       1.2  T
   6    -42.5146816 -0.556732E-06  0.938E-03    2.48       2.1  T
   7    -42.5146827 -0.113840E-05  0.211E-03    2.48       9.5  T
   8    -42.5146828 -0.444375E-07  0.113E-03    2.48      17.7  T
   9    -42.5146828 -0.139443E-07  0.333E-04    2.48      60.0  T
  10    -42.5146828 -0.465292E-09  0.160E-04    2.48     124.7  T
     SCC iter.                  ...        0 min,  0.008 sec
     gradient                   ...        0 min,  0.008 sec
 * total energy  :   -41.9799621 Eh     change       -0.3894478E-01 Eh
   gradient norm :     0.2525966 Eh/α   predicted    -0.2987085E-01 ( -23.30%)
   displ. norm   :     0.3562665 α      lambda       -0.4673772E-01
   maximum displ.:     0.1471036 α      in ANC's #18, #33, #41, ...

........................................................................
.............................. CYCLE   13 ..............................
........................................................................

 iter      E             dE          RMSdq      gap      omega  full diag
   1    -42.5276970 -0.425277E+02  0.521E-01    2.45       0.0  T
   2    -42.5284616 -0.764627E-03  0.323E-01    2.54       1.0  T
   3    -42.5284633 -0.173400E-05  0.185E-01    2.49       1.0  T
   4    -42.5288965 -0.433188E-03  0.519E-02    2.56       1.0  T
   5    -42.5289367 -0.401942E-04  0.148E-02    2.55       1.4  T
   6    -42.5289367  0.631087E-08  0.784E-03    2.55       2.6  T
   7    -42.5289376 -0.899531E-06  0.185E-03    2.55      10.8  T
   8    -42.5289377 -0.583170E-07  0.924E-04    2.55      21.6  T
   9    -42.5289377 -0.836530E-08  0.286E-04    2.55      69.8  T
     SCC iter.                  ...        0 min,  0.008 sec
     gradient                   ...        0 min,  0.008 sec
 * total energy  :   -42.0155930 Eh     change       -0.3563084E-01 Eh
   gradient norm :     0.2249528 Eh/α   predicted    -0.2633522E-01 ( -26.09%)
   displ. norm   :     0.3143590 α      lambda       -0.4395735E-01
   maximum displ.:     0.1148321 α      in ANC's #41, #48, #18, ...

........................................................................
.............................. CYCLE   14 ..............................
........................................................................

 iter      E             dE          RMSdq      gap      omega  full diag
   1    -42.5419692 -0.425420E+02  0.560E-01    2.45       0.0  T
   2    -42.5423913 -0.422080E-03  0.345E-01    2.56       1.0  T
   3    -42.5420590  0.332354E-03  0.227E-01    2.47       1.0  T
   4    -42.5428777 -0.818718E-03  0.391E-02    2.55       1.0  T
   5    -42.5429027 -0.250700E-04  0.145E-02    2.55       1.4  T
   6    -42.5429028 -0.210121E-07  0.620E-03    2.55       3.2  T
   7    -42.5429035 -0.703811E-06  0.182E-03    2.55      11.0  T
   8    -42.5429035 -0.604006E-07  0.884E-04    2.55      22.6  T
   9    -42.5429035 -0.587137E-08  0.325E-04    2.55      61.5  T
     SCC iter.                  ...        0 min,  0.008 sec
     gradient                   ...        0 min,  0.008 sec
 * total energy  :   -42.0470928 Eh     change       -0.3149984E-01 Eh
   gradient norm :     0.1921846 Eh/α   predicted    -0.2415353E-01 ( -23.32%)
   displ. norm   :     0.2252316 α      lambda       -0.2632576E-01
   maximum displ.:     0.1040917 α      in ANC's #48, #41, #51, ...

........................................................................
.............................. CYCLE   15 ..............................
........................................................................

 iter      E             dE          RMSdq      gap      omega  full diag
   1    -42.5559270 -0.425559E+02  0.464E-01    2.32       0.0  T
   2    -42.5563656 -0.438573E-03  0.285E-01    2.48       1.0  T
   3    -42.5566974 -0.331804E-03  0.193E-01    2.37       1.0  T
   4    -42.5570399 -0.342498E-03  0.600E-02    2.43       1.0  T
   5    -42.5571485 -0.108597E-03  0.149E-02    2.43       1.3  T
   6    -42.5571511 -0.262457E-05  0.735E-03    2.43       2.7  T
   7    -42.5571512 -0.493175E-07  0.371E-03    2.43       5.4  T
   8    -42.5571514 -0.249880E-06  0.849E-04    2.43      23.6  T
   9    -42.5571515 -0.820299E-08  0.401E-04    2.43      49.9  T
     SCC iter.                  ...        0 min,  0.008 sec
     gradient                   ...        0 min,  0.008 sec
 * total energy  :   -42.0639451 Eh     change       -0.1685232E-01 Eh
   gradient norm :     0.1691803 Eh/α   predicted    -0.1383072E-01 ( -17.93%)
   displ. norm   :     0.1002619 α      lambda       -0.1062952E-01
   maximum displ.:     0.0376079 α      in ANC's #48, #34, #41, ...

........................................................................
.............................. CYCLE   16 ..............................
........................................................................

 iter      E             dE          RMSdq      gap      omega  full diag
   1    -42.5694388 -0.425694E+02  0.227E-01    2.23       0.0  T
   2    -42.5696412 -0.202439E-03  0.158E-01    2.39       1.0  T
   3    -42.5701229 -0.481725E-03  0.796E-02    2.30       1.0  T
   4    -42.5701483 -0.253388E-04  0.383E-02    2.33       1.0  T
   5    -42.5701815 -0.332564E-04  0.949E-03    2.32       2.1  T
   6    -42.5701834 -0.187541E-05  0.278E-03    2.32       7.2  T
   7    -42.5701834 -0.206925E-08  0.134E-03    2.32      14.9  T
   8    -42.5701834 -0.170636E-07  0.398E-04    2.32      50.2  T
   9    -42.5701834 -0.250638E-08  0.161E-04    2.32     123.9  T
     SCC iter.                  ...        0 min,  0.008 sec
     gradient                   ...        0 min,  0.008 sec
 * total energy  :   -42.0722091 Eh     change       -0.8263949E-02 Eh
   gradient norm :     0.1527055 Eh/α   predicted    -0.5368341E-02 ( -35.04%)
   displ. norm   :     0.1925628 α      lambda       -0.1796046E-01
   maximum displ.:     0.1114503 α      in ANC's #1, #41, #2, ...

........................................................................
.............................. CYCLE   17 ..............................
........................................................................

 iter      E             dE          RMSdq      gap      omega  full diag
   1    -42.5902730 -0.425903E+02  0.344E-01    2.02       0.0  T
   2    -42.5905889 -0.315901E-03  0.269E-01    2.27       1.0  T
   3    -42.5921906 -0.160170E-02  0.118E-01    2.13       1.0  T
   4    -42.5922458 -0.551336E-04  0.631E-02    2.17       1.0  T
   5    -42.5923176 -0.718428E-04  0.180E-02    2.15       1.1  T
   6    -42.5923246 -0.699229E-05  0.484E-03    2.16       4.1  T
   7    -42.5923247 -0.822243E-07  0.220E-03    2.16       9.1  T
   8    -42.5923247 -0.419764E-07  0.488E-04    2.16      41.0  T
   9    -42.5923247 -0.234844E-08  0.247E-04    2.16      80.8  T
     SCC iter.                  ...        0 min,  0.008 sec
     gradient                   ...        0 min,  0.008 sec
 * total energy  :   -42.0838870 Eh     change       -0.1167798E-01 Eh
   gradient norm :     0.1335427 Eh/α   predicted    -0.9313248E-02 ( -20.25%)
   displ. norm   :     0.4511030 α      lambda       -0.1497408E-01
   maximum displ.:     0.4195883 α      in ANC's #1, #63, #41, ...

........................................................................
.............................. CYCLE   18 ..............................
........................................................................

 iter      E             dE          RMSdq      gap      omega  full diag
   1    -42.6006961 -0.426007E+02  0.478E-01    1.92       0.0  T
   2    -42.6007999 -0.103861E-03  0.312E-01    2.10       1.0  T
   3    -42.6007005  0.994028E-04  0.234E-01    1.93       1.0  T
   4    -42.6016865 -0.986022E-03  0.719E-02    2.03       1.0  T
   5    -42.6018403 -0.153790E-03  0.181E-02    2.01       1.1  T
   6    -42.6018464 -0.609080E-05  0.628E-03    2.01       3.2  T
   7    -42.6018464 -0.684288E-09  0.234E-03    2.01       8.5  T
   8    -42.6018465 -0.878927E-07  0.595E-04    2.01      33.6  T
   9    -42.6018465 -0.251961E-08  0.340E-04    2.01      58.8  T
     SCC iter.                  ...        0 min,  0.008 sec
     gradient                   ...        0 min,  0.008 sec
 * total energy  :   -42.0875196 Eh     change       -0.3632523E-02 Eh
   gradient norm :     0.1522591 Eh/α   predicted    -0.9010938E-02 ( 148.06%)
   displ. norm   :     0.3968765 α      lambda       -0.1772578E-01
   maximum displ.:     0.3605261 α      in ANC's #1, #41, #21, ...

........................................................................
.............................. CYCLE   19 ..............................
........................................................................

 iter      E             dE          RMSdq      gap      omega  full diag
   1    -42.6163243 -0.426163E+02  0.435E-01    1.90       0.0  T
   2    -42.6166591 -0.334754E-03  0.259E-01    1.92       1.0  T
   3    -42.6163976  0.261455E-03  0.172E-01    1.87       1.0  T
   4    -42.6167753 -0.377671E-03  0.702E-02    1.94       1.0  T
   5    -42.6169358 -0.160485E-03  0.176E-02    1.90       1.1  T
   6    -42.6169429 -0.710083E-05  0.581E-03    1.91       3.4  T
   7    -42.6169429 -0.628977E-07  0.138E-03    1.91      14.5  T
   8    -42.6169430 -0.285065E-07  0.558E-04    1.91      35.8  T
   9    -42.6169430 -0.248908E-08  0.274E-04    1.91      73.0  T
     SCC iter.                  ...        0 min,  0.008 sec
     gradient                   ...        0 min,  0.008 sec
 * total energy  :   -42.0954891 Eh     change       -0.7969515E-02 Eh
   gradient norm :     0.1641729 Eh/α   predicted    -0.1025916E-01 (  28.73%)
   displ. norm   :     0.0994738 α      lambda       -0.8958715E-02
   maximum displ.:     0.0480232 α      in ANC's #1, #18, #67, ...

........................................................................
.............................. CYCLE   20 ..............................
........................................................................

 iter      E             dE          RMSdq      gap      omega  full diag
   1    -42.6044856 -0.426045E+02  0.175E-01    2.00       0.0  T
   2    -42.6044717  0.138927E-04  0.164E-01    1.85       1.0  T
   3    -42.6050657 -0.594037E-03  0.678E-02    1.94       1.0  T
   4    -42.6050819 -0.162221E-04  0.419E-02    1.91       1.0  T
   5    -42.6051114 -0.294410E-04  0.118E-02    1.92       1.7  T
   6    -42.6051138 -0.239775E-05  0.305E-03    1.92       6.6  T
   7    -42.6051138 -0.491497E-09  0.162E-03    1.92      12.3  T
   8    -42.6051138 -0.307251E-07  0.399E-04    1.92      50.1  T
   9    -42.6051138 -0.208192E-08  0.201E-04    1.92      99.6  T
     SCC iter.                  ...        0 min,  0.008 sec
     gradient                   ...        0 min,  0.008 sec
 * total energy  :   -42.1012623 Eh     change       -0.5773235E-02 Eh
   gradient norm :     0.0933471 Eh/α   predicted    -0.4524081E-02 ( -21.64%)
   displ. norm   :     0.1213270 α      lambda       -0.5984454E-02
   maximum displ.:     0.0519205 α      in ANC's #21, #1, #18, ...
 * RMSD in coord.:     0.9258289 α      energy gain  -0.1145607E+02 Eh

generating ANC from model Hessian ...
Using Lindh-Hessian (1995)
 Shifting diagonal of input Hessian by    9.7292142975024358E-003
 Lowest  eigenvalues of input Hessian
    0.000000    0.000000    0.000000    0.000000    0.000000    0.000000
    0.010000    0.010826    0.011238    0.014095    0.014313    0.016634
    0.017467    0.018691    0.021227    0.021484    0.023146    0.028223
 Highest eigenvalues
    1.905273    1.958213    2.256683    2.479999    2.506137    3.052558


........................................................................
.............................. CYCLE   21 ..............................
........................................................................

 iter      E             dE          RMSdq      gap      omega  full diag
   1    -42.6053266 -0.426053E+02  0.146E-01    1.94       0.0  T
   2    -42.6053667 -0.401710E-04  0.109E-01    1.86       1.0  T
   3    -42.6054632 -0.964369E-04  0.636E-02    1.92       1.0  T
   4    -42.6055048 -0.416387E-04  0.375E-02    1.89       1.0  T
   5    -42.6055367 -0.318941E-04  0.709E-03    1.90       2.8  T
   6    -42.6055377 -0.934110E-06  0.205E-03    1.90       9.8  T
   7    -42.6055377 -0.446477E-08  0.115E-03    1.90      17.4  T
   8    -42.6055377 -0.138370E-07  0.300E-04    1.90      66.7  T
   9    -42.6055377 -0.979369E-09  0.149E-04    1.90     134.0  T
     SCC iter.                  ...        0 min,  0.008 sec
     gradient                   ...        0 min,  0.008 sec
 * total energy  :   -42.1061039 Eh     change       -0.4841528E-02 Eh
   gradient norm :     0.0724647 Eh/α   predicted     0.0000000E+00 (-100.00%)
   displ. norm   :     0.5194737 α      lambda       -0.2653248E-01
   maximum displ.:     0.2971853 α      in ANC's #18, #16, #6, ...

........................................................................
.............................. CYCLE   22 ..............................
........................................................................

 iter      E             dE          RMSdq      gap      omega  full diag
   1    -42.6542390 -0.426542E+02  0.404E-01    1.93       0.0  T
   2    -42.6545335 -0.294422E-03  0.250E-01    1.94       1.0  T
   3    -42.6543671  0.166402E-03  0.128E-01    1.91       1.0  T
   4    -42.6546089 -0.241848E-03  0.473E-02    1.95       1.0  T
   5    -42.6546688 -0.598919E-04  0.175E-02    1.93       1.1  T
   6    -42.6546761 -0.727777E-05  0.598E-03    1.93       3.3  T
   7    -42.6546761 -0.676137E-07  0.287E-03    1.93       7.0  T
   8    -42.6546763 -0.119924E-06  0.639E-04    1.93      31.3  T
   9    -42.6546763 -0.254492E-08  0.297E-04    1.93      67.2  T
     SCC iter.                  ...        0 min,  0.008 sec
     gradient                   ...        0 min,  0.008 sec
 * total energy  :   -42.1265174 Eh     change       -0.2041358E-01 Eh
   gradient norm :     0.0452182 Eh/α   predicted    -0.1684756E-01 ( -17.47%)
   displ. norm   :     0.5742979 α      lambda       -0.1571555E-01
   maximum displ.:     0.3347938 α      in ANC's #6, #18, #16, ...

........................................................................
.............................. CYCLE   23 ..............................
........................................................................

 iter      E             dE          RMSdq      gap      omega  full diag
   1    -42.6810616 -0.426811E+02  0.378E-01    1.94       0.0  T
   2    -42.6816547 -0.593109E-03  0.257E-01    1.98       1.0  T
   3    -42.6817570 -0.102294E-03  0.137E-01    1.93       1.0  T
   4    -42.6818199 -0.629251E-04  0.718E-02    1.99       1.0  T
   5    -42.6819445 -0.124605E-03  0.273E-02    1.95       1.0  T
   6    -42.6819646 -0.200622E-04  0.629E-03    1.96       3.2  T
   7    -42.6819646 -0.190725E-08  0.358E-03    1.96       5.6  T
   8    -42.6819648 -0.167606E-06  0.544E-04    1.96      36.8  T
   9    -42.6819648 -0.246661E-08  0.251E-04    1.96      79.8  T
     SCC iter.                  ...        0 min,  0.008 sec
     gradient                   ...        0 min,  0.008 sec
 * total energy  :   -42.1373877 Eh     change       -0.1087023E-01 Eh
   gradient norm :     0.0300947 Eh/α   predicted    -0.1044941E-01 (  -3.87%)
   displ. norm   :     0.5341084 α      lambda       -0.6435737E-02
   maximum displ.:     0.4018696 α      in ANC's #6, #16, #7, ...

........................................................................
.............................. CYCLE   24 ..............................
........................................................................

 iter      E             dE          RMSdq      gap      omega  full diag
   1    -42.6873897 -0.426874E+02  0.269E-01    1.93       0.0  T
   2    -42.6876183 -0.228591E-03  0.186E-01    1.99       1.0  T
   3    -42.6876687 -0.503232E-04  0.108E-01    1.92       1.0  T
   4    -42.6877080 -0.393651E-04  0.617E-02    1.98       1.0  T
   5    -42.6878143 -0.106243E-03  0.229E-02    1.95       1.0  T
   6    -42.6878277 -0.134356E-04  0.425E-03    1.96       4.7  T
   7    -42.6878276  0.536902E-07  0.216E-03    1.96       9.2  T
   8    -42.6878277 -0.102489E-06  0.371E-04    1.95      54.0  T
   9    -42.6878277 -0.118939E-08  0.174E-04    1.96     114.9  T
     SCC iter.                  ...        0 min,  0.008 sec
     gradient                   ...        0 min,  0.008 sec
 * total energy  :   -42.1414246 Eh     change       -0.4036971E-02 Eh
   gradient norm :     0.0320685 Eh/α   predicted    -0.4135854E-02 (   2.45%)
   displ. norm   :     0.6163487 α      lambda       -0.5853861E-02
   maximum displ.:     0.4568499 α      in ANC's #6, #7, #2, ...

........................................................................
.............................. CYCLE   25 ..............................
........................................................................

 iter      E             dE          RMSdq      gap      omega  full diag
   1    -42.6900193 -0.426900E+02  0.329E-01    2.01       0.0  T
   2    -42.6898855  0.133753E-03  0.233E-01    1.95       1.0  T
   3    -42.6898307  0.548010E-04  0.179E-01    2.02       1.0  T
   4    -42.6903710 -0.540265E-03  0.530E-02    1.96       1.0  T
   5    -42.6904613 -0.903049E-04  0.150E-02    1.99       1.3  T
   6    -42.6904667 -0.536696E-05  0.425E-03    1.98       4.7  T
   7    -42.6904666  0.432098E-07  0.265E-03    1.98       7.5  T
   8    -42.6904668 -0.135768E-06  0.380E-04    1.98      52.7  T
   9    -42.6904668 -0.554536E-09  0.206E-04    1.98      97.0  T
     SCC iter.                  ...        0 min,  0.008 sec
     gradient                   ...        0 min,  0.008 sec
 * total energy  :   -42.1430779 Eh     change       -0.1653310E-02 Eh
   gradient norm :     0.0305746 Eh/α   predicted    -0.4038834E-02 ( 144.29%)
   displ. norm   :     0.2583469 α      lambda       -0.3337119E-02
   maximum displ.:     0.1438520 α      in ANC's #7, #6, #2, ...

........................................................................
.............................. CYCLE   26 ..............................
........................................................................

 iter      E             dE          RMSdq      gap      omega  full diag
   1    -42.6931061 -0.426931E+02  0.180E-01    2.10       0.0  T
   2    -42.6928950  0.211105E-03  0.164E-01    1.98       1.0  T
   3    -42.6934220 -0.527029E-03  0.809E-02    2.06       1.0  T
   4    -42.6934598 -0.377999E-04  0.348E-02    2.04       1.0  T
   5    -42.6934873 -0.275382E-04  0.897E-03    2.04       2.2  T
   6    -42.6934893 -0.199162E-05  0.212E-03    2.04       9.5  T
   7    -42.6934893 -0.197019E-07  0.115E-03    2.04      17.3  T
   8    -42.6934894 -0.851998E-08  0.220E-04    2.04      91.1  T
   9    -42.6934894 -0.648434E-09  0.908E-05    2.04     220.2  T
     SCC iter.                  ...        0 min,  0.008 sec
     gradient                   ...        0 min,  0.008 sec
 * total energy  :   -42.1452250 Eh     change       -0.2147009E-02 Eh
   gradient norm :     0.0199028 Eh/α   predicted    -0.1779930E-02 ( -17.10%)
   displ. norm   :     0.2849657 α      lambda       -0.1372915E-02
   maximum displ.:     0.1979213 α      in ANC's #7, #6, #12, ...

........................................................................
.............................. CYCLE   27 ..............................
........................................................................

 iter      E             dE          RMSdq      gap      omega  full diag
   1    -42.6889283 -0.426889E+02  0.131E-01    2.03       0.0  T
   2    -42.6888550  0.733982E-04  0.100E-01    2.10       1.0  T
   3    -42.6890516 -0.196677E-03  0.626E-02    2.05       1.0  T
   4    -42.6891029 -0.513080E-04  0.203E-02    2.06       1.0  T
   5    -42.6891112 -0.826896E-05  0.317E-03    2.06       6.3  T
   6    -42.6891113 -0.134543E-06  0.150E-03    2.06      13.3  T
   7    -42.6891113 -0.270892E-08  0.771E-04    2.06      26.0  T
   8    -42.6891114 -0.993199E-08  0.199E-04    2.06     100.6  T
     SCC iter.                  ...        0 min,  0.007 sec
     gradient                   ...        0 min,  0.008 sec
 * total energy  :   -42.1460084 Eh     change       -0.7834861E-03 Eh
   gradient norm :     0.0111847 Eh/α   predicted    -0.7422025E-03 (  -5.27%)
   displ. norm   :     0.1898827 α      lambda       -0.3857162E-03
   maximum displ.:     0.1532966 α      in ANC's #7, #6, #10, ...

........................................................................
.............................. CYCLE   28 ..............................
........................................................................

 iter      E             dE          RMSdq      gap      omega  full diag
   1    -42.6901695 -0.426902E+02  0.607E-02    2.11       0.0  T
   2    -42.6901446  0.249446E-04  0.566E-02    2.07       1.0  T
   3    -42.6902040 -0.594028E-04  0.260E-02    2.10       1.0  T
   4    -42.6902074 -0.335898E-05  0.905E-03    2.09       2.2  T
   5    -42.6902095 -0.214421E-05  0.187E-03    2.09      10.7  T
   6    -42.6902096 -0.746059E-07  0.783E-04    2.09      25.6  T
   7    -42.6902096 -0.165663E-08  0.294E-04    2.09      68.0  T
     SCC iter.                  ...        0 min,  0.006 sec
     gradient                   ...        0 min,  0.008 sec
 * total energy  :   -42.1462459 Eh     change       -0.2374750E-03 Eh
   gradient norm :     0.0055922 Eh/α   predicted    -0.1998131E-03 ( -15.86%)
   displ. norm   :     0.0975988 α      lambda       -0.1472024E-03
   maximum displ.:     0.0795849 α      in ANC's #7, #12, #3, ...

........................................................................
.............................. CYCLE   29 ..............................
........................................................................

 iter      E             dE          RMSdq      gap      omega  full diag
   1    -42.6913333 -0.426913E+02  0.404E-02    2.10       0.0  T
   2    -42.6913333  0.284841E-07  0.216E-02    2.11       1.0  T
   3    -42.6913264  0.687261E-05  0.231E-02    2.10       1.0  T
   4    -42.6913368 -0.104038E-04  0.470E-03    2.11       4.3  T
   5    -42.6913374 -0.647923E-06  0.985E-04    2.10      20.3  T
   6    -42.6913374 -0.119821E-07  0.603E-04    2.10      33.2  T
     SCC iter.                  ...        0 min,  0.005 sec
     gradient                   ...        0 min,  0.008 sec
 * total energy  :   -42.1463450 Eh     change       -0.9905284E-04 Eh
   gradient norm :     0.0048416 Eh/α   predicted    -0.7430281E-04 ( -24.99%)
   displ. norm   :     0.0881096 α      lambda       -0.8063464E-04
   maximum displ.:     0.0637574 α      in ANC's #7, #3, #6, ...

........................................................................
.............................. CYCLE   30 ..............................
........................................................................

 iter      E             dE          RMSdq      gap      omega  full diag
   1    -42.6911515 -0.426912E+02  0.432E-02    2.10       0.0  T
   2    -42.6911453  0.622945E-05  0.273E-02    2.12       1.0  T
   3    -42.6911544 -0.908540E-05  0.239E-02    2.10       1.0  T
   4    -42.6911645 -0.100924E-04  0.475E-03    2.11       4.2  T
   5    -42.6911649 -0.368762E-06  0.756E-04    2.11      26.5  T
   6    -42.6911649 -0.659517E-08  0.477E-04    2.11      42.0  T
     SCC iter.                  ...        0 min,  0.005 sec
     gradient                   ...        0 min,  0.008 sec
 * total energy  :   -42.1463988 Eh     change       -0.5388315E-04 Eh
   gradient norm :     0.0033327 Eh/α   predicted    -0.4063242E-04 ( -24.59%)
   displ. norm   :     0.0717429 α      lambda       -0.4543283E-04
   maximum displ.:     0.0401149 α      in ANC's #6, #7, #3, ...

........................................................................
.............................. CYCLE   31 ..............................
........................................................................

 iter      E             dE          RMSdq      gap      omega  full diag
   1    -42.6908901 -0.426909E+02  0.349E-02    2.10       0.0  T
   2    -42.6908858  0.428978E-05  0.221E-02    2.11       1.0  T
   3    -42.6908924 -0.656639E-05  0.191E-02    2.10       1.0  T
   4    -42.6908988 -0.637153E-05  0.373E-03    2.11       5.4  T
   5    -42.6908990 -0.237532E-06  0.775E-04    2.11      25.8  T
   6    -42.6908990 -0.103766E-07  0.412E-04    2.11      48.6  T
     SCC iter.                  ...        0 min,  0.005 sec
     gradient                   ...        0 min,  0.008 sec
 * total energy  :   -42.1464303 Eh     change       -0.3146037E-04 Eh
   gradient norm :     0.0030337 Eh/α   predicted    -0.2283439E-04 ( -27.42%)
   displ. norm   :     0.0623675 α      lambda       -0.2976399E-04
   maximum displ.:     0.0291178 α      in ANC's #3, #6, #7, ...

   *** GEOMETRY OPTIMIZATION CONVERGED AFTER 31 ITERATIONS ***

------------------------------------------------------------------------
 total energy gain   :       -11.5012411 Eh    -7217.1378 kcal/mol
 total RMSD          :         1.0755459 a0        0.5692 Å
 total power (kW/mol):      -974.0807876 (step)********** (real)
------------------------------------------------------------------------

 ANCopt (total)                0 d,  0 h,  0 min,  0.638 sec
 optimizer setup                ...        0 min,  0.001 sec (  0.100%)
 model hessian                  ...        0 min,  0.013 sec (  2.029%)
 ANC generation                 ...        0 min,  0.002 sec (  0.241%)
 coordinate transformation      ...        0 min,  0.000 sec (  0.033%)
 single point calculation       ...        0 min,  0.617 sec ( 96.721%)
 optimization log               ...        0 min,  0.002 sec (  0.320%)
 hessian update                 ...        0 min,  0.000 sec (  0.049%)
 rational function              ...        0 min,  0.002 sec (  0.346%)

================
 final structure:
================
25
 xtb: 6.6.1 (8d0f1dd)
C            3.37323832017002        0.89677905955945        0.04084505212651
N            3.56247823078100       -0.48927736945035        0.02284403639395
C            2.69427333412344       -1.38642545857821       -0.00024591019473
N            1.27849033942621       -1.40648309966523       -0.02067117591716
C            0.16651790896390       -0.62548273800540       -0.01264698681650
C           -0.14064052092783        0.77415213375385       -0.01765767788014
C            0.64155439310555        1.88163699868593       -0.03159036676871
O            0.84550436986551        3.02850353874419       -0.05098054588624
N           -1.54090433314487        0.88812310863029       -0.00627888518007
C           -2.33046277212345        2.09321249155374       -0.00300999245136
C           -2.10660100672554       -0.35425097776827        0.00139424878265
O           -3.26590756345114       -0.64686316144872        0.01176820020251
N           -1.02912941581612       -1.26667605577949       -0.00406897031724
C           -1.27753433722633       -2.68551219363819        0.00086394353232
H            3.80167546488617        1.30698114947680        0.95836178086378
H            3.90303584995323        1.34247485672362       -0.80390875136493
H            2.28950708674344        1.19379349241890       -0.01475498295620
H            3.06613363173942       -2.40313081698364       -0.00610485476444
H           -1.68994406855908        2.97004584335403        0.01287322377102
H           -2.96249437223650        2.11856221021499       -0.89240534529994
H           -2.97996073326102        2.09891370590010        0.87390598058255
H           -0.87008621033120       -3.15984537223979        0.89589927453408
H           -0.88637284747148       -3.16305505532474       -0.89980433277215
H           -2.36126351486037       -2.80940146709970        0.01043875520333
H            0.97932428047710       -2.37853628143454       -0.03389409952232

 Bond Distances (Angstroems)
 ---------------------------
C1-N2=1.3990         C1-H15=1.0925        C1-H16=1.0922        C1-H17=1.1251        N2-C1=1.3990         N2-C3=1.2487         
C3-N2=1.2487         C3-N4=1.4161         C3-H18=1.0826        N4-C3=1.4161         N4-C5=1.3589         N4-H25=1.0171        
C5-N4=1.3589         C5-C6=1.4330         C5-N13=1.3568        C6-C5=1.4330         C6-C7=1.3559         C6-N9=1.4049         
C7-C6=1.3559         C7-O8=1.1650         O8-C7=1.1650         N9-C6=1.4049         N9-C10=1.4407        N9-C11=1.3651        
C10-N9=1.4407        C10-H19=1.0860       C10-H20=1.0914       C10-H21=1.0913       C11-N9=1.3651        C11-O12=1.1957       
C11-N13=1.4119       O12-C11=1.1957       N13-C5=1.3568        N13-C11=1.4119       N13-C14=1.4404       C14-N13=1.4404       
C14-H22=1.0918       C14-H23=1.0919       C14-H24=1.0908       H15-C1=1.0925        H16-C1=1.0922        H17-C1=1.1251        
H18-C3=1.0826        H19-C10=1.0860       H20-C10=1.0914       H21-C10=1.0913       H22-C14=1.0918       H23-C14=1.0919       
H24-C14=1.0908       H25-N4=1.0171        
 C  H  Rav=1.0936 sigma=0.0109  Rmin=1.0826  Rmax=1.1251    10
 C  C  Rav=1.3944 sigma=0.0385  Rmin=1.3559  Rmax=1.4330     2
 N  H  Rav=1.0171 sigma=0.0000  Rmin=1.0171  Rmax=1.0171     1
 N  C  Rav=1.3843 sigma=0.0538  Rmin=1.2487  Rmax=1.4407    10
 O  C  Rav=1.1804 sigma=0.0153  Rmin=1.1650  Rmax=1.1957     2

 selected bond angles (degree)
 --------------------
H15-C1-N2=109.25               H16-C1-N2=109.19               H16-C1-H15=107.82              H17-C1-N2=113.03               
H17-C1-H15=108.67              H17-C1-H16=108.74              C3-N2-C1=128.17                N4-C3-N2=134.88                
H18-C3-N2=115.85               H18-C3-N4=109.27               C5-N4-C3=144.09                H25-N4-C3=107.93               
H25-N4-C5=107.98               C6-C5-N4=137.46                N13-C5-N4=116.72               N13-C5-C6=105.83               
C7-C6-C5=132.39                N9-C6-C5=107.03                N9-C6-C7=120.58                O8-C7-C6=154.85                
C10-N9-C6=127.89               C11-N9-C6=109.83               C11-N9-C10=122.28              H19-C10-N9=110.62              
H20-C10-N9=109.57              H20-C10-H19=109.56             H21-C10-N9=109.41              H21-C10-H19=109.58             
H21-C10-H20=108.06             

 selected dihedral angles (degree)
 ---------------------------------
C3-N2-C1-H15=118.50           C3-N2-C1-H16=236.20           C3-N2-C1-H17=357.38           N4-C3-N2-C1=  0.22            
H18-C3-N2-C1=180.27           C5-N4-C3-N2=358.95            C5-N4-C3-H18=178.90           H25-N4-C3-N2=180.16           
H25-N4-C3-H18=  0.10          C6-C5-N4-C3=  2.54            C6-C5-N4-H25=181.34           N13-C5-N4-C3=182.11           
N13-C5-N4-H25=  0.91          C7-C6-C5-N4=359.90            C7-C6-C5-N13=180.29           N9-C6-C5-N4=179.83            
N9-C6-C5-N13=  0.23           O8-C7-C6-C5=178.74            O8-C7-C6-N9=358.82            C10-N9-C6-C5=179.84           
C10-N9-C6-C7=359.79           C11-N9-C6-C5=359.82           C11-N9-C6-C7=179.77           H19-C10-N9-C6=358.67          
H19-C10-N9-C11=178.69         H20-C10-N9-C6=119.55          H20-C10-N9-C11=299.58         H21-C10-N9-C6=237.86          
H21-C10-N9-C11= 57.88         
           -------------------------------------------------
          |                Final Singlepoint                |
           -------------------------------------------------

          ...................................................
          :                      SETUP                      :
          :.................................................:
          :  # basis functions                  67          :
          :  # atomic orbitals                  67          :
          :  # shells                           39          :
          :  # electrons                        74          :
          :  max. iterations                   250          :
          :  Hamiltonian                  GFN2-xTB          :
          :  restarted?                      false          :
          :  GBSA solvation                  false          :
          :  PC potential                    false          :
          :  electronic temp.         5000.0000000     K    :
          :  accuracy                    1.0000000          :
          :  -> integral cutoff          0.2500000E+02      :
          :  -> integral neglect         0.1000000E-07      :
          :  -> SCF convergence          0.1000000E-05 Eh   :
          :  -> wf. convergence          0.1000000E-03 e    :
          :  Broyden damping             0.4000000          :
          ...................................................

 iter      E             dE          RMSdq      gap      omega  full diag
   1    -42.6908990 -0.426909E+02  0.169E-04    2.11       0.0  T
   2    -42.6908990 -0.828067E-10  0.114E-04    2.11     175.4  T
   3    -42.6908990 -0.230301E-09  0.706E-05    2.11     283.2  T

   *** convergence criteria satisfied after 3 iterations ***

         #    Occupation            Energy/Eh            Energy/eV
      -------------------------------------------------------------
         1        2.0000           -0.9314624             -25.3464
       ...           ...                  ...                  ...
        31        1.9993           -0.6308382             -17.1660
        32        1.9991           -0.6268807             -17.0583
        33        1.9959           -0.6027908             -16.4028
        34        1.9861           -0.5834197             -15.8757
        35        1.9833           -0.5805019             -15.7963
        36        1.9168           -0.5545351             -15.0897
        37        1.8358           -0.5430919             -14.7783 (HOMO)
        38        0.1548           -0.4656307             -12.6705 (LUMO)
        39        0.1292           -0.4625443             -12.5865
        40        0.0012           -0.3869716             -10.5300
        41        0.0001           -0.3464449              -9.4272
        42        0.0000           -0.3204295              -8.7193
       ...           ...                  ...                  ...
        67                          0.7864984              21.4017
      -------------------------------------------------------------
                  HL-Gap            0.0774612 Eh            2.1078 eV
             Fermi-level           -0.5048701 Eh          -13.7382 eV

 SCC (total)                   0 d,  0 h,  0 min,  0.015 sec
 SCC setup                      ...        0 min,  0.000 sec (  1.011%)
 Dispersion                     ...        0 min,  0.000 sec (  0.829%)
 classical contributions        ...        0 min,  0.000 sec (  0.348%)
 integral evaluation            ...        0 min,  0.003 sec ( 21.302%)
 iterations                     ...        0 min,  0.003 sec ( 20.405%)
 molecular gradient             ...        0 min,  0.008 sec ( 55.543%)
 printout                       ...        0 min,  0.000 sec (  0.517%)

         :::::::::::::::::::::::::::::::::::::::::::::::::::::
         ::                     SUMMARY                     ::
         :::::::::::::::::::::::::::::::::::::::::::::::::::::
         :: total energy             -42.146430311033 Eh    ::
         :: gradient norm              0.003038605458 Eh/a0 ::
         :: HOMO-LUMO gap              2.107825352045 eV    ::
         ::.................................................::
         :: SCC energy               -42.690899031063 Eh    ::
         :: -> isotropic ES            0.128063974241 Eh    ::
         :: -> anisotropic ES         -0.001718192797 Eh    ::
         :: -> anisotropic XC          0.016738712839 Eh    ::
         :: -> dispersion             -0.021794829111 Eh    ::
         :: repulsion energy           0.544260369109 Eh    ::
         :: add. restraining           0.000089363744 Eh    ::
         :: total charge               1.000000000000 e     ::
         :::::::::::::::::::::::::::::::::::::::::::::::::::::

           -------------------------------------------------
          |                Property Printout                |
           -------------------------------------------------

    * Orbital Energies and Occupations

         #    Occupation            Energy/Eh            Energy/eV
      -------------------------------------------------------------
         1        2.0000           -0.9314624             -25.3464
       ...           ...                  ...                  ...
        25        2.0000           -0.6796482             -18.4942
        26        2.0000           -0.6736358             -18.3306
        27        1.9999           -0.6653276             -18.1045
        28        1.9999           -0.6554366             -17.8353
        29        1.9995           -0.6377134             -17.3531
        30        1.9994           -0.6337837             -17.2461
        31        1.9993           -0.6308382             -17.1660
        32        1.9991           -0.6268807             -17.0583
        33        1.9959           -0.6027908             -16.4028
        34        1.9861           -0.5834197             -15.8757
        35        1.9833           -0.5805019             -15.7963
        36        1.9168           -0.5545351             -15.0897
        37        1.8358           -0.5430919             -14.7783 (HOMO)
        38        0.1548           -0.4656307             -12.6705 (LUMO)
        39        0.1292           -0.4625443             -12.5865
        40        0.0012           -0.3869716             -10.5300
        41        0.0001           -0.3464449              -9.4272
        42        0.0000           -0.3204295              -8.7193
        43                         -0.2172837              -5.9126
        44                         -0.1935846              -5.2677
        45                         -0.1230882              -3.3494
        46                         -0.1199191              -3.2632
        47                         -0.0770866              -2.0976
        48                         -0.0524768              -1.4280
       ...                                ...                  ...
        67                          0.7864984              21.4017
      -------------------------------------------------------------
                  HL-Gap            0.0774612 Eh            2.1078 eV
             Fermi-level           -0.5048701 Eh          -13.7382 eV

     #   Z          covCN         q      C6AA      α(0)
     1   6 C        3.697    -0.035    21.377     6.613
     2   7 N        1.820    -0.129    24.569     7.344
     3   6 C        2.766     0.106    25.631     8.291
     4   7 N        2.689    -0.127    23.759     7.239
     5   6 C        2.897     0.131    25.136     8.220
     6   6 C        3.006     0.002    27.960     8.674
     7   6 C        1.848     0.240    25.566     8.168
     8   8 O        0.856    -0.138    17.089     5.542
     9   7 N        2.800    -0.046    22.128     6.987
    10   6 C        3.691    -0.065    21.942     6.703
    11   6 C        2.826     0.314    21.669     7.628
    12   8 O        0.857    -0.351    20.731     6.105
    13   7 N        2.830    -0.055    22.308     7.015
    14   6 C        3.690    -0.075    22.127     6.732
    15   1 H        0.924     0.111     1.686     2.030
    16   1 H        0.924     0.113     1.674     2.023
    17   1 H        0.922     0.057     2.238     2.339
    18   1 H        0.925     0.104     1.750     2.069
    19   1 H        0.925     0.091     1.872     2.140
    20   1 H        0.924     0.107     1.724     2.053
    21   1 H        0.924     0.108     1.718     2.050
    22   1 H        0.924     0.088     1.895     2.153
    23   1 H        0.924     0.088     1.897     2.154
    24   1 H        0.924     0.131     1.531     1.935
    25   1 H        0.860     0.231     0.960     1.535

 Mol. C6AA /au·bohr⁶  :       6598.258566
 Mol. C8AA /au·bohr⁸  :     151209.663494
 Mol. α(0) /au        :        123.742302


Wiberg/Mayer (AO) data.
largest (>0.10) Wiberg bond orders for each atom

 ---------------------------------------------------------------------------
     #   Z sym  total        # sym  WBO       # sym  WBO       # sym  WBO
 ---------------------------------------------------------------------------
     1   6 C    3.933 --     2 N    1.083    16 H    0.941    15 H    0.940
                            17 H    0.834
     2   7 N    3.157 --     3 C    1.823     1 C    1.083     4 N    0.101
     3   6 C    3.932 --     2 N    1.823     4 N    1.059    18 H    0.939
     4   7 N    3.486 --     5 C    1.232     3 C    1.059    25 H    0.902
                             2 N    0.101
     5   6 C    3.884 --    13 N    1.252     4 N    1.232     6 C    1.195
     6   6 C    3.877 --     7 C    1.361     5 C    1.195     9 N    1.047
                             8 O    0.116
     7   6 C    3.705 --     8 O    2.016     6 C    1.361    17 H    0.124
     8   8 O    2.335 --     7 C    2.016     6 C    0.116
     9   7 N    3.466 --    11 C    1.146     6 C    1.047    10 C    0.987
                            12 O    0.150
    10   6 C    3.917 --     9 N    0.987    19 H    0.975    21 H    0.958
                            20 H    0.958
    11   6 C    3.948 --    12 O    1.689     9 N    1.146    13 N    1.019
    12   8 O    2.018 --    11 C    1.689     9 N    0.150    13 N    0.111
    13   7 N    3.567 --     5 C    1.252    11 C    1.019    14 C    0.987
                            12 O    0.111
    14   6 C    3.927 --    13 N    0.987    22 H    0.963    23 H    0.962
                            24 H    0.959
    15   1 H    0.980 --     1 C    0.940
    16   1 H    0.979 --     1 C    0.941
    17   1 H    0.983 --     1 C    0.834     7 C    0.124
    18   1 H    0.984 --     3 C    0.939
    19   1 H    0.990 --    10 C    0.975
    20   1 H    0.976 --    10 C    0.958
    21   1 H    0.976 --    10 C    0.958
    22   1 H    0.987 --    14 C    0.963
    23   1 H    0.987 --    14 C    0.962
    24   1 H    0.982 --    14 C    0.959
    25   1 H    0.945 --     4 N    0.902
 ---------------------------------------------------------------------------

Topologies differ in total number of bonds
Writing topology from bond orders to xtbtopo.mol

molecular dipole:
                 x           y           z       tot (Debye)
 q only:        1.415      -0.781       0.001
   full:        1.320      -0.852      -0.004       3.993
molecular quadrupole (traceless):
                xx          xy          yy          xz          yz          zz
 q only:        1.520      -5.528      12.414       0.210       0.216     -13.934
  q+dip:       -5.316      -5.047      14.723       0.207       0.273      -9.407
   full:       -5.841      -5.877      13.611       0.208       0.290      -7.771

           -------------------------------------------------
          |                Geometry Summary                 |
           -------------------------------------------------

      molecular mass/u    :      195.1988581
   center of mass at/Å    :        0.0391710       0.0536827      -0.0046377
  moments of inertia/u·Å² :        0.5119377E+03   0.8771602E+03   0.1379394E+04
rotational constants/cm⁻¹ :        0.3292907E-01   0.1921842E-01   0.1222104E-01

 * 25 selected distances

     #   Z          #   Z                                           value/Å
     1   6 C        2   7 N                                       1.3990313
     2   7 N        3   6 C                                       1.2486744
     3   6 C        4   7 N                                       1.4160725
     4   7 N        5   6 C                                       1.3588631
     5   6 C        6   6 C                                       1.4329513
     6   6 C        7   6 C                                       1.3559300
     7   6 C        8   8 O                                       1.1650213
     6   6 C        9   7 N                                       1.4049406
     9   7 N       10   6 C                                       1.4407130 (max)
     9   7 N       11   6 C                                       1.3651247
    11   6 C       12   8 O                                       1.1957096
     5   6 C       13   7 N                                       1.3567518
    11   6 C       13   7 N                                       1.4119117
    13   7 N       14   6 C                                       1.4404255
     1   6 C       15   1 H                                       1.0925481
     1   6 C       16   1 H                                       1.0922176
     1   6 C       17   1 H                                       1.1250700
     3   6 C       18   1 H                                       1.0825915
    10   6 C       19   1 H                                       1.0859804
    10   6 C       20   1 H                                       1.0913894
    10   6 C       21   1 H                                       1.0912662
    14   6 C       22   1 H                                       1.0918308
    14   6 C       23   1 H                                       1.0919057
    14   6 C       24   1 H                                       1.0908297
     4   7 N       25   1 H                                       1.0171346 (min)

 * 5 distinct bonds (by element types)

   Z      Z             #   av. dist./Å        max./Å        min./Å
   1 H    6 C          10     1.0935629     1.1250700     1.0825915
   6 C    6 C           2     1.3944407     1.4329513     1.3559300
   1 H    7 N           1     1.0171346     1.0171346     1.0171346
   6 C    7 N          10     1.3842509     1.4407130     1.2486744
   6 C    8 O           2     1.1803655     1.1957096     1.1650213


optimized geometry written to: xtbopt.xyz


           -------------------------------------------------
          | TOTAL ENERGY              -42.146430311033 Eh   |
          | GRADIENT NORM               0.003038605458 Eh/α |
          | HOMO-LUMO GAP               2.107825352045 eV   |
           -------------------------------------------------

------------------------------------------------------------------------
 * finished run on 2024/06/05 at 19:57:51.837     
------------------------------------------------------------------------
 total:
 * wall-time:     0 d,  0 h,  0 min,  0.778 sec
 *  cpu-time:     0 d,  0 h,  0 min,  0.736 sec
 * ratio c/w:     0.947 speedup
 SCF:
 * wall-time:     0 d,  0 h,  0 min,  0.059 sec
 *  cpu-time:     0 d,  0 h,  0 min,  0.059 sec
 * ratio c/w:     0.999 speedup
 ANC optimizer:
 * wall-time:     0 d,  0 h,  0 min,  0.660 sec
 *  cpu-time:     0 d,  0 h,  0 min,  0.654 sec
 * ratio c/w:     0.991 speedup

