25
 energy: -42.146519674832 gnorm: 0.018889134873 xtb: 6.6.1 (8d0f1dd)
C            3.37323832017002        0.89677905955945        0.04084505212651
N            3.56247823078100       -0.48927736945035        0.02284403639395
C            2.69427333412344       -1.38642545857821       -0.00024591019473
N            1.27849033942621       -1.40648309966523       -0.02067117591716
C            0.16651790896390       -0.62548273800540       -0.01264698681650
C           -0.14064052092783        0.77415213375385       -0.01765767788014
C            0.64155439310555        1.88163699868593       -0.03159036676871
O            0.84550436986551        3.02850353874419       -0.05098054588624
N           -1.54090433314487        0.88812310863029       -0.00627888518007
C           -2.33046277212345        2.09321249155374       -0.00300999245136
C           -2.10660100672554       -0.35425097776827        0.00139424878265
O           -3.26590756345114       -0.64686316144872        0.01176820020251
N           -1.02912941581612       -1.26667605577949       -0.00406897031724
C           -1.27753433722633       -2.68551219363819        0.00086394353232
H            3.80167546488617        1.30698114947680        0.95836178086378
H            3.90303584995323        1.34247485672362       -0.80390875136493
H            2.28950708674344        1.19379349241890       -0.01475498295620
H            3.06613363173942       -2.40313081698364       -0.00610485476444
H           -1.68994406855908        2.97004584335403        0.01287322377102
H           -2.96249437223650        2.11856221021499       -0.89240534529994
H           -2.97996073326102        2.09891370590010        0.87390598058255
H           -0.87008621033120       -3.15984537223979        0.89589927453408
H           -0.88637284747148       -3.16305505532474       -0.89980433277215
H           -2.36126351486037       -2.80940146709970        0.01043875520333
H            0.97932428047710       -2.37853628143454       -0.03389409952232
25
 energy: -42.147887721357 gnorm: 0.013384386072 xtb: 6.6.1 (8d0f1dd)
C            3.34498263348278        0.91455770975357        0.04128220191123
N            3.52843065725384       -0.46981466039878        0.02254065934856
C            2.68187807462578       -1.38423522815690       -0.00051067884318
N            1.27338631792301       -1.42317040483200       -0.02094844085922
C            0.17009761283894       -0.63848645569200       -0.01246333696293
C           -0.11713608328969        0.76228174604793       -0.01848377001818
C            0.66062546662617        1.87258908869136       -0.03824882439474
O            0.85661591372311        3.02137047654274       -0.04353337655978
N           -1.52068869595923        0.88463452702296       -0.00639876467115
C           -2.31004879497017        2.09151384788318       -0.00367538197379
C           -2.09741466306512       -0.35279185823570        0.00195579473575
O           -3.25914283400393       -0.63620621551933        0.01235824179041
N           -1.02759728249421       -1.27253573173950       -0.00347328080241
C           -1.28270020175419       -2.69014844481212        0.00134627493751
H            3.78061430746344        1.32039683621689        0.95723505735342
H            3.87669425086534        1.35575819839495       -0.80465872331132
H            2.26522822611131        1.21005664734477       -0.01079349490992
H            3.07322853052126       -2.39461593040341       -0.00856950332203
H           -1.67185587202934        2.96969187903273        0.01262651394215
H           -2.94366881727483        2.11726895450859       -0.89244751296138
H           -2.96209623408906        2.09758789590696        0.87190632176553
H           -0.87574641875228       -3.16534431311870        0.89619457555342
H           -0.89253072032515       -3.16852217140280       -0.89939289102470
H           -2.36758452356257       -2.80805672413952        0.01120465221263
H            0.97686066423487       -2.39554112729631       -0.03388069503529
25
 energy: -42.149143032453 gnorm: 0.018868075256 xtb: 6.6.1 (8d0f1dd)
C            3.28651758477181        0.95076078133111        0.04156156262115
N            3.46101279351624       -0.42727983152190        0.02272729239435
C            2.66232128226289       -1.38344212131666       -0.00194045948667
N            1.26736749295859       -1.46693625782408       -0.02274353709932
C            0.17917671332209       -0.66893785396770       -0.01190562152839
C           -0.06738188590052        0.73503796517828       -0.00428011722904
C            0.69797026357471        1.85582751670272       -0.00045332132214
O            0.85884502483620        3.01128322801118       -0.08122593959547
N           -1.47757861348667        0.87839779814805       -0.00337640690319
C           -2.26292262082370        2.08967977616002       -0.00260526036547
C           -2.07876389005233       -0.34706509363302       -0.00024553610033
O           -3.24598752455563       -0.60893134944243        0.00713086520845
N           -1.02588643917979       -1.28435980764316       -0.00421195140316
C           -1.29681006498710       -2.69934763237449        0.00061502445669
H            3.73027403780826        1.35233135879249        0.95562072867685
H            3.81745110881468        1.38581591631284       -0.80828284113567
H            2.20779873595382        1.24699769781088       -0.00620538557834
H            3.09982867467307       -2.37776868211523       -0.01181141409663
H           -1.62600033498161        2.96817044028834        0.01833140268938
H           -2.89402104619264        2.11708486824557       -0.89392665608779
H           -2.92135926199854        2.09407108425064        0.86890556739063
H           -0.89376418979621       -3.17802328181354        0.89548327708434
H           -0.91040759217962       -3.18127992024879       -0.89988613892669
H           -2.38351809540932       -2.80350805801480        0.01073741420178
H            0.97626936115133       -2.44033999971665       -0.03684092996479
25
 energy: -42.149297699282 gnorm: 0.026121170668 xtb: 6.6.1 (8d0f1dd)
C            3.24842878125193        0.97367070683848        0.04491118749010
N            3.41851445941027       -0.39747689379985        0.01991433346548
C            2.65462785613177       -1.38445557398976       -0.00474990505763
N            1.26758750040893       -1.50300746482097       -0.02301473669734
C            0.18644431764303       -0.69260674828571       -0.01275628491056
C           -0.03448646320245        0.71320737033828       -0.02690747411716
C            0.72193860823401        1.84260396692077       -0.07358363486781
O            0.83669214239678        3.00920965041051       -0.00629376429804
N           -1.44750931795640        0.87414175273717       -0.00840268117885
C           -2.22540089548332        2.09018495755423       -0.00663635490860
C           -2.06618585510081       -0.34181946892796        0.00381530075632
O           -3.23718952147115       -0.58721442745960        0.01617148764931
N           -1.02577000716675       -1.29288648707253       -0.00131866958800
C           -1.31003424251500       -2.70565029858356        0.00393584994485
H            3.69853153828509        1.37443062852331        0.95633200594714
H            3.76511051639567        1.41216208382518       -0.81236072933898
H            2.16316939437410        1.27438690431930        0.01222399851237
H            3.12716493523553       -2.36469332671972       -0.01475758036373
H           -1.58525123469500        2.96618544847231        0.01152888532020
H           -2.85845610187604        2.11715825778340       -0.89646101650619
H           -2.88080132069264        2.09672507003002        0.86725950947151
H           -0.90996613801636       -3.18807940911608        0.89804054335783
H           -0.92984346529951       -3.19150310634027       -0.89718624313905
H           -2.39769056842561       -2.79882728488937        0.01531956360969
H            0.98080659623409       -2.47760776614814       -0.03385197265223
25
 energy: -42.150197254376 gnorm: 0.017199712478 xtb: 6.6.1 (8d0f1dd)
C            3.26135275286284        0.96668624036636        0.04346948248861
N            3.43220379801884       -0.40420123799202        0.02112864628720
C            2.66115379127481       -1.38285013140290       -0.00346455898465
N            1.27131596200585       -1.49690314584328       -0.02176785103143
C            0.18450750770081       -0.68924264598876       -0.01080997804254
C           -0.04665864551279        0.71499243743566       -0.01539554101379
C            0.71467756541460        1.84218999048758       -0.03731225130859
O            0.82389283994814        3.00602155920134       -0.04375897249980
N           -1.45611705303397        0.87379143305477       -0.00537334003179
C           -2.22933377559190        2.09174006208159       -0.00478195529337
C           -2.07030586920538       -0.34380328858480        0.00217953216193
O           -3.24008961994176       -0.59256527126072        0.01133607075583
N           -1.02710566706677       -1.29242567537103       -0.00239079899305
C           -1.31109605956079       -2.70500366671593        0.00202640475998
H            3.70267819482017        1.37315430758433        0.95643849230327
H            3.77479498428281        1.40933639133708       -0.81334513951261
H            2.17255825054359        1.27312284163444        0.00586785170404
H            3.12684570701391       -2.36328804540982       -0.01451593160060
H           -1.58455479071410        2.96463583833175        0.01585243503977
H           -2.85819456432966        2.12232595156000       -0.89703169306256
H           -2.88569685188564        2.10011699546956        0.86775312687694
H           -0.91244040692143       -3.18798962121438        0.89640792433814
H           -0.93079957122642       -3.19081609367675       -0.89891210308754
H           -2.39848807741385       -2.79889250030120        0.01276415075096
H            0.98533111261816       -2.47189418318331       -0.03519238510377
25
 energy: -42.150741712702 gnorm: 0.014179250329 xtb: 6.6.1 (8d0f1dd)
C            3.25796062551867        0.97025167235389        0.04276341637100
N            3.42825472913891       -0.39634001303188        0.02083260245909
C            2.66478155027612       -1.38048662914379       -0.00356063962769
N            1.27560532130626       -1.50609595213397       -0.02075421921119
C            0.18546794608219       -0.69730170108361       -0.00959179921691
C           -0.04551710856151        0.70532835683674       -0.01048233015794
C            0.72247891407251        1.83151631810575       -0.02097834720118
O            0.79660912226777        3.00153102730269       -0.05679217393960
N           -1.45173053054045        0.87067183794850       -0.00432679767460
C           -2.21512860387567        2.09407830979465       -0.00462539282157
C           -2.06901018366838       -0.34478664755088        0.00111853315209
O           -3.23941338501650       -0.59013996910986        0.00883852916738
N           -1.02836331290151       -1.29715007026234       -0.00264435186543
C           -1.31943935405669       -2.70806192854107        0.00158192288426
H            3.69250476437958        1.38331681990521        0.95609356980721
H            3.76106100975132        1.41920140137788       -0.81699651181389
H            2.16012988374776        1.28541571085674        0.00645431122662
H            3.13927121196776       -2.35496304078462       -0.01522937057412
H           -1.56286719075790        2.96165959696344        0.01885226105270
H           -2.83971961353436        2.13136991240644       -0.89921254745764
H           -2.87260878464645        2.10707792112410        0.86644928008427
H           -0.92383678978379       -3.19344558773729        0.89588413858300
H           -0.94184240966520       -3.19575470748098       -0.89929034407107
H           -2.40721514698617       -2.79670346893685        0.01215724929440
H            0.99299884958582       -2.48195062757933       -0.03536937054863
25
 energy: -42.151499818925 gnorm: 0.014178085620 xtb: 6.6.1 (8d0f1dd)
C            3.24558093490576        0.98329566170556        0.04223703159864
N            3.41168875917578       -0.37306044436396        0.01866092391818
C            2.66744457305198       -1.37319940226402       -0.00465501639724
N            1.28202562276634       -1.52612606059841       -0.01817812196116
C            0.18592272845713       -0.71580517579724       -0.00702506437221
C           -0.04049250969169        0.68336638498909       -0.00644648958771
C            0.75498335420856        1.79973004567594       -0.00744971344299
O            0.75201911691514        2.97913853852137       -0.06483697423653
N           -1.43964272829904        0.86448949874709       -0.00353991996083
C           -2.18286471041994        2.09892738835005       -0.00539424710113
C           -2.06552061022105       -0.34658829094798        0.00032683434111
O           -3.23766274145178       -0.58407244692123        0.00640985970120
N           -1.03182981522070       -1.30841993372584       -0.00222748878830
C           -1.33764112889001       -2.71582107272752        0.00131793733750
H            3.67022528129755        1.40803374681077        0.95530385360067
H            3.72497791986493        1.44493033545678       -0.82516307268668
H            2.12554326753921        1.31808109875483        0.01399569567055
H            3.16454656853398       -2.33468160647984       -0.01759059242419
H           -1.51480984616438        2.95511263934489        0.02364924183192
H           -2.79972509301769        2.15014488402427       -0.90421189217040
H           -2.84298735805635        2.12178803388327        0.86279488724395
H           -0.94733899826616       -3.20632182354755        0.89490110047754
H           -0.96546902520269       -3.20725244940408       -0.89949969432852
H           -2.42614624157247       -2.79351817501769        0.01188892109251
H            1.00760419385767       -2.50393283286896       -0.03409638145535
25
 energy: -42.151806030138 gnorm: 0.008775418557 xtb: 6.6.1 (8d0f1dd)
C            3.24541770785830        0.98645261851963        0.04207056501360
N            3.40511851046886       -0.36474559736183        0.01637506500106
C            2.66567411691992       -1.36948934477114       -0.00564900558973
N            1.28367159153110       -1.52843203873117       -0.01691367199605
C            0.18465483168320       -0.71949344842571       -0.00676274758979
C           -0.04153799825790        0.67845714337921       -0.00887463024138
C            0.77555939243832        1.78619311845732       -0.01437775838970
O            0.73649549166555        2.96685201667127       -0.05165728354550
N           -1.43643949152769        0.86284016804031       -0.00494046987805
C           -2.17284802341528        2.10042792093327       -0.00711857024520
C           -2.06453329303671       -0.34803154082225        0.00030305758535
O           -3.23705423240117       -0.58456236214559        0.00710154762124
N           -1.03292620067858       -1.31236830172110       -0.00156957109778
C           -1.34286103749816       -2.71872812904932        0.00221444651553
H            3.66631271781464        1.41593764736727        0.95473784374992
H            3.71061650817004        1.45420927378714       -0.83005992451509
H            2.10990193965822        1.32604428434133        0.02121749659936
H            3.16961314365981       -2.32716205772610       -0.01953023502930
H           -1.49785306629139        2.95125488873582        0.02461995773831
H           -2.78668288571888        2.15776700101943       -0.90754348685251
H           -2.83465604008657        2.12732470365402        0.85965437198587
H           -0.95357825192300       -3.21079107821096        0.89529319274317
H           -0.97245087154013       -3.21144952791136       -0.89860200046757
H           -2.43150228857867       -2.79340298168120        0.01317054330886
H            1.01231924318628       -2.50686583474874       -0.03198711452404
