25
 energy: 67.931145986045 xtb: 6.6.1 (8d0f1dd)
C            3.68026836418898        0.89711339880275        0.17723045498212
N            2.69060717153167       -0.12343277983051        0.13182265351595
C            2.94225720182207       -1.43990137263869       -0.03413481947376
N            1.77014542668540       -2.12145797402729       -0.08510249568617
C            0.70073841524432       -1.23574102013269       -0.02265085984502
C            1.29977189410019        0.07448725176571        0.12269679688777
C            0.63669274671214        1.22043411260586        0.13155480185889
O            0.40321834123063        2.35617338789190        0.40971648877639
N           -2.63770420857067        1.54516368443384       -0.02166592524341
C           -3.32321719503247        2.72810934278135       -0.31100088979545
C           -2.88500081492499        0.46089713340293        0.37486204770021
O           -3.08193253342567       -0.60913882883614        0.75533597931787
N           -0.54808949951657       -1.40746578901070       -0.04459784550675
C           -1.16248711089835       -2.68781794635565       -0.14644205125283
H            3.53381923291272        1.60066245696623        0.99692782255728
H            4.57844011487497        0.33652501868657        0.39636389051010
H            3.79560681479590        1.47865976499838       -0.74356456331168
H            3.89262636805155       -1.88301914643076       -0.15205013162494
H           -2.52257224788442        3.44438410715565       -0.45701427735417
H           -3.91934241871076        2.59509645084631       -1.21142136530540
H           -3.98336470922172        2.98830977042460        0.51508678476208
H           -0.47012702036325       -3.42540671078371        0.20115980380249
H           -1.46084524723568       -2.86186079186553       -1.18746271324329
H           -2.07389864793941       -2.74221488742959        0.48444266681263
H            1.68095259626203       -3.10458985012411       -0.21871560323471
