      -----------------------------------------------------------      
     |                   =====================                   |     
     |                           x T B                           |     
     |                   =====================                   |     
     |                         S. Grimme                         |     
     |          Mulliken Center for Theoretical Chemistry        |     
     |                    University of Bonn                     |     
      -----------------------------------------------------------      

   * xtb version 6.6.1 (8d0f1dd) compiled by 'conda@1efc2f54142f' on 2023-08-01

   xtb is free software: you can redistribute it and/or modify it under
   the terms of the GNU Lesser General Public License as published by
   the Free Software Foundation, either version 3 of the License, or
   (at your option) any later version.
   
   xtb is distributed in the hope that it will be useful,
   but WITHOUT ANY WARRANTY; without even the implied warranty of
   MERCHANTABILITY or FITNESS FOR A PARTICULAR PURPOSE.  See the
   GNU Lesser General Public License for more details.
   
   Cite this work as:
   * C. Bannwarth, E. Caldeweyher, S. Ehlert, A. Hansen, P. Pracht,
     J. Seibert, S. Spicher, S. Grimme, WIREs Comput. Mol. Sci., 2020, 11,
     e01493. DOI: 10.1002/wcms.1493
   
   for GFN2-xTB:
   * C. Bannwarth, S. Ehlert and S. Grimme., J. Chem. Theory Comput., 2019,
     15, 1652-1671. DOI: 10.1021/acs.jctc.8b01176
   for GFN1-xTB:
   * S. Grimme, C. Bannwarth, P. Shushkov, J. Chem. Theory Comput., 2017,
     13, 1989-2009. DOI: 10.1021/acs.jctc.7b00118
   for GFN0-xTB:
   * P. Pracht, E. Caldeweyher, S. Ehlert, S. Grimme, ChemRxiv, 2019, preprint.
     DOI: 10.26434/chemrxiv.8326202.v1
   for GFN-FF:
   * S. Spicher and S. Grimme, Angew. Chem. Int. Ed., 2020, 59, 15665-15673.
     DOI: 10.1002/anie.202004239
   
   for ALPB and GBSA implicit solvation:
   * S. Ehlert, M. Stahn, S. Spicher, S. Grimme, J. Chem. Theory Comput.,
     2021, 17, 4250-4261. DOI: 10.1021/acs.jctc.1c00471
   
   for DFT-D4:
   * E. Caldeweyher, C. Bannwarth and S. Grimme, J. Chem. Phys., 2017,
     147, 034112. DOI: 10.1063/1.4993215
   * E. Caldeweyher, S. Ehlert, A. Hansen, H. Neugebauer, S. Spicher,
     C. Bannwarth and S. Grimme, J. Chem. Phys., 2019, 150, 154122.
     DOI: 10.1063/1.5090222
   * E. Caldeweyher, J.-M. Mewes, S. Ehlert and S. Grimme, Phys. Chem. Chem. Phys.
     2020, 22, 8499-8512. DOI: 10.1039/D0CP00502A
   
   for sTDA-xTB:
   * S. Grimme and C. Bannwarth, J. Chem. Phys., 2016, 145, 054103.
     DOI: 10.1063/1.4959605
   
   in the mass-spec context:
   * V. Asgeirsson, C. Bauer and S. Grimme, Chem. Sci., 2017, 8, 4879.
     DOI: 10.1039/c7sc00601b
   * J. Koopman and S. Grimme, ACS Omega 2019, 4, 12, 15120-15133.
     DOI: 10.1021/acsomega.9b02011
   
   for metadynamics refer to:
   * S. Grimme, J. Chem. Theory Comput., 2019, 155, 2847-2862
     DOI: 10.1021/acs.jctc.9b00143
   
   for SPH calculations refer to:
   * S. Spicher and S. Grimme, J. Chem. Theory Comput., 2021, 17, 1701-1714
     DOI: 10.1021/acs.jctc.0c01306
   
   with help from (in alphabetical order)
   P. Atkinson, C. Bannwarth, F. Bohle, G. Brandenburg, E. Caldeweyher
   M. Checinski, S. Dohm, S. Ehlert, S. Ehrlich, I. Gerasimov, C. Hölzer
   A. Katbashev, J. Koopman, C. Lavigne, S. Lehtola, F. März, M. Müller,
   F. Musil, H. Neugebauer, J. Pisarek, C. Plett, P. Pracht, F. Pultar,
   J. Seibert, P. Shushkov, S. Spicher, M. Stahn, M. Steiner, T. Strunk,
   J. Stückrath, T. Rose, and J. Unsleber
   
 * started run on 2024/04/06 at 11:14:23.001     

           -------------------------------------------------
          |                Calculation Setup                |
           -------------------------------------------------

          program call               : xtb struc.xyz --opt loose --input .xc1 --gfn2
          hostname                   : n-62-30-23
          coordinate file            : struc.xyz
          omp threads                :                     1

   ID    Z sym.   atoms
    1    7 N      1, 17
    2    6 C      2-6, 8, 9, 11-16, 18-23, 25, 26, 28-33
    3    8 O      7, 10, 24, 27
    4    1 H      34-72
constraining bond 24 57 to    3.9000000 Å, actual value:    1.9973468 Å

           -------------------------------------------------
          |                 G F N 2 - x T B                 |
           -------------------------------------------------

        Reference                      10.1021/acs.jctc.8b01176
      * Hamiltonian:
        H0-scaling (s, p, d)           1.850000    2.230000    2.230000
        zeta-weighting                 0.500000
      * Dispersion:
        s8                             2.700000
        a1                             0.520000
        a2                             5.000000
        s9                             5.000000
      * Repulsion:
        kExp                           1.500000    1.000000
        rExp                           1.000000
      * Coulomb:
        alpha                          2.000000
        third order                    shell-resolved
        anisotropic                    true
        a3                             3.000000
        a5                             4.000000
        cn-shift                       1.200000
        cn-exp                         4.000000
        max-rad                        5.000000


          ...................................................
          :                      SETUP                      :
          :.................................................:
          :  # basis functions                 171          :
          :  # atomic orbitals                 171          :
          :  # shells                          105          :
          :  # electrons                       180          :
          :  max. iterations                   250          :
          :  Hamiltonian                  GFN2-xTB          :
          :  restarted?                      false          :
          :  GBSA solvation                  false          :
          :  PC potential                    false          :
          :  electronic temp.         5000.0000000     K    :
          :  accuracy                    1.0000000          :
          :  -> integral cutoff          0.2500000E+02      :
          :  -> integral neglect         0.1000000E-07      :
          :  -> SCF convergence          0.1000000E-05 Eh   :
          :  -> wf. convergence          0.1000000E-03 e    :
          :  Broyden damping             0.4000000          :
          ...................................................

 iter      E             dE          RMSdq      gap      omega  full diag
   1   -100.5973919 -0.100597E+03  0.374E+00    3.20       0.0  T
   2   -100.7362642 -0.138872E+00  0.221E+00    1.08       1.0  T
   3   -100.7049001  0.313641E-01  0.141E+00    3.29       1.0  T
   4   -100.7721690 -0.672689E-01  0.526E-01    1.50       1.0  T
   5   -100.7894292 -0.172602E-01  0.190E-01    1.98       1.0  T
   6   -100.7911978 -0.176856E-02  0.792E-02    1.77       1.0  T
   7   -100.7914750 -0.277198E-03  0.375E-02    1.83       1.0  T
   8   -100.7914914 -0.164582E-04  0.140E-02    1.83       1.0  T
   9   -100.7914976 -0.616739E-05  0.474E-03    1.82       2.5  T
  10   -100.7914988 -0.118227E-05  0.172E-03    1.82       6.8  T
  11   -100.7914989 -0.139928E-06  0.766E-04    1.82      15.4  T
  12   -100.7914989 -0.773143E-08  0.318E-04    1.82      37.0  T

   *** convergence criteria satisfied after 12 iterations ***

         #    Occupation            Energy/Eh            Energy/eV
      -------------------------------------------------------------
         1        2.0000           -0.8078051             -21.9815
       ...           ...                  ...                  ...
        84        1.9966           -0.5157491             -14.0342
        85        1.9959           -0.5128261             -13.9547
        86        1.9840           -0.4911498             -13.3649
        87        1.9795           -0.4872543             -13.2589
        88        1.9640           -0.4782114             -13.0128
        89        1.8920           -0.4602041             -12.5228
        90        1.8557           -0.4553147             -12.3897 (HOMO)
        91        0.3166           -0.3884132             -10.5693 (LUMO)
        92        0.0218           -0.3434697              -9.3463
        93        0.0041           -0.3169887              -8.6257
        94        0.0034           -0.3139726              -8.5436
        95        0.0029           -0.3112618              -8.4699
       ...           ...                  ...                  ...
       171                          0.5822580              15.8440
      -------------------------------------------------------------
                  HL-Gap            0.0669015 Eh            1.8205 eV
             Fermi-level           -0.4148687 Eh          -11.2892 eV

 SCC (total)                   0 d,  0 h,  0 min,  0.190 sec
 SCC setup                      ...        0 min,  0.001 sec (  0.699%)
 Dispersion                     ...        0 min,  0.002 sec (  1.158%)
 classical contributions        ...        0 min,  0.001 sec (  0.315%)
 integral evaluation            ...        0 min,  0.018 sec (  9.591%)
 iterations                     ...        0 min,  0.097 sec ( 51.277%)
 molecular gradient             ...        0 min,  0.069 sec ( 36.614%)
 printout                       ...        0 min,  0.001 sec (  0.335%)

         :::::::::::::::::::::::::::::::::::::::::::::::::::::
         ::                     SUMMARY                     ::
         :::::::::::::::::::::::::::::::::::::::::::::::::::::
         :: total energy             -98.757752384212 Eh    ::
         :: gradient norm              0.511448880114 Eh/a0 ::
         :: HOMO-LUMO gap              1.820481192090 eV    ::
         ::.................................................::
         :: SCC energy              -100.791498925389 Eh    ::
         :: -> isotropic ES            0.109302908418 Eh    ::
         :: -> anisotropic ES          0.005415138735 Eh    ::
         :: -> anisotropic XC          0.042392697176 Eh    ::
         :: -> dispersion             -0.075527661009 Eh    ::
         :: repulsion energy           1.386151658689 Eh    ::
         :: add. restraining           0.646378529982 Eh    ::
         :: total charge               1.000000000108 e     ::
         :::::::::::::::::::::::::::::::::::::::::::::::::::::

      ----------------------------------------------------------- 
     |                   =====================                   |
     |                        A N C O P T                        |
     |                   =====================                   |
     |               Approximate Normal Coordinate               |
     |                Rational Function Optimizer                |
      ----------------------------------------------------------- 

          ...................................................
          :                      SETUP                      :
          :.................................................:
          :   optimization level             loose          :
          :   max. optcycles                   200          :
          :   ANC micro-cycles                  20          :
          :   degrees of freedom               210          :
          :.................................................:
          :   RF solver                   davidson          :
          :   write xtbopt.log                true          :
          :   linear?                        false          :
          :   energy convergence         0.5000000E-04 Eh   :
          :   grad. convergence          0.4000000E-02 Eh/α :
          :   maxmium RF displ.          1.0000000          :
          :   Hlow (freq-cutoff)         0.1000000E-01      :
          :   Hmax (freq-cutoff)         5.0000000          :
          :   S6 in model hess.         20.0000000          :
          ...................................................

generating ANC from model Hessian ...
Using Lindh-Hessian (1995)
 Shifting diagonal of input Hessian by   0.13322425686051204     
 Lowest  eigenvalues of input Hessian
    0.010000    0.078153    0.000000    0.000000    0.000000    0.000000
    0.000000    0.000000    0.133316    0.133334    0.133442    0.133566
    0.133638    0.134025    0.134254    0.134361    0.134654    0.134996
 Highest eigenvalues
    2.159194    2.169182    2.179465    2.302668    2.310279    2.312300


........................................................................
.............................. CYCLE    1 ..............................
........................................................................

 iter      E             dE          RMSdq      gap      omega  full diag
   1   -100.7914989 -0.100791E+03  0.114E-04    1.82       0.0  T
   2   -100.7914989 -0.678995E-10  0.713E-05    1.82     165.2  T
   3   -100.7914989  0.665210E-10  0.496E-05    1.82     237.5  T
     SCC iter.                  ...        0 min,  0.026 sec
     gradient                   ...        0 min,  0.069 sec
 * total energy  :   -98.7577524 Eh     change       -0.4035485E-08 Eh
   gradient norm :     0.5114503 Eh/α   predicted     0.0000000E+00 (-100.00%)
   displ. norm   :     0.5787145 α      lambda       -0.2661456E+00
   maximum displ.:     0.2313888 α      in ANC's #135, #114, #145, ...

........................................................................
.............................. CYCLE    2 ..............................
........................................................................

 iter      E             dE          RMSdq      gap      omega  full diag
   1   -100.7579532 -0.100758E+03  0.382E-01    1.63       0.0  T
   2   -100.7581036 -0.150356E-03  0.256E-01    1.91       1.0  T
   3   -100.7564723  0.163128E-02  0.196E-01    1.54       1.0  T
   4   -100.7589688 -0.249652E-02  0.778E-02    1.83       1.0  T
   5   -100.7595080 -0.539198E-03  0.123E-02    1.76       1.0  T
   6   -100.7595102 -0.223405E-05  0.826E-03    1.76       1.4  T
   7   -100.7595113 -0.111102E-05  0.271E-03    1.75       4.4  T
   8   -100.7595117 -0.346589E-06  0.951E-04    1.76      12.4  T
   9   -100.7595117 -0.129188E-07  0.484E-04    1.76      24.4  T
     SCC iter.                  ...        0 min,  0.074 sec
     gradient                   ...        0 min,  0.069 sec
 * total energy  :   -98.9701857 Eh     change       -0.2124333E+00 Eh
   gradient norm :     0.2958392 Eh/α   predicted    -0.1776497E+00 ( -16.37%)
   displ. norm   :     0.6390390 α      lambda       -0.1703428E+00
   maximum displ.:     0.2240444 α      in ANC's #2, #135, #114, ...

........................................................................
.............................. CYCLE    3 ..............................
........................................................................

 iter      E             dE          RMSdq      gap      omega  full diag
   1   -100.6973455 -0.100697E+03  0.306E-01    1.63       0.0  T
   2   -100.6972892  0.563786E-04  0.197E-01    1.80       1.0  T
   3   -100.6945162  0.277297E-02  0.179E-01    1.48       1.0  T
   4   -100.6977219 -0.320566E-02  0.393E-02    1.74       1.0  T
   5   -100.6978500 -0.128179E-03  0.103E-02    1.71       1.1  T
   6   -100.6978516 -0.153638E-05  0.611E-03    1.71       1.9  T
   7   -100.6978522 -0.613496E-06  0.275E-03    1.71       4.3  T
   8   -100.6978524 -0.166696E-06  0.885E-04    1.71      13.3  T
   9   -100.6978524 -0.145395E-07  0.394E-04    1.71      29.9  T
     SCC iter.                  ...        0 min,  0.073 sec
     gradient                   ...        0 min,  0.069 sec
 * total energy  :   -99.0986239 Eh     change       -0.1284381E+00 Eh
   gradient norm :     0.1499201 Eh/α   predicted    -0.1199530E+00 (  -6.61%)
   displ. norm   :     0.5943128 α      lambda       -0.8120945E-01
   maximum displ.:     0.2683908 α      in ANC's #2, #114, #67, ...

........................................................................
.............................. CYCLE    4 ..............................
........................................................................

 iter      E             dE          RMSdq      gap      omega  full diag
   1   -100.6405835 -0.100641E+03  0.185E-01    1.73       0.0  T
   2   -100.6409148 -0.331369E-03  0.155E-01    1.57       1.0  T
   3   -100.6412816 -0.366796E-03  0.882E-02    1.74       1.0  T
   4   -100.6413170 -0.353586E-04  0.616E-02    1.60       1.0  T
   5   -100.6416346 -0.317582E-03  0.182E-02    1.67       1.0  T
   6   -100.6416507 -0.161633E-04  0.483E-03    1.66       2.4  T
   7   -100.6416516 -0.922739E-06  0.220E-03    1.66       5.4  T
   8   -100.6416517 -0.102338E-06  0.108E-03    1.66      10.9  T
   9   -100.6416518 -0.108395E-07  0.410E-04    1.66      28.7  T
  10   -100.6416518 -0.440129E-08  0.176E-04    1.66      66.9  T
     SCC iter.                  ...        0 min,  0.081 sec
     gradient                   ...        0 min,  0.069 sec
 * total energy  :   -99.1587383 Eh     change       -0.6011443E-01 Eh
   gradient norm :     0.0766986 Eh/α   predicted    -0.5494727E-01 (  -8.60%)
   displ. norm   :     0.5184919 α      lambda       -0.3616581E-01
   maximum displ.:     0.2564605 α      in ANC's #2, #114, #67, ...

........................................................................
.............................. CYCLE    5 ..............................
........................................................................

 iter      E             dE          RMSdq      gap      omega  full diag
   1   -100.5999703 -0.100600E+03  0.230E-01    1.69       0.0  T
   2   -100.5942742  0.569620E-02  0.298E-01    1.27       1.0  T
   3   -100.6049555 -0.106813E-01  0.903E-02    1.62       1.0  T
   4   -100.6050371 -0.815549E-04  0.633E-02    1.52       1.0  T
   5   -100.6051003 -0.632753E-04  0.460E-02    1.56       1.0  T
   6   -100.6052222 -0.121889E-03  0.774E-03    1.56       1.5  T
   7   -100.6052269 -0.464414E-05  0.309E-03    1.57       3.8  T
   8   -100.6052275 -0.669617E-06  0.123E-03    1.56       9.6  T
   9   -100.6052275 -0.735702E-08  0.759E-04    1.56      15.5  T
  10   -100.6052276 -0.191008E-07  0.226E-04    1.56      52.1  T
     SCC iter.                  ...        0 min,  0.081 sec
     gradient                   ...        0 min,  0.069 sec
 * total energy  :   -99.1849056 Eh     change       -0.2616731E-01 Eh
   gradient norm :     0.0483146 Eh/α   predicted    -0.2294524E-01 ( -12.31%)
   displ. norm   :     0.4273416 α      lambda       -0.1566744E-01
   maximum displ.:     0.2157838 α      in ANC's #2, #114, #54, ...

........................................................................
.............................. CYCLE    6 ..............................
........................................................................

 iter      E             dE          RMSdq      gap      omega  full diag
   1   -100.5838846 -0.100584E+03  0.222E-01    1.52       0.0  T
   2   -100.5771091  0.677555E-02  0.265E-01    1.27       1.0  T
   3   -100.5855646 -0.845554E-02  0.126E-01    1.60       1.0  T
   4   -100.5869169 -0.135230E-02  0.584E-02    1.49       1.0  T
   5   -100.5869584 -0.414801E-04  0.147E-02    1.48       1.0  T
   6   -100.5869724 -0.140390E-04  0.856E-03    1.49       1.4  T
   7   -100.5869788 -0.639585E-05  0.214E-03    1.49       5.5  T
   8   -100.5869790 -0.175829E-06  0.120E-03    1.49       9.8  T
   9   -100.5869791 -0.651591E-07  0.440E-04    1.49      26.8  T
  10   -100.5869791 -0.653382E-08  0.201E-04    1.49      58.6  T
     SCC iter.                  ...        0 min,  0.081 sec
     gradient                   ...        0 min,  0.069 sec
 * total energy  :   -99.1958976 Eh     change       -0.1099204E-01 Eh
   gradient norm :     0.0482787 Eh/α   predicted    -0.9264332E-02 ( -15.72%)
   displ. norm   :     0.3259323 α      lambda       -0.7413627E-02
   maximum displ.:     0.1679940 α      in ANC's #2, #54, #114, ...

........................................................................
.............................. CYCLE    7 ..............................
........................................................................

 iter      E             dE          RMSdq      gap      omega  full diag
   1   -100.5798302 -0.100580E+03  0.175E-01    1.45       0.0  T
   2   -100.5784431  0.138704E-02  0.144E-01    1.36       1.0  T
   3   -100.5786038 -0.160722E-03  0.128E-01    1.48       1.0  T
   4   -100.5801450 -0.154117E-02  0.851E-02    1.43       1.0  T
   5   -100.5805451 -0.400077E-03  0.262E-02    1.45       1.0  T
   6   -100.5806295 -0.843914E-04  0.325E-03    1.46       3.6  T
   7   -100.5806297 -0.211319E-06  0.218E-03    1.46       5.4  T
   8   -100.5806300 -0.270600E-06  0.937E-04    1.46      12.6  T
   9   -100.5806300 -0.186899E-07  0.510E-04    1.46      23.1  T
     SCC iter.                  ...        0 min,  0.073 sec
     gradient                   ...        0 min,  0.069 sec
 * total energy  :   -99.2014916 Eh     change       -0.5594010E-02 Eh
   gradient norm :     0.0538352 Eh/α   predicted    -0.4100698E-02 ( -26.69%)
   displ. norm   :     0.3628954 α      lambda       -0.7380855E-02
   maximum displ.:     0.1965070 α      in ANC's #2, #45, #113, ...

........................................................................
.............................. CYCLE    8 ..............................
........................................................................

 iter      E             dE          RMSdq      gap      omega  full diag
   1   -100.5781504 -0.100578E+03  0.222E-01    1.37       0.0  T
   2   -100.5766731  0.147734E-02  0.193E-01    1.43       1.0  T
   3   -100.5781414 -0.146832E-02  0.141E-01    1.43       1.0  T
   4   -100.5772430  0.898400E-03  0.106E-01    1.32       1.0  T
   5   -100.5789083 -0.166530E-02  0.339E-02    1.41       1.0  T
   6   -100.5790620 -0.153744E-03  0.647E-03    1.42       1.8  T
   7   -100.5790655 -0.341685E-05  0.291E-03    1.41       4.0  T
   8   -100.5790656 -0.105629E-06  0.151E-03    1.41       7.8  T
   9   -100.5790656 -0.368034E-07  0.779E-04    1.41      15.1  T
  10   -100.5790656 -0.320036E-07  0.361E-04    1.41      32.7  T
     SCC iter.                  ...        0 min,  0.081 sec
     gradient                   ...        0 min,  0.069 sec
 * total energy  :   -99.2075623 Eh     change       -0.6070652E-02 Eh
   gradient norm :     0.0631602 Eh/α   predicted    -0.4176432E-02 ( -31.20%)
   displ. norm   :     0.5411428 α      lambda       -0.1223801E-01
   maximum displ.:     0.3042315 α      in ANC's #2, #45, #46, ...

........................................................................
.............................. CYCLE    9 ..............................
........................................................................

 iter      E             dE          RMSdq      gap      omega  full diag
   1   -100.5742468 -0.100574E+03  0.461E-01    1.19       0.0  T
   2   -100.5322450  0.420019E-01  0.733E-01    1.30       1.0  T
   3   -100.5701284 -0.378834E-01  0.348E-01    1.17       1.0  T
   4   -100.5716493 -0.152094E-02  0.274E-01    1.16       1.0  T
   5   -100.5814173 -0.976791E-02  0.229E-02    1.21       1.0  T
   6   -100.5814437 -0.264022E-04  0.113E-02    1.21       1.0  T
   7   -100.5814480 -0.430220E-05  0.675E-03    1.21       1.7  T
   8   -100.5814477  0.287531E-06  0.472E-03    1.21       2.5  T
   9   -100.5814497 -0.199529E-05  0.181E-03    1.21       6.5  T
  10   -100.5814498 -0.131423E-06  0.104E-03    1.21      11.4  T
  11   -100.5814498 -0.175487E-07  0.559E-04    1.21      21.1  T
  12   -100.5814498 -0.237620E-07  0.122E-04    1.21      96.5  T
     SCC iter.                  ...        0 min,  0.097 sec
     gradient                   ...        0 min,  0.069 sec
 * total energy  :   -99.2182768 Eh     change       -0.1071452E-01 Eh
   gradient norm :     0.0746252 Eh/α   predicted    -0.7910958E-02 ( -26.17%)
   displ. norm   :     0.6489802 α      lambda       -0.1881297E-01
   maximum displ.:     0.3502963 α      in ANC's #2, #45, #46, ...

........................................................................
.............................. CYCLE   10 ..............................
........................................................................

 iter      E             dE          RMSdq      gap      omega  full diag
   1   -100.5309434 -0.100531E+03  0.907E-01    0.89       0.0  T
   2   -100.2848295  0.246114E+00  0.175E+00    1.02       1.0  T
   3   -100.5777923 -0.292963E+00  0.308E-01    0.67       1.0  T
   4   -100.5694069  0.838539E-02  0.381E-01    0.69       1.0  T
   5   -100.5875407 -0.181338E-01  0.103E-01    0.68       1.0  T
   6   -100.5877362 -0.195472E-03  0.618E-02    0.68       1.0  T
   7   -100.5881568 -0.420583E-03  0.212E-02    0.68       1.0  T
   8   -100.5881816 -0.248350E-04  0.105E-02    0.68       1.1  T
   9   -100.5881827 -0.112923E-05  0.966E-03    0.68       1.2  T
  10   -100.5881862 -0.351442E-05  0.637E-03    0.68       1.9  T
  11   -100.5881896 -0.337675E-05  0.186E-03    0.68       6.3  T
  12   -100.5881898 -0.208898E-06  0.671E-04    0.68      17.6  T
  13   -100.5881899 -0.242516E-07  0.330E-04    0.68      35.7  T
     SCC iter.                  ...        0 min,  0.104 sec
     gradient                   ...        0 min,  0.069 sec
 * total energy  :   -99.2294115 Eh     change       -0.1113473E-01 Eh
   gradient norm :     0.0690975 Eh/α   predicted    -0.1336827E-01 (  20.06%)
   displ. norm   :     0.1484023 α      lambda       -0.7578884E-02
   maximum displ.:     0.0744688 α      in ANC's #113, #88, #1, ...

........................................................................
.............................. CYCLE   11 ..............................
........................................................................

 iter      E             dE          RMSdq      gap      omega  full diag
   1   -100.5969797 -0.100597E+03  0.129E-01    0.64       0.0  T
   2   -100.5953098  0.166986E-02  0.137E-01    0.64       1.0  T
   3   -100.5941585  0.115131E-02  0.174E-01    0.66       1.0  T
   4   -100.5966002 -0.244167E-02  0.624E-02    0.65       1.0  T
   5   -100.5971114 -0.511258E-03  0.517E-03    0.64       2.3  T
   6   -100.5971124 -0.939488E-06  0.317E-03    0.64       3.7  T
   7   -100.5971126 -0.214736E-06  0.230E-03    0.64       5.1  T
   8   -100.5971130 -0.365365E-06  0.775E-04    0.64      15.2  T
   9   -100.5971130 -0.352764E-07  0.222E-04    0.64      53.2  T
     SCC iter.                  ...        0 min,  0.072 sec
     gradient                   ...        0 min,  0.069 sec
 * total energy  :   -99.2359144 Eh     change       -0.6502905E-02 Eh
   gradient norm :     0.0498230 Eh/α   predicted    -0.3872902E-02 ( -40.44%)
   displ. norm   :     0.3533247 α      lambda       -0.1382626E-01
   maximum displ.:     0.1665358 α      in ANC's #113, #88, #135, ...

........................................................................
.............................. CYCLE   12 ..............................
........................................................................

 iter      E             dE          RMSdq      gap      omega  full diag
   1   -100.6032022 -0.100603E+03  0.399E-01    0.56       0.0  T
   2   -100.5407889  0.624132E-01  0.812E-01    0.64       1.0  T
   3   -100.6002102 -0.594213E-01  0.317E-01    0.54       1.0  T
   4   -100.5978147  0.239552E-02  0.293E-01    0.54       1.0  T
   5   -100.6086699 -0.108552E-01  0.122E-02    0.49       1.0  T
   6   -100.6086702 -0.329893E-06  0.957E-03    0.49       1.2  T
   7   -100.6086743 -0.402431E-05  0.588E-03    0.49       2.0  T
   8   -100.6086765 -0.227602E-05  0.182E-03    0.49       6.5  T
   9   -100.6086768 -0.288507E-06  0.854E-04    0.49      13.8  T
  10   -100.6086769 -0.302396E-07  0.447E-04    0.49      26.4  T
     SCC iter.                  ...        0 min,  0.079 sec
     gradient                   ...        0 min,  0.070 sec
 * total energy  :   -99.2433943 Eh     change       -0.7479803E-02 Eh
   gradient norm :     0.0273445 Eh/α   predicted    -0.7776164E-02 (   3.96%)
   displ. norm   :     0.1804140 α      lambda       -0.2053790E-02
   maximum displ.:     0.0940628 α      in ANC's #2, #1, #113, ...

........................................................................
.............................. CYCLE   13 ..............................
........................................................................

 iter      E             dE          RMSdq      gap      omega  full diag
   1   -100.6085553 -0.100609E+03  0.199E-01    0.52       0.0  T
   2   -100.5675775  0.409778E-01  0.640E-01    0.71       1.0  T
   3   -100.6110470 -0.434695E-01  0.833E-02    0.53       1.0  T
   4   -100.6111950 -0.148091E-03  0.718E-02    0.52       1.0  T
   5   -100.6116079 -0.412881E-03  0.283E-02    0.53       1.0  T
   6   -100.6117016 -0.936895E-04  0.101E-02    0.53       1.2  T
   7   -100.6117101 -0.846273E-05  0.352E-03    0.53       3.3  T
   8   -100.6117106 -0.490993E-06  0.211E-03    0.53       5.6  T
   9   -100.6117107 -0.127004E-06  0.894E-04    0.53      13.2  T
  10   -100.6117108 -0.749785E-07  0.236E-04    0.53      49.9  T
     SCC iter.                  ...        0 min,  0.080 sec
     gradient                   ...        0 min,  0.070 sec
 * total energy  :   -99.2440503 Eh     change       -0.6560770E-03 Eh
   gradient norm :     0.0251147 Eh/α   predicted    -0.1060325E-02 (  61.62%)
   displ. norm   :     0.1106181 α      lambda       -0.1289146E-02
   maximum displ.:     0.0698919 α      in ANC's #1, #88, #176, ...

........................................................................
.............................. CYCLE   14 ..............................
........................................................................

 iter      E             dE          RMSdq      gap      omega  full diag
   1   -100.6120663 -0.100612E+03  0.136E-01    0.53       0.0  T
   2   -100.5936726  0.183938E-01  0.446E-01    0.50       1.0  T
   3   -100.6134148 -0.197423E-01  0.441E-02    0.49       1.0  T
   4   -100.6133075  0.107329E-03  0.510E-02    0.50       1.0  T
   5   -100.6136032 -0.295741E-03  0.109E-02    0.49       1.1  T
   6   -100.6136088 -0.551856E-05  0.472E-03    0.49       2.5  T
   7   -100.6136115 -0.269397E-05  0.111E-03    0.49      10.6  T
   8   -100.6136115 -0.576901E-08  0.896E-04    0.49      13.2  T
   9   -100.6136115 -0.381201E-07  0.481E-04    0.49      24.5  T
     SCC iter.                  ...        0 min,  0.072 sec
     gradient                   ...        0 min,  0.075 sec
 * total energy  :   -99.2450876 Eh     change       -0.1037295E-02 Eh
   gradient norm :     0.0155786 Eh/α   predicted    -0.6524653E-03 ( -37.10%)
   displ. norm   :     0.3221220 α      lambda       -0.2171666E-02
   maximum displ.:     0.2549460 α      in ANC's #1, #88, #74, ...

........................................................................
.............................. CYCLE   15 ..............................
........................................................................

 iter      E             dE          RMSdq      gap      omega  full diag
   1   -100.6116006 -0.100612E+03  0.249E-01    0.54       0.0  T
   2   -100.5667818  0.448189E-01  0.703E-01    0.49       1.0  T
   3   -100.6151216 -0.483398E-01  0.984E-02    0.45       1.0  T
   4   -100.6135693  0.155222E-02  0.138E-01    0.48       1.0  T
   5   -100.6158428 -0.227345E-02  0.298E-02    0.45       1.0  T
   6   -100.6159065 -0.637565E-04  0.105E-02    0.45       1.1  T
   7   -100.6159201 -0.135532E-04  0.287E-03    0.45       4.1  T
   8   -100.6159204 -0.334334E-06  0.191E-03    0.45       6.2  T
   9   -100.6159205 -0.900644E-07  0.932E-04    0.45      12.7  T
  10   -100.6159206 -0.670104E-07  0.334E-04    0.45      35.3  T
     SCC iter.                  ...        0 min,  0.081 sec
     gradient                   ...        0 min,  0.069 sec
 * total energy  :   -99.2466804 Eh     change       -0.1592742E-02 Eh
   gradient norm :     0.0234139 Eh/α   predicted    -0.1198501E-02 ( -24.75%)
   displ. norm   :     0.4233561 α      lambda       -0.2201409E-02
   maximum displ.:     0.3396004 α      in ANC's #1, #2, #75, ...

........................................................................
.............................. CYCLE   16 ..............................
........................................................................

 iter      E             dE          RMSdq      gap      omega  full diag
   1   -100.6131453 -0.100613E+03  0.244E-01    0.55       0.0  T
   2   -100.5821643  0.309810E-01  0.585E-01    0.38       1.0  T
   3   -100.6152587 -0.330944E-01  0.122E-01    0.47       1.0  T
   4   -100.6134273  0.183135E-02  0.158E-01    0.49       1.0  T
   5   -100.6163038 -0.287641E-02  0.388E-02    0.45       1.0  T
   6   -100.6164424 -0.138623E-03  0.973E-03    0.45       1.2  T
   7   -100.6164530 -0.105950E-04  0.313E-03    0.45       3.8  T
   8   -100.6164533 -0.353981E-06  0.213E-03    0.45       5.5  T
   9   -100.6164535 -0.200765E-06  0.858E-04    0.45      13.7  T
  10   -100.6164536 -0.576381E-07  0.262E-04    0.45      45.1  T
     SCC iter.                  ...        0 min,  0.081 sec
     gradient                   ...        0 min,  0.069 sec
 * total energy  :   -99.2483579 Eh     change       -0.1677497E-02 Eh
   gradient norm :     0.0365374 Eh/α   predicted    -0.1297983E-02 ( -22.62%)
   displ. norm   :     0.3977246 α      lambda       -0.3047271E-02
   maximum displ.:     0.2201479 α      in ANC's #1, #2, #75, ...

........................................................................
.............................. CYCLE   17 ..............................
........................................................................

 iter      E             dE          RMSdq      gap      omega  full diag
   1   -100.6159457 -0.100616E+03  0.224E-01    0.58       0.0  T
   2   -100.5892271  0.267186E-01  0.539E-01    0.35       1.0  T
   3   -100.6183018 -0.290747E-01  0.987E-02    0.48       1.0  T
   4   -100.6156528  0.264899E-02  0.162E-01    0.53       1.0  T
   5   -100.6188112 -0.315843E-02  0.259E-02    0.47       1.0  T
   6   -100.6188742 -0.629487E-04  0.790E-03    0.48       1.5  T
   7   -100.6188816 -0.740408E-05  0.229E-03    0.48       5.2  T
   8   -100.6188819 -0.259332E-06  0.142E-03    0.48       8.3  T
   9   -100.6188819 -0.460006E-07  0.717E-04    0.48      16.4  T
  10   -100.6188820 -0.474486E-07  0.224E-04    0.48      52.7  T
     SCC iter.                  ...        0 min,  0.081 sec
     gradient                   ...        0 min,  0.069 sec
 * total energy  :   -99.2502396 Eh     change       -0.1881698E-02 Eh
   gradient norm :     0.0381692 Eh/α   predicted    -0.1764653E-02 (  -6.22%)
   displ. norm   :     0.4211811 α      lambda       -0.3128281E-02
   maximum displ.:     0.3524685 α      in ANC's #1, #2, #75, ...

........................................................................
.............................. CYCLE   18 ..............................
........................................................................

 iter      E             dE          RMSdq      gap      omega  full diag
   1   -100.6165362 -0.100617E+03  0.127E-01    0.46       0.0  T
   2   -100.6153704  0.116582E-02  0.141E-01    0.54       1.0  T
   3   -100.6157924 -0.422019E-03  0.103E-01    0.44       1.0  T
   4   -100.6155642  0.228156E-03  0.953E-02    0.46       1.0  T
   5   -100.6166316 -0.106737E-02  0.262E-02    0.49       1.0  T
   6   -100.6167137 -0.820994E-04  0.370E-03    0.48       3.2  T
   7   -100.6167144 -0.657479E-06  0.242E-03    0.48       4.9  T
   8   -100.6167148 -0.390391E-06  0.970E-04    0.48      12.1  T
   9   -100.6167148 -0.251171E-07  0.345E-04    0.48      34.2  T
     SCC iter.                  ...        0 min,  0.073 sec
     gradient                   ...        0 min,  0.071 sec
 * total energy  :   -99.2518467 Eh     change       -0.1607181E-02 Eh
   gradient norm :     0.0338451 Eh/α   predicted    -0.1841614E-02 (  14.59%)
   displ. norm   :     0.2660136 α      lambda       -0.5374462E-02
   maximum displ.:     0.1267752 α      in ANC's #2, #88, #54, ...

........................................................................
.............................. CYCLE   19 ..............................
........................................................................

 iter      E             dE          RMSdq      gap      omega  full diag
   1   -100.6295782 -0.100630E+03  0.184E-01    0.44       0.0  T
   2   -100.6230481  0.653017E-02  0.283E-01    0.63       1.0  T
   3   -100.6284857 -0.543758E-02  0.156E-01    0.45       1.0  T
   4   -100.6292721 -0.786489E-03  0.111E-01    0.46       1.0  T
   5   -100.6302719 -0.999798E-03  0.605E-02    0.51       1.0  T
   6   -100.6306757 -0.403807E-03  0.631E-03    0.49       1.9  T
   7   -100.6306779 -0.214639E-05  0.371E-03    0.49       3.2  T
   8   -100.6306788 -0.905520E-06  0.152E-03    0.49       7.8  T
   9   -100.6306789 -0.553523E-07  0.881E-04    0.49      13.4  T
  10   -100.6306789 -0.596947E-07  0.237E-04    0.49      49.6  T
     SCC iter.                  ...        0 min,  0.081 sec
     gradient                   ...        0 min,  0.069 sec
 * total energy  :   -99.2536561 Eh     change       -0.1809394E-02 Eh
   gradient norm :     0.0479974 Eh/α   predicted    -0.2877397E-02 (  59.03%)
   displ. norm   :     0.2959973 α      lambda       -0.4250343E-02
   maximum displ.:     0.1632058 α      in ANC's #1, #2, #75, ...

........................................................................
.............................. CYCLE   20 ..............................
........................................................................

 iter      E             dE          RMSdq      gap      omega  full diag
   1   -100.6261681 -0.100626E+03  0.247E-01    0.62       0.0  T
   2   -100.5888107  0.373574E-01  0.632E-01    0.33       1.0  T
   3   -100.6296569 -0.408463E-01  0.104E-01    0.48       1.0  T
   4   -100.6281360  0.152092E-02  0.145E-01    0.54       1.0  T
   5   -100.6305056 -0.236955E-02  0.216E-02    0.49       1.0  T
   6   -100.6305424 -0.368192E-04  0.815E-03    0.49       1.4  T
   7   -100.6305502 -0.780261E-05  0.182E-03    0.49       6.5  T
   8   -100.6305506 -0.384549E-06  0.670E-04    0.49      17.6  T
   9   -100.6305506 -0.106324E-07  0.328E-04    0.49      35.9  T
     SCC iter.                  ...        0 min,  0.074 sec
     gradient                   ...        0 min,  0.069 sec
 * total energy  :   -99.2556978 Eh     change       -0.2041711E-02 Eh
   gradient norm :     0.0329398 Eh/α   predicted    -0.2311374E-02 (  13.21%)
   displ. norm   :     0.1173713 α      lambda       -0.1788907E-02
   maximum displ.:     0.0714035 α      in ANC's #1, #43, #54, ...
 * RMSD in coord.:     0.5018890 α      energy gain  -0.4979455E+00 Eh

generating ANC from model Hessian ...
Using Lindh-Hessian (1995)
 Shifting diagonal of input Hessian by    1.0145899349800376E-002
 Lowest  eigenvalues of input Hessian
    0.010000    0.010131    0.000000    0.000000    0.000000    0.000000
    0.000000    0.000000    0.010197    0.010219    0.010296    0.010409
    0.010477    0.010762    0.010967    0.011080    0.011174    0.011678
 Highest eigenvalues
    1.973787    2.041731    2.105087    2.117602    2.169156    2.181919


........................................................................
.............................. CYCLE   21 ..............................
........................................................................

 iter      E             dE          RMSdq      gap      omega  full diag
   1   -100.6308636 -0.100631E+03  0.762E-02    0.52       0.0  T
   2   -100.6289515  0.191212E-02  0.156E-01    0.41       1.0  T
   3   -100.6310236 -0.207210E-02  0.395E-02    0.49       1.0  T
   4   -100.6307262  0.297396E-03  0.578E-02    0.50       1.0  T
   5   -100.6311252 -0.398984E-03  0.157E-02    0.48       1.0  T
   6   -100.6311466 -0.213805E-04  0.238E-03    0.49       4.9  T
   7   -100.6311468 -0.194639E-06  0.137E-03    0.49       8.6  T
   8   -100.6311468 -0.382071E-07  0.875E-04    0.49      13.5  T
   9   -100.6311469 -0.326436E-07  0.441E-04    0.49      26.7  T
     SCC iter.                  ...        0 min,  0.073 sec
     gradient                   ...        0 min,  0.069 sec
 * total energy  :   -99.2570257 Eh     change       -0.1327836E-02 Eh
   gradient norm :     0.0217270 Eh/α   predicted     0.0000000E+00 (-100.00%)
   displ. norm   :     0.3844931 α      lambda       -0.3614938E-02
   maximum displ.:     0.2795946 α      in ANC's #27, #24, #29, ...

........................................................................
.............................. CYCLE   22 ..............................
........................................................................

 iter      E             dE          RMSdq      gap      omega  full diag
   1   -100.6310206 -0.100631E+03  0.206E-01    0.51       0.0  T
   2   -100.6303162  0.704422E-03  0.144E-01    0.44       1.0  T
   3   -100.6236796  0.663662E-02  0.272E-01    0.61       1.0  T
   4   -100.6298752 -0.619563E-02  0.100E-01    0.52       1.0  T
   5   -100.6311109 -0.123569E-02  0.121E-02    0.49       1.0  T
   6   -100.6311291 -0.181497E-04  0.287E-03    0.49       4.1  T
   7   -100.6311295 -0.433282E-06  0.140E-03    0.49       8.4  T
   8   -100.6311296 -0.685267E-07  0.700E-04    0.49      16.8  T
   9   -100.6311296 -0.288047E-07  0.257E-04    0.49      45.8  T
     SCC iter.                  ...        0 min,  0.073 sec
     gradient                   ...        0 min,  0.074 sec
 * total energy  :   -99.2600351 Eh     change       -0.3009413E-02 Eh
   gradient norm :     0.0145365 Eh/α   predicted    -0.2078269E-02 ( -30.94%)
   displ. norm   :     0.5843396 α      lambda       -0.3926853E-02
   maximum displ.:     0.4158685 α      in ANC's #27, #24, #29, ...

........................................................................
.............................. CYCLE   23 ..............................
........................................................................

 iter      E             dE          RMSdq      gap      omega  full diag
   1   -100.6264475 -0.100626E+03  0.300E-01    0.53       0.0  T
   2   -100.6214831  0.496440E-02  0.269E-01    0.38       1.0  T
   3   -100.6146928  0.679032E-02  0.350E-01    0.56       1.0  T
   4   -100.6220274 -0.733461E-02  0.215E-01    0.60       1.0  T
   5   -100.6270271 -0.499977E-02  0.196E-02    0.49       1.0  T
   6   -100.6270661 -0.389109E-04  0.810E-03    0.49       1.5  T
   7   -100.6270695 -0.340206E-05  0.416E-03    0.49       2.8  T
   8   -100.6270705 -0.102530E-05  0.143E-03    0.49       8.2  T
   9   -100.6270705 -0.462211E-07  0.702E-04    0.49      16.8  T
  10   -100.6270706 -0.510533E-07  0.226E-04    0.49      52.1  T
     SCC iter.                  ...        0 min,  0.081 sec
     gradient                   ...        0 min,  0.069 sec
 * total energy  :   -99.2624418 Eh     change       -0.2406675E-02 Eh
   gradient norm :     0.0258647 Eh/α   predicted    -0.2633846E-02 (   9.44%)
   displ. norm   :     0.3082512 α      lambda       -0.2174203E-02
   maximum displ.:     0.1635762 α      in ANC's #27, #19, #1, ...

........................................................................
.............................. CYCLE   24 ..............................
........................................................................

 iter      E             dE          RMSdq      gap      omega  full diag
   1   -100.6318100 -0.100632E+03  0.103E-01    0.51       0.0  T
   2   -100.6312050  0.605006E-03  0.106E-01    0.45       1.0  T
   3   -100.6311954  0.964100E-05  0.859E-02    0.52       1.0  T
   4   -100.6310976  0.977271E-04  0.797E-02    0.52       1.0  T
   5   -100.6318931 -0.795476E-03  0.685E-03    0.49       1.7  T
   6   -100.6318980 -0.493427E-05  0.249E-03    0.49       4.7  T
   7   -100.6318985 -0.435517E-06  0.127E-03    0.49       9.3  T
   8   -100.6318985 -0.420020E-07  0.544E-04    0.49      21.7  T
   9   -100.6318985 -0.204287E-07  0.231E-04    0.49      51.1  T
     SCC iter.                  ...        0 min,  0.073 sec
     gradient                   ...        0 min,  0.069 sec
 * total energy  :   -99.2640608 Eh     change       -0.1619013E-02 Eh
   gradient norm :     0.0143979 Eh/α   predicted    -0.1190415E-02 ( -26.47%)
   displ. norm   :     0.4699118 α      lambda       -0.1884274E-02
   maximum displ.:     0.2734804 α      in ANC's #27, #1, #2, ...

........................................................................
.............................. CYCLE   25 ..............................
........................................................................

 iter      E             dE          RMSdq      gap      omega  full diag
   1   -100.6348349 -0.100635E+03  0.188E-01    0.53       0.0  T
   2   -100.6328815  0.195340E-02  0.177E-01    0.43       1.0  T
   3   -100.6310564  0.182515E-02  0.196E-01    0.56       1.0  T
   4   -100.6331367 -0.208028E-02  0.134E-01    0.57       1.0  T
   5   -100.6350719 -0.193526E-02  0.131E-02    0.50       1.0  T
   6   -100.6350970 -0.250588E-04  0.351E-03    0.50       3.4  T
   7   -100.6350983 -0.137132E-05  0.134E-03    0.50       8.8  T
   8   -100.6350984 -0.592714E-07  0.741E-04    0.50      15.9  T
   9   -100.6350984 -0.149470E-07  0.272E-04    0.50      43.3  T
     SCC iter.                  ...        0 min,  0.073 sec
     gradient                   ...        0 min,  0.071 sec
 * total energy  :   -99.2655042 Eh     change       -0.1443463E-02 Eh
   gradient norm :     0.0139461 Eh/α   predicted    -0.1150177E-02 ( -20.32%)
   displ. norm   :     0.4481454 α      lambda       -0.1733394E-02
   maximum displ.:     0.2107777 α      in ANC's #1, #27, #2, ...

........................................................................
.............................. CYCLE   26 ..............................
........................................................................

 iter      E             dE          RMSdq      gap      omega  full diag
   1   -100.6433561 -0.100643E+03  0.154E-01    0.52       0.0  T
   2   -100.6432695  0.866005E-04  0.978E-02    0.50       1.0  T
   3   -100.6381744  0.509513E-02  0.199E-01    0.56       1.0  T
   4   -100.6432447 -0.507032E-02  0.386E-02    0.53       1.0  T
   5   -100.6433447 -0.999327E-04  0.234E-02    0.50       1.0  T
   6   -100.6434009 -0.562456E-04  0.266E-03    0.51       4.4  T
   7   -100.6434015 -0.562232E-06  0.126E-03    0.51       9.3  T
   8   -100.6434015 -0.167500E-07  0.695E-04    0.51      17.0  T
   9   -100.6434015 -0.274041E-07  0.237E-04    0.51      49.8  T
     SCC iter.                  ...        0 min,  0.073 sec
     gradient                   ...        0 min,  0.069 sec
 * total energy  :   -99.2665150 Eh     change       -0.1010732E-02 Eh
   gradient norm :     0.0172342 Eh/α   predicted    -0.1040763E-02 (   2.97%)
   displ. norm   :     0.6380289 α      lambda       -0.2320669E-02
   maximum displ.:     0.3357297 α      in ANC's #27, #1, #2, ...

........................................................................
.............................. CYCLE   27 ..............................
........................................................................

 iter      E             dE          RMSdq      gap      omega  full diag
   1   -100.6404043 -0.100640E+03  0.259E-01    0.52       0.0  T
   2   -100.6404300 -0.256792E-04  0.154E-01    0.53       1.0  T
   3   -100.6397028  0.727237E-03  0.822E-02    0.50       1.0  T
   4   -100.6399667 -0.263910E-03  0.596E-02    0.53       1.0  T
   5   -100.6404365 -0.469767E-03  0.140E-02    0.53       1.0  T
   6   -100.6404492 -0.127478E-04  0.614E-03    0.52       1.9  T
   7   -100.6404524 -0.315018E-05  0.223E-03    0.52       5.3  T
   8   -100.6404525 -0.135890E-06  0.747E-04    0.52      15.8  T
   9   -100.6404525 -0.185484E-07  0.389E-04    0.52      30.3  T
     SCC iter.                  ...        0 min,  0.073 sec
     gradient                   ...        0 min,  0.070 sec
 * total energy  :   -99.2658003 Eh     change        0.7146671E-03 Eh
   gradient norm :     0.0464563 Eh/α   predicted    -0.1632688E-02 (-328.45%)
   displ. norm   :     0.1457397 α      lambda       -0.3566324E-02
   maximum displ.:     0.0719270 α      in ANC's #27, #19, #61, ...

........................................................................
.............................. CYCLE   28 ..............................
........................................................................

 iter      E             dE          RMSdq      gap      omega  full diag
   1   -100.6395434 -0.100640E+03  0.732E-02    0.53       0.0  T
   2   -100.6394712  0.722379E-04  0.527E-02    0.52       1.0  T
   3   -100.6385074  0.963772E-03  0.921E-02    0.54       1.0  T
   4   -100.6394244 -0.916946E-03  0.347E-02    0.53       1.0  T
   5   -100.6395516 -0.127209E-03  0.161E-02    0.51       1.0  T
   6   -100.6395727 -0.210805E-04  0.281E-03    0.53       4.2  T
   7   -100.6395732 -0.549025E-06  0.146E-03    0.52       8.0  T
   8   -100.6395734 -0.181771E-06  0.661E-04    0.52      17.8  T
   9   -100.6395734 -0.850434E-08  0.299E-04    0.52      39.4  T
     SCC iter.                  ...        0 min,  0.073 sec
     gradient                   ...        0 min,  0.075 sec
 * total energy  :   -99.2673774 Eh     change       -0.1577060E-02 Eh
   gradient norm :     0.0170530 Eh/α   predicted    -0.1821043E-02 (  15.47%)
   displ. norm   :     0.2103326 α      lambda       -0.1165480E-02
   maximum displ.:     0.1435447 α      in ANC's #27, #24, #29, ...

........................................................................
.............................. CYCLE   29 ..............................
........................................................................

 iter      E             dE          RMSdq      gap      omega  full diag
   1   -100.6478852 -0.100648E+03  0.116E-01    0.52       0.0  T
   2   -100.6468930  0.992215E-03  0.109E-01    0.56       1.0  T
   3   -100.6459544  0.938557E-03  0.137E-01    0.50       1.0  T
   4   -100.6475155 -0.156110E-02  0.717E-02    0.49       1.0  T
   5   -100.6479935 -0.477945E-03  0.789E-03    0.53       1.5  T
   6   -100.6479990 -0.554331E-05  0.418E-03    0.53       2.8  T
   7   -100.6479997 -0.748174E-06  0.179E-03    0.53       6.6  T
   8   -100.6480000 -0.298183E-06  0.489E-04    0.53      24.1  T
   9   -100.6480001 -0.109016E-07  0.173E-04    0.53      68.2  T
     SCC iter.                  ...        0 min,  0.073 sec
     gradient                   ...        0 min,  0.069 sec
 * total energy  :   -99.2670189 Eh     change        0.3584617E-03 Eh
   gradient norm :     0.0214105 Eh/α   predicted    -0.6085224E-03 (-269.76%)
   displ. norm   :     0.2347411 α      lambda       -0.1374135E-02
   maximum displ.:     0.1265805 α      in ANC's #27, #24, #2, ...

........................................................................
.............................. CYCLE   30 ..............................
........................................................................

 iter      E             dE          RMSdq      gap      omega  full diag
   1   -100.6428941 -0.100643E+03  0.113E-01    0.53       0.0  T
   2   -100.6427452  0.148895E-03  0.718E-02    0.52       1.0  T
   3   -100.6386493  0.409586E-02  0.180E-01    0.54       1.0  T
   4   -100.6428430 -0.419363E-02  0.293E-02    0.55       1.0  T
   5   -100.6429098 -0.668623E-04  0.546E-03    0.53       2.2  T
   6   -100.6429128 -0.301101E-05  0.349E-03    0.53       3.4  T
   7   -100.6429133 -0.419050E-06  0.153E-03    0.53       7.7  T
   8   -100.6429135 -0.183845E-06  0.432E-04    0.53      27.3  T
   9   -100.6429135 -0.132745E-07  0.166E-04    0.53      71.0  T
     SCC iter.                  ...        0 min,  0.073 sec
     gradient                   ...        0 min,  0.069 sec
 * total energy  :   -99.2678699 Eh     change       -0.8510154E-03 Eh
   gradient norm :     0.0042684 Eh/α   predicted    -0.7249299E-03 ( -14.82%)
   displ. norm   :     0.2915911 α      lambda       -0.3654243E-03
   maximum displ.:     0.1472431 α      in ANC's #2, #1, #27, ...

........................................................................
.............................. CYCLE   31 ..............................
........................................................................

 iter      E             dE          RMSdq      gap      omega  full diag
   1   -100.6409028 -0.100641E+03  0.102E-01    0.53       0.0  T
   2   -100.6408908  0.119918E-04  0.619E-02    0.54       1.0  T
   3   -100.6403156  0.575172E-03  0.830E-02    0.48       1.0  T
   4   -100.6408975 -0.581845E-03  0.991E-03    0.54       1.2  T
   5   -100.6409037 -0.615868E-05  0.619E-03    0.54       1.9  T
   6   -100.6409082 -0.458927E-05  0.152E-03    0.53       7.7  T
   7   -100.6409083 -0.842373E-07  0.995E-04    0.53      11.8  T
   8   -100.6409084 -0.688362E-07  0.217E-04    0.53      54.3  T
     SCC iter.                  ...        0 min,  0.065 sec
     gradient                   ...        0 min,  0.069 sec
 * total energy  :   -99.2681113 Eh     change       -0.2413457E-03 Eh
   gradient norm :     0.0094399 Eh/α   predicted    -0.1982502E-03 ( -17.86%)
   displ. norm   :     0.2483450 α      lambda       -0.3033635E-03
   maximum displ.:     0.1498905 α      in ANC's #2, #1, #4, ...

........................................................................
.............................. CYCLE   32 ..............................
........................................................................

 iter      E             dE          RMSdq      gap      omega  full diag
   1   -100.6410914 -0.100641E+03  0.686E-02    0.53       0.0  T
   2   -100.6410627  0.286901E-04  0.450E-02    0.55       1.0  T
   3   -100.6404744  0.588300E-03  0.802E-02    0.50       1.0  T
   4   -100.6410343 -0.559892E-03  0.210E-02    0.53       1.0  T
   5   -100.6410971 -0.628370E-04  0.246E-03    0.54       4.8  T
   6   -100.6410976 -0.466148E-06  0.883E-04    0.54      13.3  T
   7   -100.6410976 -0.243602E-07  0.501E-04    0.54      23.5  T
     SCC iter.                  ...        0 min,  0.057 sec
     gradient                   ...        0 min,  0.069 sec
 * total energy  :   -99.2683611 Eh     change       -0.2497787E-03 Eh
   gradient norm :     0.0083726 Eh/α   predicted    -0.1610382E-03 ( -35.53%)
   displ. norm   :     0.3614320 α      lambda       -0.4719618E-03
   maximum displ.:     0.2398223 α      in ANC's #2, #4, #9, ...

........................................................................
.............................. CYCLE   33 ..............................
........................................................................

 iter      E             dE          RMSdq      gap      omega  full diag
   1   -100.6430848 -0.100643E+03  0.822E-02    0.53       0.0  T
   2   -100.6430461  0.386968E-04  0.534E-02    0.55       1.0  T
   3   -100.6423144  0.731686E-03  0.936E-02    0.49       1.0  T
   4   -100.6430298 -0.715401E-03  0.210E-02    0.54       1.0  T
   5   -100.6430935 -0.637053E-04  0.249E-03    0.54       4.7  T
   6   -100.6430939 -0.355626E-06  0.136E-03    0.54       8.7  T
   7   -100.6430940 -0.865075E-07  0.696E-04    0.54      16.9  T
   8   -100.6430940 -0.185803E-07  0.210E-04    0.54      56.2  T
     SCC iter.                  ...        0 min,  0.066 sec
     gradient                   ...        0 min,  0.069 sec
 * total energy  :   -99.2686738 Eh     change       -0.3127868E-03 Eh
   gradient norm :     0.0044222 Eh/α   predicted    -0.2668087E-03 ( -14.70%)
   displ. norm   :     0.3488823 α      lambda       -0.2075237E-03
   maximum displ.:     0.2345281 α      in ANC's #2, #4, #9, ...

........................................................................
.............................. CYCLE   34 ..............................
........................................................................

 iter      E             dE          RMSdq      gap      omega  full diag
   1   -100.6424852 -0.100642E+03  0.973E-02    0.53       0.0  T
   2   -100.6424584  0.267521E-04  0.607E-02    0.55       1.0  T
   3   -100.6413349  0.112351E-02  0.106E-01    0.48       1.0  T
   4   -100.6424289 -0.109397E-02  0.226E-02    0.53       1.0  T
   5   -100.6424894 -0.605618E-04  0.465E-03    0.54       2.5  T
   6   -100.6424919 -0.250002E-05  0.140E-03    0.54       8.4  T
   7   -100.6424920 -0.102919E-06  0.667E-04    0.54      17.7  T
   8   -100.6424920 -0.107128E-07  0.248E-04    0.54      47.5  T
     SCC iter.                  ...        0 min,  0.066 sec
     gradient                   ...        0 min,  0.069 sec
 * total energy  :   -99.2688171 Eh     change       -0.1432407E-03 Eh
   gradient norm :     0.0051186 Eh/α   predicted    -0.1163953E-03 ( -18.74%)
   displ. norm   :     0.2651185 α      lambda       -0.1530507E-03
   maximum displ.:     0.1895690 α      in ANC's #2, #9, #4, ...

........................................................................
.............................. CYCLE   35 ..............................
........................................................................

 iter      E             dE          RMSdq      gap      omega  full diag
   1   -100.6433433 -0.100643E+03  0.628E-02    0.54       0.0  T
   2   -100.6432756  0.676782E-04  0.426E-02    0.53       1.0  T
   3   -100.6422719  0.100370E-02  0.933E-02    0.55       1.0  T
   4   -100.6433071 -0.103519E-02  0.222E-02    0.55       1.0  T
   5   -100.6433514 -0.442437E-04  0.295E-03    0.53       4.0  T
   6   -100.6433523 -0.956216E-06  0.124E-03    0.54       9.5  T
   7   -100.6433525 -0.140983E-06  0.551E-04    0.54      21.4  T
   8   -100.6433525 -0.262274E-08  0.267E-04    0.54      44.2  T
     SCC iter.                  ...        0 min,  0.066 sec
     gradient                   ...        0 min,  0.069 sec
 * total energy  :   -99.2689329 Eh     change       -0.1158475E-03 Eh
   gradient norm :     0.0042682 Eh/α   predicted    -0.8190465E-04 ( -29.30%)
   displ. norm   :     0.3231930 α      lambda       -0.1551589E-03
   maximum displ.:     0.2352609 α      in ANC's #2, #9, #4, ...

........................................................................
.............................. CYCLE   36 ..............................
........................................................................

 iter      E             dE          RMSdq      gap      omega  full diag
   1   -100.6437252 -0.100644E+03  0.735E-02    0.53       0.0  T
   2   -100.6436655  0.597605E-04  0.465E-02    0.53       1.0  T
   3   -100.6419806  0.168485E-02  0.116E-01    0.54       1.0  T
   4   -100.6437154 -0.173477E-02  0.145E-02    0.54       1.0  T
   5   -100.6437319 -0.164595E-04  0.372E-03    0.53       3.2  T
   6   -100.6437331 -0.120388E-05  0.138E-03    0.53       8.6  T
   7   -100.6437332 -0.151160E-06  0.612E-04    0.53      19.3  T
   8   -100.6437332 -0.289441E-08  0.308E-04    0.53      38.2  T
     SCC iter.                  ...        0 min,  0.066 sec
     gradient                   ...        0 min,  0.069 sec
 * total energy  :   -99.2690520 Eh     change       -0.1191071E-03 Eh
   gradient norm :     0.0042357 Eh/α   predicted    -0.8568416E-04 ( -28.06%)
   displ. norm   :     0.3414577 α      lambda       -0.1684044E-03
   maximum displ.:     0.2220708 α      in ANC's #2, #1, #9, ...

........................................................................
.............................. CYCLE   37 ..............................
........................................................................

 iter      E             dE          RMSdq      gap      omega  full diag
   1   -100.6442939 -0.100644E+03  0.651E-02    0.54       0.0  T
   2   -100.6442309  0.630078E-04  0.440E-02    0.52       1.0  T
   3   -100.6435905  0.640391E-03  0.837E-02    0.56       1.0  T
   4   -100.6442007 -0.610203E-03  0.298E-02    0.55       1.0  T
   5   -100.6443040 -0.103270E-03  0.275E-03    0.53       4.3  T
   6   -100.6443048 -0.784618E-06  0.998E-04    0.53      11.8  T
   7   -100.6443048 -0.411193E-07  0.476E-04    0.53      24.8  T
     SCC iter.                  ...        0 min,  0.058 sec
     gradient                   ...        0 min,  0.070 sec
 * total energy  :   -99.2691750 Eh     change       -0.1230127E-03 Eh
   gradient norm :     0.0046722 Eh/α   predicted    -0.9402233E-04 ( -23.57%)
   displ. norm   :     0.3228604 α      lambda       -0.1304443E-03
   maximum displ.:     0.2152954 α      in ANC's #2, #1, #3, ...

........................................................................
.............................. CYCLE   38 ..............................
........................................................................

 iter      E             dE          RMSdq      gap      omega  full diag
   1   -100.6438887 -0.100644E+03  0.590E-02    0.53       0.0  T
   2   -100.6438741  0.145597E-04  0.352E-02    0.53       1.0  T
   3   -100.6433070  0.567174E-03  0.723E-02    0.56       1.0  T
   4   -100.6438690 -0.562053E-03  0.144E-02    0.54       1.0  T
   5   -100.6438911 -0.220698E-04  0.223E-03    0.53       5.3  T
   6   -100.6438916 -0.547089E-06  0.764E-04    0.53      15.4  T
   7   -100.6438917 -0.158145E-07  0.323E-04    0.53      36.5  T
     SCC iter.                  ...        0 min,  0.058 sec
     gradient                   ...        0 min,  0.069 sec
 * total energy  :   -99.2692670 Eh     change       -0.9192576E-04 Eh
   gradient norm :     0.0048816 Eh/α   predicted    -0.7202635E-04 ( -21.65%)
   displ. norm   :     0.2992722 α      lambda       -0.1629341E-03
   maximum displ.:     0.2084218 α      in ANC's #1, #2, #13, ...

........................................................................
.............................. CYCLE   39 ..............................
........................................................................

 iter      E             dE          RMSdq      gap      omega  full diag
   1   -100.6448972 -0.100645E+03  0.318E-02    0.55       0.0  T
   2   -100.6448399  0.573306E-04  0.294E-02    0.53       1.0  T
   3   -100.6447676  0.722897E-04  0.342E-02    0.55       1.0  T
   4   -100.6448805 -0.112914E-03  0.164E-02    0.55       1.0  T
   5   -100.6449031 -0.226195E-04  0.421E-03    0.54       2.8  T
   6   -100.6449050 -0.185791E-05  0.674E-04    0.54      17.5  T
   7   -100.6449050 -0.126409E-07  0.441E-04    0.54      26.7  T
   8   -100.6449050 -0.131505E-07  0.142E-04    0.54      82.9  T
     SCC iter.                  ...        0 min,  0.065 sec
     gradient                   ...        0 min,  0.070 sec
 * total energy  :   -99.2693793 Eh     change       -0.1123547E-03 Eh
   gradient norm :     0.0034819 Eh/α   predicted    -0.8876514E-04 ( -21.00%)
   displ. norm   :     0.1641608 α      lambda       -0.9542103E-04
   maximum displ.:     0.1207629 α      in ANC's #1, #2, #6, ...

........................................................................
.............................. CYCLE   40 ..............................
........................................................................

 iter      E             dE          RMSdq      gap      omega  full diag
   1   -100.6442886 -0.100644E+03  0.218E-02    0.55       0.0  T
   2   -100.6442718  0.168110E-04  0.178E-02    0.54       1.0  T
   3   -100.6442003  0.714821E-04  0.270E-02    0.55       1.0  T
   4   -100.6442833 -0.830471E-04  0.948E-03    0.55       1.2  T
   5   -100.6442905 -0.719092E-05  0.205E-03    0.55       5.8  T
   6   -100.6442910 -0.473439E-06  0.668E-04    0.55      17.6  T
   7   -100.6442910 -0.362659E-07  0.252E-04    0.55      46.8  T
     SCC iter.                  ...        0 min,  0.057 sec
     gradient                   ...        0 min,  0.069 sec
 * total energy  :   -99.2694538 Eh     change       -0.7442734E-04 Eh
   gradient norm :     0.0029752 Eh/α   predicted    -0.4899715E-04 ( -34.17%)
   displ. norm   :     0.1699740 α      lambda       -0.1138263E-03
   maximum displ.:     0.1332667 α      in ANC's #1, #4, #6, ...

........................................................................
.............................. CYCLE   41 ..............................
........................................................................

 iter      E             dE          RMSdq      gap      omega  full diag
   1   -100.6448771 -0.100645E+03  0.211E-02    0.56       0.0  T
   2   -100.6448431  0.340051E-04  0.215E-02    0.55       1.0  T
   3   -100.6448410  0.206545E-05  0.205E-02    0.56       1.0  T
   4   -100.6448585 -0.174279E-04  0.150E-02    0.56       1.0  T
   5   -100.6448813 -0.228457E-04  0.307E-03    0.55       3.8  T
   6   -100.6448823 -0.987844E-06  0.554E-04    0.55      21.3  T
   7   -100.6448823 -0.191317E-07  0.288E-04    0.55      40.9  T
     SCC iter.                  ...        0 min,  0.057 sec
     gradient                   ...        0 min,  0.069 sec
 * total energy  :   -99.2695396 Eh     change       -0.8588932E-04 Eh
   gradient norm :     0.0031192 Eh/α   predicted    -0.5856256E-04 ( -31.82%)
   displ. norm   :     0.1824049 α      lambda       -0.9953538E-04
   maximum displ.:     0.1400012 α      in ANC's #1, #4, #6, ...

........................................................................
.............................. CYCLE   42 ..............................
........................................................................

 iter      E             dE          RMSdq      gap      omega  full diag
   1   -100.6443348 -0.100644E+03  0.212E-02    0.56       0.0  T
   2   -100.6442957  0.391555E-04  0.209E-02    0.56       1.0  T
   3   -100.6442731  0.225261E-04  0.241E-02    0.56       1.0  T
   4   -100.6443353 -0.621703E-04  0.743E-03    0.56       1.6  T
   5   -100.6443386 -0.325635E-05  0.337E-03    0.56       3.5  T
   6   -100.6443396 -0.102376E-05  0.511E-04    0.56      23.1  T
   7   -100.6443396 -0.179185E-07  0.233E-04    0.56      50.5  T
   8   -100.6443396 -0.156346E-08  0.145E-04    0.56      81.4  T
     SCC iter.                  ...        0 min,  0.065 sec
     gradient                   ...        0 min,  0.075 sec
 * total energy  :   -99.2696167 Eh     change       -0.7708283E-04 Eh
   gradient norm :     0.0036709 Eh/α   predicted    -0.5142494E-04 ( -33.29%)
   displ. norm   :     0.1699617 α      lambda       -0.8442806E-04
   maximum displ.:     0.1237194 α      in ANC's #1, #4, #2, ...
 * RMSD in coord.:     0.4967639 α      energy gain  -0.1391888E-01 Eh

generating ANC from model Hessian ...
Using Lindh-Hessian (1995)
 Shifting diagonal of input Hessian by    1.0453242980750432E-002
 Lowest  eigenvalues of input Hessian
    0.010000    0.010036    0.000000    0.000000    0.000000    0.000000
    0.000000    0.000000    0.010493    0.010510    0.010613    0.010714
    0.010782    0.011066    0.011204    0.011393    0.011423    0.012013
 Highest eigenvalues
    1.980971    2.042501    2.108602    2.112717    2.181746    2.224161


........................................................................
.............................. CYCLE   43 ..............................
........................................................................

 iter      E             dE          RMSdq      gap      omega  full diag
   1   -100.6439070 -0.100644E+03  0.228E-02    0.57       0.0  T
   2   -100.6438581  0.488428E-04  0.290E-02    0.55       1.0  T
   3   -100.6439106 -0.524518E-04  0.137E-02    0.57       1.0  T
   4   -100.6439177 -0.709244E-05  0.168E-03    0.57       7.0  T
   5   -100.6439178 -0.129401E-06  0.106E-03    0.57      11.2  T
   6   -100.6439179 -0.119529E-06  0.512E-04    0.57      23.0  T
   7   -100.6439179 -0.254127E-07  0.193E-04    0.57      61.2  T
     SCC iter.                  ...        0 min,  0.057 sec
     gradient                   ...        0 min,  0.069 sec
 * total energy  :   -99.2696870 Eh     change       -0.7029666E-04 Eh
   gradient norm :     0.0036425 Eh/α   predicted     0.0000000E+00 (-100.00%)
   displ. norm   :     0.0525511 α      lambda       -0.7069275E-04
   maximum displ.:     0.0392482 α      in ANC's #1, #46, #47, ...

........................................................................
.............................. CYCLE   44 ..............................
........................................................................

 iter      E             dE          RMSdq      gap      omega  full diag
   1   -100.6445470 -0.100645E+03  0.155E-02    0.57       0.0  T
   2   -100.6445385  0.844371E-05  0.137E-02    0.56       1.0  T
   3   -100.6445374  0.118429E-05  0.135E-02    0.57       1.0  T
   4   -100.6445423 -0.498358E-05  0.709E-03    0.57       1.7  T
   5   -100.6445488 -0.642221E-05  0.144E-03    0.57       8.2  T
   6   -100.6445490 -0.239318E-06  0.377E-04    0.57      31.3  T
   7   -100.6445490 -0.104529E-07  0.203E-04    0.57      58.0  T
     SCC iter.                  ...        0 min,  0.057 sec
     gradient                   ...        0 min,  0.069 sec
 * total energy  :   -99.2697393 Eh     change       -0.5228934E-04 Eh
   gradient norm :     0.0019750 Eh/α   predicted    -0.3581716E-04 ( -31.50%)
   displ. norm   :     0.1179533 α      lambda       -0.4965024E-04
   maximum displ.:     0.0981201 α      in ANC's #1, #4, #8, ...

........................................................................
.............................. CYCLE   45 ..............................
........................................................................

 iter      E             dE          RMSdq      gap      omega  full diag
   1   -100.6451982 -0.100645E+03  0.230E-02    0.58       0.0  T
   2   -100.6451693  0.288455E-04  0.235E-02    0.56       1.0  T
   3   -100.6451898 -0.204339E-04  0.172E-02    0.58       1.0  T
   4   -100.6452004 -0.105933E-04  0.595E-03    0.57       2.0  T
   5   -100.6452036 -0.323143E-05  0.337E-03    0.57       3.5  T
   6   -100.6452051 -0.147203E-05  0.480E-04    0.57      24.6  T
   7   -100.6452051 -0.125003E-07  0.272E-04    0.57      43.4  T
   8   -100.6452051 -0.539480E-08  0.115E-04    0.57     102.2  T
     SCC iter.                  ...        0 min,  0.065 sec
     gradient                   ...        0 min,  0.069 sec
 * total energy  :   -99.2697877 Eh     change       -0.4835939E-04 Eh
   gradient norm :     0.0013648 Eh/α   predicted    -0.2499692E-04 ( -48.31%)
   displ. norm   :     0.0969293 α      lambda       -0.2853633E-04
   maximum displ.:     0.0797062 α      in ANC's #1, #4, #24, ...

   *** GEOMETRY OPTIMIZATION CONVERGED AFTER 45 ITERATIONS ***

------------------------------------------------------------------------
 total energy gain   :        -0.5120353 Eh     -321.3070 kcal/mol
 total RMSD          :         0.7206964 a0        0.3814 Å
 total power (kW/mol):       -29.8744102 (step) -177.3615 (real)
------------------------------------------------------------------------

 ANCopt (total)                0 d,  0 h,  0 min,  7.580 sec
 optimizer setup                ...        0 min,  0.000 sec (  0.004%)
 model hessian                  ...        0 min,  0.160 sec (  2.111%)
 ANC generation                 ...        0 min,  0.020 sec (  0.258%)
 coordinate transformation      ...        0 min,  0.003 sec (  0.039%)
 single point calculation       ...        0 min,  7.341 sec ( 96.850%)
 optimization log               ...        0 min,  0.012 sec (  0.154%)
 hessian update                 ...        0 min,  0.003 sec (  0.040%)
 rational function              ...        0 min,  0.017 sec (  0.219%)

================
 final structure:
================
72
 xtb: 6.6.1 (8d0f1dd)
N           -1.87190687298346        2.81739020286859        2.21826688132769
C           -1.84488844594921        2.10338919705586        1.19412867977505
C           -3.00206657828510        1.90631261364886        0.25471923817931
C           -3.46552115704112        0.45876779498922        0.31535734101969
C           -4.39519159315050       -0.01028327104084       -0.61507017831003
C           -4.86722878073312       -1.31139247151003       -0.57430001566280
O           -5.77178147911798       -1.83935918307056       -1.42497504553795
C           -6.38571578564289       -1.00794705076521       -2.38141657181100
C           -4.38915876737047       -2.19826872878184        0.42776975794168
O           -4.89941404147160       -3.44587188143047        0.38973925273514
C           -4.54949836315614       -4.35980257735573        1.40257465712249
C           -3.46559302030797       -1.72722045323954        1.34677373814287
C           -3.01327094435953       -0.41447208261746        1.29195673783068
C           -2.45822345081663        2.23186266273814       -1.16148111677155
C           -1.53264796153100        1.15344700593594       -1.75455762064914
C           -0.20067640672664        1.10089302876775       -1.11263899331853
N            0.44354804215340       -0.00948662283656       -0.76314478106506
C            1.80737916673464        0.05391523774801       -0.29637652527432
C            2.81595817074668       -0.35286679600470       -1.38984179131031
C            4.21599881656554       -0.12409444348810       -0.89529632886360
C            4.84673870142934        1.09497455004580       -1.10997326013006
C            6.11867819359189        1.32846353732355       -0.62409229471622
C            6.78392929868692        0.34152861814656        0.10047402487476
O            8.01629561967841        0.46215039029356        0.64822061175976
C            8.84772210477207        1.44315276729345        0.43081387992039
C            6.14849145686808       -0.90938510715225        0.33165263205870
O            6.87245461004797       -1.80059013172924        1.03105527226955
C            6.34324589375687       -3.08372533503423        1.27740856586325
C            4.87299229703745       -1.11658341123796       -0.17164655694230
C           -0.16596433530328       -1.31295534125739       -0.87280299108693
C           -4.22048062905757        2.82104973139033        0.57849293321640
C           -4.83134512927766        2.47658876709972        1.93482748706304
C           -3.88593271155721        4.30915878182739        0.52606983333705
H           -4.76737294815961        0.65872396246258       -1.37299630629745
H           -6.90561696613698       -0.16918426302194       -1.90880985775905
H           -7.11056258799776       -1.63807209182343       -2.89298419716319
H           -5.66181215964941       -0.62801095073610       -3.10977423674388
H           -4.82193467812187       -3.98389618148636        2.39315323888177
H           -5.11855987758450       -5.26272102612471        1.19031477271488
H           -3.48007142422881       -4.59313313106230        1.38136529252598
H           -3.09831574233857       -2.37214470903585        2.12853729457726
H           -2.32019625616741       -0.07558225793899        2.04640368745703
H           -3.30192833678307        2.36046402799922       -1.83862661445533
H           -1.92075609245802        3.18005051904049       -1.12175739555427
H           -2.03210144255892        0.18676442039069       -1.72386181718169
H           -1.37976361911069        1.41759174353483       -2.80932161373417
H           -0.94118432956941        1.57052079469241        0.83899033119805
H            0.35772133931583        2.02281447495342       -1.04690915166245
H            1.92231683819764       -0.60656430673312        0.56763275150476
H            2.03096101216555        1.07404064669380        0.02310812107159
H            2.63255774179140        0.25288416997903       -2.27847756152969
H            2.67317020140198       -1.40176148038673       -1.65056460960508
H            4.34530632148257        1.86996641063821       -1.66889766326672
H            6.58469462670278        2.28444741102204       -0.79795940517976
H            9.78143965883059        1.37359476324377        0.95521199598546
H            8.65741786939318        2.24221037154441       -0.26365179754268
H           11.16361371021772        1.75669181002875       -1.22244547415614
H            7.11607715306328       -3.61467603450542        1.82892413742038
H            5.43568554562206       -3.03115865731148        1.88574032429770
H            6.13323412793689       -3.61506996914647        0.34493007888924
H            4.38048202708221       -2.06311564913042       -0.01387823873534
H           -0.35444741807382       -1.57377980532023       -1.91602861836284
H           -1.11329427393181       -1.33932056376226       -0.32782016356528
H            0.49989131329267       -2.05759607972658       -0.44500573718660
H           -4.97413407100952        2.61685885601753       -0.19059661559131
H           -4.11986831696213        2.68487326326997        2.72721313912247
H           -5.11736413542119        1.42869346275554        1.98261945345245
H           -5.71917866068636        3.08143149765549        2.09858751472528
H           -3.11138540668630        4.54766328527216        1.24829760848802
H           -3.56217138783612        4.61836172523010       -0.46427666532846
H           -4.77380933453423        4.88244399272165        0.77942350188030
H           -1.01915034147786        2.90009507214758        2.76276788609631

 Bond Distances (Angstroems)
 ---------------------------
N1-C2=1.2488         N1-H72=1.0151        C2-N1=1.2488         C2-C3=1.5035         C2-H47=1.1076        C3-C2=1.5035         
C3-C4=1.5211         C3-C14=1.5516        C3-C31=1.5576        C4-C3=1.5211         C4-C5=1.3964         C4-C13=1.3859        
C5-C4=1.3964         C5-C6=1.3847         C5-H34=1.0773        C6-C5=1.3847         C6-O7=1.3493         C6-C9=1.4210         
O7-C6=1.3493         O7-C8=1.4082         C8-O7=1.4082         C8-H35=1.0942        C8-H36=1.0882        C8-H37=1.0949        
C9-C6=1.4210         C9-O10=1.3485        C9-C12=1.3854        O10-C9=1.3485        O10-C11=1.4084       C11-O10=1.4084       
C11-H38=1.0940       C11-H39=1.0882       C11-H40=1.0948       C12-C9=1.3854        C12-C13=1.3896       C12-H41=1.0779       
C13-C4=1.3859        C13-C12=1.3896       C13-H42=1.0791       C14-C3=1.5516        C14-C15=1.5399       C14-H43=1.0895       
C14-H44=1.0906       C15-C14=1.5399       C15-C16=1.4795       C15-H45=1.0885       C15-H46=1.0980       C16-C15=1.4795       
C16-N17=1.3305       C16-H48=1.0798       N17-C16=1.3305       N17-C18=1.4429       N17-C30=1.4431       C18-N17=1.4429       
C18-C19=1.5422       C18-H49=1.0936       C18-H50=1.0921       C19-C18=1.5422       C19-C20=1.5023       C19-H51=1.0910       
C19-H52=1.0902       C20-C19=1.5023       C20-C21=1.3893       C20-C29=1.3930       C21-C20=1.3893       C21-C22=1.3815       
C21-H53=1.0791       C22-C21=1.3815       C22-C23=1.3934       C22-H54=1.0776       C23-C22=1.3934       C23-O24=1.3540       
C23-C26=1.4220       O24-C23=1.3540       O24-C25=1.3042       C25-O24=1.3042       C25-H55=1.0732       C25-H56=1.0756       
[...]
         ::                     SUMMARY                     ::
         :::::::::::::::::::::::::::::::::::::::::::::::::::::
         :: total energy             -99.269787671199 Eh    ::
         :: gradient norm              0.001365264057 Eh/a0 ::
         :: HOMO-LUMO gap              0.569239461803 eV    ::
         ::.................................................::
         :: SCC energy              -100.645205092859 Eh    ::
         :: -> isotropic ES            0.107357325428 Eh    ::
         :: -> anisotropic ES          0.003730254291 Eh    ::
         :: -> anisotropic XC          0.045315306589 Eh    ::
         :: -> dispersion             -0.075182241242 Eh    ::
         :: repulsion energy           1.374095035246 Eh    ::
         :: add. restraining           0.000049165879 Eh    ::
         :: total charge               1.000000000000 e     ::
         :::::::::::::::::::::::::::::::::::::::::::::::::::::

           -------------------------------------------------
          |                Property Printout                |
           -------------------------------------------------

    * Orbital Energies and Occupations

         #    Occupation            Energy/Eh            Energy/eV
      -------------------------------------------------------------
         1        2.0000           -0.8464646             -23.0335
       ...           ...                  ...                  ...
        78        1.9988           -0.5336520             -14.5214
        79        1.9984           -0.5281909             -14.3728
        80        1.9983           -0.5275827             -14.3563
        81        1.9976           -0.5222169             -14.2102
        82        1.9961           -0.5145618             -14.0019
        83        1.9955           -0.5122333             -13.9386
        84        1.9950           -0.5106992             -13.8968
        85        1.9945           -0.5091278             -13.8541
        86        1.9818           -0.4900131             -13.3339
        87        1.9766           -0.4859428             -13.2232
        88        1.9408           -0.4709908             -12.8163
        89        1.8781           -0.4590318             -12.4909
        90        1.2246           -0.4229624             -11.5094 (HOMO)
        91        0.5929           -0.4020433             -10.9402 (LUMO)
        92        0.4041           -0.3939799             -10.7207
        93        0.0153           -0.3386425              -9.2149
        94        0.0063           -0.3246695              -8.8347
        95        0.0048           -0.3201054              -8.7105
        96        0.0037           -0.3161153              -8.6019
        97        0.0030           -0.3129801              -8.5166
        98        0.0000           -0.2012992              -5.4776
        99        0.0000           -0.1903494              -5.1797
       100                         -0.1382878              -3.7630
       101                         -0.0723891              -1.9698
       ...                                ...                  ...
       171                          0.5730604              15.5938
      -------------------------------------------------------------
                  HL-Gap            0.0209192 Eh            0.5692 eV
             Fermi-level           -0.4157268 Eh          -11.3125 eV

     #   Z          covCN         q      C6AA      α(0)
     1   7 N        1.774    -0.269    27.810     7.809
     2   6 C        2.827     0.101    25.751     8.315
     3   6 C        3.907     0.006    20.414     6.422
     4   6 C        2.974     0.002    27.981     8.677
     5   6 C        2.921    -0.080    30.004     8.983
     6   6 C        2.862     0.129    25.169     8.223
     7   8 O        1.706    -0.231    17.827     5.701
     8   6 C        3.644     0.028    20.444     6.499
     9   6 C        2.864     0.128    25.192     8.227
    10   8 O        1.706    -0.230    17.808     5.698
    11   6 C        3.645     0.027    20.449     6.499
    12   6 C        2.914    -0.075    29.873     8.962
    13   6 C        2.921    -0.054    29.331     8.881
    14   6 C        3.812    -0.065    21.728     6.635
    15   6 C        3.802    -0.069    21.820     6.650
    16   6 C        2.843     0.005    27.907     8.658
    17   7 N        2.729     0.008    21.128     6.827
    18   6 C        3.756    -0.016    20.909     6.520
    19   6 C        3.808    -0.072    21.873     6.658
    20   6 C        2.969     0.006    27.876     8.660
    21   6 C        2.921    -0.049    29.207     8.863
    22   6 C        2.912    -0.055    29.374     8.887
    23   6 C        2.870     0.105    25.678     8.307
    24   8 O        1.710    -0.095    15.765     5.361
    25   6 C        2.734     0.040    27.079     8.520
    26   6 C        2.861     0.140    24.949     8.187
    27   8 O        1.706    -0.227    17.772     5.692
    28   6 C        3.645     0.025    20.492     6.506
    29   6 C        2.919    -0.080    29.989     8.980
    30   6 C        3.699    -0.070    22.010     6.710
    31   6 C        3.853    -0.007    20.673     6.467
    32   6 C        3.756    -0.118    22.824     6.812
    33   6 C        3.755    -0.119    22.830     6.813
    34   1 H        0.926     0.052     2.299     2.371
    35   1 H        0.924     0.054     2.276     2.359
    36   1 H        0.925     0.081     1.970     2.195
    37   1 H        0.924     0.047     2.359     2.402
    38   1 H        0.924     0.055     2.263     2.353
    39   1 H        0.925     0.081     1.971     2.195
    40   1 H        0.924     0.047     2.354     2.400
    41   1 H        0.926     0.051     2.307     2.375
    42   1 H        0.926     0.038     2.480     2.463
    43   1 H        0.925     0.060     2.196     2.317
    44   1 H        0.924     0.053     2.278     2.360
    45   1 H        0.925     0.066     2.129     2.282
    46   1 H        0.923     0.079     1.992     2.207
    47   1 H        0.922     0.005     2.971     2.695
    48   1 H        0.926     0.068     2.110     2.272
    49   1 H        0.924     0.067     2.123     2.279
    50   1 H        0.924     0.067     2.122     2.278
    51   1 H        0.924     0.059     2.214     2.327
    52   1 H        0.925     0.059     2.214     2.327
    53   1 H        0.926     0.053     2.288     2.366
    54   1 H        0.926     0.064     2.153     2.295
    55   1 H        0.926     0.109     1.708     2.044
    56   1 H        0.926     0.079     1.994     2.208
    57   1 H        0.000    -0.133    17.161     7.575
    58   1 H        0.925     0.085     1.933     2.174
    59   1 H        0.924     0.051     2.310     2.377
    60   1 H        0.924     0.055     2.259     2.351
    61   1 H        0.926     0.053     2.287     2.365
    62   1 H        0.924     0.076     2.018     2.221
    63   1 H        0.924     0.079     1.988     2.205
    64   1 H        0.925     0.079     1.993     2.208
    65   1 H        0.924     0.037     2.490     2.468
    66   1 H        0.925     0.068     2.104     2.268
    67   1 H        0.925     0.035     2.515     2.480
    68   1 H        0.925     0.051     2.309     2.376
    69   1 H        0.925     0.061     2.190     2.314
    70   1 H        0.925     0.034     2.525     2.485
    71   1 H        0.925     0.054     2.266     2.354
    72   1 H        0.860     0.156     1.363     1.829

 Mol. C6AA /au·bohr⁶  :      48687.101696
 Mol. C8AA /au·bohr⁸  :    1104620.061111
 Mol. α(0) /au        :        341.025031


Wiberg/Mayer (AO) data.
largest (>0.10) Wiberg bond orders for each atom

 ---------------------------------------------------------------------------
     #   Z sym  total        # sym  WBO       # sym  WBO       # sym  WBO
 ---------------------------------------------------------------------------
     1   7 N    3.040 --     2 C    1.955    72 H    0.942
     2   6 C    3.928 --     1 N    1.955     3 C    0.995    47 H    0.899
     3   6 C    3.976 --     2 C    0.995     4 C    0.970    14 C    0.957
                            31 C    0.943
     4   6 C    3.951 --    13 C    1.416     5 C    1.368     3 C    0.970
     5   6 C    3.963 --     6 C    1.402     4 C    1.368    34 H    0.958
     6   6 C    3.907 --     5 C    1.402     9 C    1.223     7 O    1.098
     7   8 O    2.254 --     6 C    1.098     8 C    0.978
     8   6 C    3.932 --     7 O    0.978    36 H    0.977    35 H    0.974
                            37 H    0.974
     9   6 C    3.903 --    12 C    1.393     6 C    1.223    10 O    1.100
    10   8 O    2.252 --     9 C    1.100    11 C    0.978
    11   6 C    3.932 --    10 O    0.978    39 H    0.977    40 H    0.974
                            38 H    0.974
    12   6 C    3.963 --    13 C    1.402     9 C    1.393    41 H    0.964
    13   6 C    3.956 --     4 C    1.416    12 C    1.402    42 H    0.963
    14   6 C    3.972 --    15 C    0.981    44 H    0.972    43 H    0.968
                             3 C    0.957
    15   6 C    3.987 --    16 C    1.060    14 C    0.981    45 H    0.961
                            46 H    0.928
    16   6 C    3.577 --    17 N    1.387    15 C    1.060    48 H    0.958
    17   7 N    3.467 --    16 C    1.387    30 C    0.998    18 C    0.991
    18   6 C    3.957 --    17 N    0.991    50 H    0.968    19 C    0.966
                            49 H    0.964
    19   6 C    3.977 --    20 C    1.011    51 H    0.972    52 H    0.971
                            18 C    0.966
    20   6 C    3.917 --    21 C    1.393    29 C    1.385    19 C    1.011
    21   6 C    3.972 --    22 C    1.445    20 C    1.393    53 H    0.967
    22   6 C    3.918 --    21 C    1.445    23 C    1.355    54 H    0.961
    23   6 C    3.891 --    22 C    1.355    26 C    1.227    24 O    1.056
    24   8 O    2.440 --    25 C    1.283    23 C    1.056
    25   6 C    3.377 --    24 O    1.283    56 H    0.964    55 H    0.961
    26   6 C    3.895 --    29 C    1.389    23 C    1.227    27 O    1.114
    27   8 O    2.275 --    26 C    1.114    28 C    0.973
    28   6 C    3.930 --    58 H    0.977    59 H    0.975    60 H    0.975
                            27 O    0.973
    29   6 C    3.960 --    26 C    1.389    20 C    1.385    61 H    0.962
    30   6 C    3.958 --    17 N    0.998    64 H    0.978    62 H    0.967
                            63 H    0.961
    31   6 C    3.973 --    33 C    1.009    32 C    1.008    65 H    0.960
                             3 C    0.943
    32   6 C    3.980 --    31 C    1.008    67 H    0.982    68 H    0.982
                            66 H    0.974
    33   6 C    3.983 --    31 C    1.009    70 H    0.983    71 H    0.980
                            69 H    0.976
    34   1 H    0.996 --     5 C    0.958
    35   1 H    0.994 --     8 C    0.974
    36   1 H    0.993 --     8 C    0.977
    37   1 H    0.994 --     8 C    0.974
    38   1 H    0.993 --    11 C    0.974
    39   1 H    0.993 --    11 C    0.977
    40   1 H    0.994 --    11 C    0.974
    41   1 H    0.996 --    12 C    0.964
    42   1 H    0.998 --    13 C    0.963
    43   1 H    0.995 --    14 C    0.968
    44   1 H    0.996 --    14 C    0.972
    45   1 H    0.995 --    15 C    0.961
    46   1 H    0.969 --    15 C    0.928
    47   1 H    0.987 --     2 C    0.899
    48   1 H    0.995 --    16 C    0.958
    49   1 H    0.990 --    18 C    0.964
    50   1 H    0.994 --    18 C    0.968
    51   1 H    0.995 --    19 C    0.972
    52   1 H    0.995 --    19 C    0.971
    53   1 H    0.997 --    21 C    0.967
    54   1 H    0.995 --    22 C    0.961
    55   1 H    0.987 --    25 C    0.961
    56   1 H    0.994 --    25 C    0.964
    57   1 H    0.053
    58   1 H    0.992 --    28 C    0.977
    59   1 H    0.995 --    28 C    0.975
    60   1 H    0.994 --    28 C    0.975
    61   1 H    0.996 --    29 C    0.962
    62   1 H    0.985 --    30 C    0.967
    63   1 H    0.986 --    30 C    0.961
    64   1 H    0.994 --    30 C    0.978
    65   1 H    0.993 --    31 C    0.960
    66   1 H    0.991 --    32 C    0.974
    67   1 H    0.997 --    32 C    0.982
    68   1 H    0.994 --    32 C    0.982
    69   1 H    0.993 --    33 C    0.976
    70   1 H    0.997 --    33 C    0.983
    71   1 H    0.994 --    33 C    0.980
    72   1 H    0.971 --     1 N    0.942
 ---------------------------------------------------------------------------

Topologies differ in total number of bonds
Writing topology from bond orders to xtbtopo.mol

molecular dipole:
                 x           y           z       tot (Debye)
 q only:        0.151      -0.434      -0.425
   full:        0.519      -0.524      -0.600       2.416
molecular quadrupole (traceless):
                xx          xy          yy          xz          yz          zz
 q only:       25.833      -7.862      -2.906      20.774      -9.445     -22.927
  q+dip:       22.371      -4.036      -2.239      23.230     -13.962     -20.132
   full:       21.992      -4.815      -3.012      20.394     -13.325     -18.981

           -------------------------------------------------
          |                Geometry Summary                 |
           -------------------------------------------------

      molecular mass/u    :      455.6105846
   center of mass at/Å    :       -0.0266692       0.0070542       0.0224206
  moments of inertia/u·Å² :        0.2458501E+04   0.1089703E+05   0.1212575E+05
rotational constants/cm⁻¹ :        0.6856874E-02   0.1546994E-02   0.1390235E-02

 * 64 selected distances

     #   Z          #   Z                                           value/Å
     1   7 N        2   6 C                                       1.2487541
     4   6 C        5   6 C                                       1.3964211
     5   6 C        6   6 C                                       1.3846902
     6   6 C        7   8 O                                       1.3493008
     7   8 O        8   6 C                                       1.4081698
     6   6 C        9   6 C                                       1.4210013
     9   6 C       10   8 O                                       1.3484512
    10   8 O       11   6 C                                       1.4083843
     9   6 C       12   6 C                                       1.3854345
     4   6 C       13   6 C                                       1.3859383
    12   6 C       13   6 C                                       1.3895714
    14   6 C       15   6 C                                       1.5399385 (max)
    15   6 C       16   6 C                                       1.4795168
    16   6 C       17   7 N                                       1.3304566
    17   7 N       18   6 C                                       1.4428888
    20   6 C       21   6 C                                       1.3892619
    21   6 C       22   6 C                                       1.3814586
    22   6 C       23   6 C                                       1.3934117
    23   6 C       24   8 O                                       1.3539952
    24   8 O       25   6 C                                       1.3041862
    23   6 C       26   6 C                                       1.4219741
    26   6 C       27   8 O                                       1.3444454
    27   8 O       28   6 C                                       1.4096766
    20   6 C       29   6 C                                       1.3929624
    26   6 C       29   6 C                                       1.3867731
    17   7 N       30   6 C                                       1.4431082
    31   6 C       32   6 C                                       1.5269095
    31   6 C       33   6 C                                       1.5261518
     5   6 C       34   1 H                                       1.0772845
     8   6 C       35   1 H                                       1.0941561
     8   6 C       36   1 H                                       1.0881921
     8   6 C       37   1 H                                       1.0949397
    11   6 C       38   1 H                                       1.0939713
    11   6 C       39   1 H                                       1.0881853
    11   6 C       40   1 H                                       1.0947909
    12   6 C       41   1 H                                       1.0779491
    13   6 C       42   1 H                                       1.0790687
    14   6 C       43   1 H                                       1.0894505
    14   6 C       44   1 H                                       1.0906464
    15   6 C       45   1 H                                       1.0885180
    15   6 C       46   1 H                                       1.0980316
    16   6 C       48   1 H                                       1.0798462
    18   6 C       49   1 H                                       1.0935978
    18   6 C       50   1 H                                       1.0921151
    19   6 C       51   1 H                                       1.0909829
    19   6 C       52   1 H                                       1.0902041
    21   6 C       53   1 H                                       1.0790938
    22   6 C       54   1 H                                       1.0776393
    25   6 C       55   1 H                                       1.0731544 (min)
    25   6 C       56   1 H                                       1.0756354
    28   6 C       58   1 H                                       1.0878173
    28   6 C       59   1 H                                       1.0938450
    28   6 C       60   1 H                                       1.0935943
    29   6 C       61   1 H                                       1.0786013
    30   6 C       62   1 H                                       1.0917304
    30   6 C       63   1 H                                       1.0932226
    30   6 C       64   1 H                                       1.0866758
    31   6 C       65   1 H                                       1.0959865
    32   6 C       66   1 H                                       1.0851069
    32   6 C       67   1 H                                       1.0872790
    32   6 C       68   1 H                                       1.0866925
    33   6 C       69   1 H                                       1.0855511
    33   6 C       70   1 H                                       1.0868368
    33   6 C       71   1 H                                       1.0868161

 * 4 distinct bonds (by element types)

   Z      Z             #   av. dist./Å        max./Å        min./Å
   1 H    6 C          36     1.0874225     1.0980316     1.0731544
   6 C    6 C          16     1.4250884     1.5399385     1.3814586
   6 C    7 N           4     1.3663019     1.4431082     1.2487541
   6 C    8 O           8     1.3658262     1.4096766     1.3041862


optimized geometry written to: xtbopt.xyz


           -------------------------------------------------
          | TOTAL ENERGY              -99.269787671199 Eh   |
          | GRADIENT NORM               0.001365264057 Eh/α |
          | HOMO-LUMO GAP               0.569239461803 eV   |
           -------------------------------------------------

------------------------------------------------------------------------
 * finished run on 2024/04/06 at 11:14:30.935     
------------------------------------------------------------------------
 total:
 * wall-time:     0 d,  0 h,  0 min,  7.934 sec
 *  cpu-time:     0 d,  0 h,  0 min,  7.913 sec
 * ratio c/w:     0.997 speedup
 SCF:
 * wall-time:     0 d,  0 h,  0 min,  0.190 sec
 *  cpu-time:     0 d,  0 h,  0 min,  0.190 sec
 * ratio c/w:     1.000 speedup
 ANC optimizer:
 * wall-time:     0 d,  0 h,  0 min,  7.702 sec
 *  cpu-time:     0 d,  0 h,  0 min,  7.698 sec
 * ratio c/w:     1.000 speedup

