25
 energy: 0.000000000000 xtb: 6.6.1 (8d0f1dd)
C            3.23720163006194        1.16630919979326        0.08434469647475
N            2.29877817382611        0.07527477071623        0.03981603040599
C            2.58028210190900       -1.21425402444508        0.03006176031096
N            1.43813958087363       -1.93419271955128        0.00098261760884
C            0.39035688448383       -1.05887472636071       -0.00790371836672
C            0.93510056364412        0.21347819449412        0.01709077491437
C            0.09450143893243        1.40504303904423       -0.00410947031874
O            0.49712751527797        2.54126714362870       -0.00342325688240
N           -1.25076640035757        1.06271879480407       -0.03085478223738
C           -2.21907211982101        2.15522099834493       -0.05001256985998
C           -1.81739487048744       -0.20012725993278       -0.04692818574614
O           -2.99983886758376       -0.37846417018721       -0.07008878229737
N           -0.92618586207120       -1.30210215599479       -0.03682761578324
C           -1.46982264913417       -2.64643102187190       -0.06029820460571
H            3.71247264356769        1.21471455160235        1.06488849150277
H            4.00791497605742        1.03430808813993       -0.67357694370751
H            2.69910007168542        2.09770118228144       -0.09130154882931
H            3.56654120610678       -1.63682992603973        0.04233140067262
H           -1.67107961066214        3.09322851271934       -0.02552706933167
H           -2.82428953597071        2.09428624779827       -0.95318082946668
H           -2.87644029173232        2.07745725625962        0.81450067533302
H           -1.17061996399332       -3.19584890659852        0.83242232437030
H           -1.14560257411436       -3.17511610292205       -0.95688275822323
H           -2.55549792440841       -2.55659984320617       -0.07459039797972
H            1.38130855184625       -2.94313852034425       -0.01389874181052
25
 energy: -3.811904537283 xtb: 6.6.1 (8d0f1dd)
C            3.23381869603864        1.20488159551851        0.06108392288175
N            2.29653573548216        0.11139530939927        0.02313932953625
C            2.57277355501417       -1.22033069706787        0.05050365182086
N            1.41342561616251       -1.95087832798216        0.02216435851975
C            0.38003270442298       -1.07649816881447       -0.00002306394191
C            0.91544993923830        0.20808156708632        0.02415002084748
C            0.10466939456393        1.38377278873843        0.02084805135921
O            0.52039117578187        2.54200709896255        0.03535271279836
N           -1.25686290109423        1.05087152402051       -0.02012707450680
C           -2.19447968566104        2.16888508857176       -0.04368156230038
C           -1.82398738406014       -0.20288339398542       -0.05119131313735
O           -3.02042659151416       -0.37754356711337       -0.09061897150347
N           -0.94480728621742       -1.31876894875045       -0.03571237749876
C           -1.46701526660281       -2.67863545427086       -0.07469787846327
H            3.70544074673851        1.26058124982205        1.04848644475156
H            3.97385326694825        1.04740235129060       -0.73110145264136
H            2.73072005421354        2.15541401544720       -0.11247448646918
H            3.54423677370457       -1.63202904480592        0.08771993289013
H           -1.61532657457952        3.09105639514176       -0.01159330257289
H           -2.79179242478410        2.13417629312377       -0.95418384473671
H           -2.86010840459177        2.11365960234264        0.81665829587299
H           -1.17539164409832       -3.25676600980073        0.80717114359059
H           -1.14141488223439       -3.21665775764568       -0.97014084466647
H           -2.55041132557396       -2.59442671449137       -0.09271154904287
H            1.36289138063865       -2.95773819256504        0.01801375275979
25
 energy: 4.711906718339 xtb: 6.6.1 (8d0f1dd)
C            3.22277810495784        1.26728904317907        0.00686851131269
N            2.28409745710191        0.16712191722345       -0.01823403146978
C            2.54412617811041       -1.21726974095557        0.09568105103468
N            1.37339352061481       -1.97175693059084        0.06948312204193
C            0.35609900764180       -1.11266153170847        0.02026816443359
C            0.87668500060783        0.19012086967142        0.03684544891580
C            0.11804282450576        1.33930689692078        0.07087926294409
O            0.55120850884753        2.51360528600214        0.12316713772398
N           -1.27079685277980        1.03255497753877        0.00194326234389
C           -2.14564395986055        2.20119643352487       -0.02954034468158
C           -1.83365982090631       -0.20950582674221       -0.06020439859214
O           -3.04103060740426       -0.37813435282662       -0.13664309496396
N           -0.97834106119431       -1.35156962904871       -0.02987207565461
C           -1.46366316037542       -2.73936480362414       -0.10565030177175
H            3.69184828966173        1.34305960116251        1.00033549191771
H            3.90724817380493        1.07334684831031       -0.84270538037160
H            2.78323086046900        2.25575682095472       -0.16091593752868
H            3.49884534200006       -1.60746814046943        0.19154140147690
H           -1.50001493163690        3.08753494043427        0.01963705161880
H           -2.72462781399215        2.22071904313372       -0.95488068182192
H           -2.82749532993347        2.19212538067349        0.82131298787515
H           -1.18354060651371       -3.36894641545184        0.75478096778115
H           -1.12963130176832       -3.28551165276928       -1.00131192860094
H           -2.54483285885497       -2.67338273722998       -0.13293367159472
H            1.34788970483280       -2.97913769514042        0.08718188177864
25
 energy: 23.912008483521 xtb: 6.6.1 (8d0f1dd)
C            3.20493630944116        1.32562985514046       -0.06001691224676
N            2.26635022011483        0.21127052538383       -0.06481147027418
C            2.50826075089765       -1.20787915623081        0.13852105593492
N            1.34196242877481       -1.99344296794053        0.12340374590826
C            0.32770869609118       -1.15459125182763        0.04153031327087
C            0.83993821046850        0.16277468570190        0.04647782666864
C            0.12073158867362        1.30240525428743        0.13119285151924
O            0.57182621914137        2.47875167878211        0.22672028882738
N           -1.28788936868068        1.02043465063995        0.03065146590492
C           -2.09266487188361        2.24198179167386       -0.01222556052770
C           -1.84594002981428       -0.21788398071428       -0.07305267590861
O           -3.05703868314215       -0.38145765540864       -0.18965944171077
N           -1.01051806847140       -1.38824663795551       -0.02295559818372
C           -1.46120000044972       -2.80508690814933       -0.14112668487440
H            3.67655201500030        1.42372609056725        0.93403890601866
H            3.83277761923133        1.10378112487041       -0.96184242484911
H            2.82927443392367        2.35126777088019       -0.22235347302657
H            3.45520624705175       -1.57300498362824        0.32556973021467
H           -1.37466615638534        3.08402132257992        0.05762359416142
H           -2.64531176478730        2.32123536037421       -0.95432894002120
H           -2.79066261532460        2.28535553017295        0.82637415626032
H           -1.19262953710458       -3.48286747541757        0.69695732458478
H           -1.11378136493838       -3.35077122258729       -1.03907742412351
H           -2.54121778190340       -2.76503130182954       -0.18157534935439
H            1.35021017201155       -3.00334349719306        0.17099859197412
25
 energy: 44.742143294004 xtb: 6.6.1 (8d0f1dd)
C            3.18512109458009        1.37390468618235       -0.12569695577408
N            2.24859338167797        0.23829015927379       -0.11246770007310
C            2.46952168854989       -1.19403336500692        0.15889074335704
N            1.32234507812405       -2.01523002553236        0.17002710683155
C            0.29806427133937       -1.19737112276329        0.05482330030970
C            0.81212901367057        0.12814644269108        0.04332706123431
C            0.11476704178848        1.27740374493190        0.19400592695853
O            0.58768257443913        2.43696858940813        0.32816563897183
N           -1.30394935251990        1.01918497311295        0.06456919830955
C           -2.04365522133794        2.28416624123433        0.00495217054270
C           -1.85700542330903       -0.22301459886027       -0.08732044928347
O           -3.06288133135467       -0.38274377260404       -0.23978885352165
N           -1.03649833158778       -1.42250458316480       -0.01744220460393
C           -1.45954478555058       -2.86719235454554       -0.17275887541276
H            3.65869319678586        1.48692113296236        0.86654899898212
H            3.76046501155195        1.13602859177736       -1.06787751680425
H            2.86696505895572        2.43022392357606       -0.28265338074065
H            3.40871979513250       -1.52643083539666        0.47905701793109
H           -1.27141249627366        3.08278280937560        0.09336161575724
H           -2.56440316124824        2.41252552680501       -0.95041843076890
H           -2.75229982295171        2.37818043391698        0.82993716630540
H           -1.20158204744061       -3.57939687079249        0.64684803347163
H           -1.09798956363302       -3.40757038688501       -1.07356859318106
H           -2.53836831309139       -2.85281298918542       -0.22819591254583
H            1.36873731163927       -3.02739774833907        0.25070878989427
25
 energy: 58.076067083398 xtb: 6.6.1 (8d0f1dd)
C            3.16617757543749        1.40218803483982       -0.17694873368311
N            2.23358949794451        0.23893214648817       -0.14743277967862
C            2.43516405650314       -1.17405604694863        0.15065374715158
N            1.32108869277945       -2.02817564350355        0.20369667651674
C            0.27245056589670       -1.22996886879459        0.06046080817084
C            0.79909810027702        0.09440089396721        0.02642487774580
C            0.10427318008273        1.26155654369264        0.24054138484502
O            0.60319100453870        2.38076967607506        0.41185814086049
N           -1.31124860307540        1.02817432181936        0.09724532322890
C           -2.00563874369022        2.31684194613551        0.01770556030172
C           -1.86429235286882       -0.22319030823854       -0.09833299009175
O           -3.05439468002212       -0.37810665816744       -0.28188310502631
N           -1.04982551246914       -1.44703129185259       -0.01401423621026
C           -1.46004284707662       -2.91336803164659       -0.19270822416668
H            3.64209106897107        1.51604788836846        0.81048623511341
H            3.70327961509045        1.16257047891019       -1.13655372889276
H            2.88373076446890        2.47366618076491       -0.32937345107068
H            3.34979668933841       -1.46159037188717        0.61716143407108
H           -1.21499011444079        3.08273106192865        0.11897534983042
H           -2.49580683588771        2.47086955437528       -0.94260062683187
H           -2.71597730388551        2.45058824948860        0.83008735352929
H           -1.20859063396195       -3.63499490127139        0.61716290763595
H           -1.08543698541471       -3.44290350699177       -1.09579583153356
H           -2.53730518582267       -2.91739665233254       -0.26313533970473
H            1.40183365522340       -3.03952609304699        0.30335314403638
25
 energy: 61.972100821928 xtb: 6.6.1 (8d0f1dd)
C            3.14726323457967        1.41024285337980       -0.21403560032669
N            2.22128576171445        0.22413803438484       -0.15881076162046
C            2.42441617481896       -1.15466543732513        0.15068459946736
N            1.33401683350958       -2.02629849022159        0.22918374395583
C            0.26172432933616       -1.24302049545429        0.06706621248356
C            0.79323612329865        0.07737741869812        0.01021419936075
C            0.09545865080326        1.24468305732651        0.25346844381136
O            0.61881554744101        2.32991279633095        0.48938829244057
N           -1.30852973824770        1.03122000581079        0.11512420063489
C           -1.98159087716519        2.33185567236423        0.02585094376729
C           -1.86962703562933       -0.22442686859767       -0.10362702604192
O           -3.04760861848020       -0.37087616534933       -0.32526684656843
N           -1.05218559460879       -1.45985111246664       -0.01342747663392
C           -1.46237057248628       -2.93593463230885       -0.20117452500450
H            3.63413510968792        1.51609592718531        0.76529356742725
H            3.66479003753068        1.16880127631991       -1.17660305083505
H            2.86513700820037        2.47822050286975       -0.36261361093734
H            3.29493069490157       -1.39349381635469        0.70284216190222
H           -1.18243565878464        3.07898533932685        0.14042371582420
H           -2.45189353907749        2.50106994652429       -0.93914432714827
H           -2.69502087037010        2.49085966379860        0.82905090412488
H           -1.21183748575469       -3.65041044175051        0.60838979916185
H           -1.07518821054781       -3.45261693269343       -1.10425569538272
H           -2.53831534871844       -2.94919144828602       -0.28407597480467
H            1.43360871198475       -3.03364805133970        0.32308800708927
25
 energy: 59.278070224849 xtb: 6.6.1 (8d0f1dd)
C            3.13257785014504        1.40434551329361       -0.24494778310676
N            2.21300539003952        0.20827425683180       -0.18170936435862
C            2.43442154385431       -1.14461343801446        0.15343591472431
N            1.34768969935284       -2.01760481259014        0.23168896365579
C            0.26512202436953       -1.24326491076884        0.05555885967451
C            0.78974497742269        0.07531205523816       -0.02191743401429
C            0.08824048838957        1.23324452984744        0.25635551539754
O            0.62768959888842        2.30041660410945        0.56046702982981
N           -1.30429949222646        1.03014503893785        0.11976673519828
C           -1.97230799841312        2.33485172386542        0.03438467201592
C           -1.87096839780497       -0.22524050947583       -0.11031696495369
O           -3.04222330896096       -0.36476538365799       -0.35686070224925
N           -1.04901108554173       -1.46292917284972       -0.02115626609022
C           -1.46476567637589       -2.93882001818189       -0.20254765169661
H            3.63169887953979        1.49660322326793        0.72799992012421
H            3.64517772890578        1.16373841182785       -1.20548307345272
H            2.83386502720933        2.46517934454234       -0.38180290545360
H            3.26606551548884       -1.34256135980194        0.81137934153996
H           -1.16730591797631        3.07487402639190        0.16372986826937
H           -2.43195515775393        2.51170035793011       -0.93536136656934
H           -2.68970279879724        2.49890090022404        0.83132331036215
H           -1.21083627678094       -3.64440472134313        0.61086607597994
H           -1.07168614060780       -3.44885794620681       -1.10369294437801
H           -2.53951088495102       -2.95285242631409       -0.29037419395657
H            1.45148908052110       -3.02264268493098        0.32624833965520
25
 energy: 50.931834171900 xtb: 6.6.1 (8d0f1dd)
C            3.11817549716211        1.38239771553755       -0.27185504361093
N            2.20731037743481        0.18116618756015       -0.19592502261730
C            2.46390914991578       -1.14019665907463        0.17825362873940
N            1.36690128445681       -2.00121095614148        0.24145803511385
C            0.28076700582835       -1.23214202196849        0.04571078836251
C            0.79289194385525        0.08301971034868       -0.05566582624243
C            0.07986783172811        1.22506623917944        0.26643661403286
O            0.62534881548613        2.27135446538680        0.61801390612248
N           -1.29596731640683        1.02656931310525        0.12184261337801
C           -1.96993264133984        2.33010657809354        0.04019845013235
C           -1.86827400782048       -0.22707342895165       -0.11443699115765
O           -3.03271496404508       -0.35959087206902       -0.38772324538072
N           -1.03742616563372       -1.45850220078365       -0.02920540704075
C           -1.46604509743954       -2.92563552113591       -0.20254726046936
H            3.63916495868971        1.46500416502418        0.68979291156424
H            3.63634511224420        1.15144256003480       -1.22494367214128
H            2.78347067794211        2.42903004588034       -0.39322314214141
H            3.22481482150003       -1.28705331473567        0.87573063948124
H           -1.16726183252919        3.07054292341527        0.18477469760203
H           -2.41925667591767        2.50640358772355       -0.93501335937206
H           -2.69647413860953        2.48967153364640        0.82935055704406
H           -1.20957839637585       -3.62069285304992        0.61806332822061
H           -1.06603616909423       -3.42769333603570       -1.10107730955746
H           -2.54062456856616       -2.93849077893709       -0.29561741137907
H            1.46283916547108       -3.00446447988060        0.32464141746411
25
 energy: 45.736937287453 xtb: 6.6.1 (8d0f1dd)
C            3.11080216093667        1.36492975802420       -0.29469268496852
N            2.20468240701556        0.16890978263426       -0.23589506779168
C            2.48786342404677       -1.14240989599117        0.18054595140308
N            1.37173379305120       -1.99328450367079        0.23306677945715
C            0.29437343657298       -1.22540506572044        0.01706917981025
C            0.79477932727880        0.08943098460537       -0.10362414141159
C            0.08123759354909        1.21725561232354        0.27602067975559
O            0.62384364393568        2.25276445196744        0.65796787515675
N           -1.29103201931007        1.02155202689579        0.12219833545394
C           -1.96948598339030        2.32547711664321        0.05159753039039
C           -1.86277601440258       -0.22897825174709       -0.11963733944761
O           -3.02522654946740       -0.35847208869968       -0.39830229791340
N           -1.02958915599092       -1.45395018636833       -0.04055246780594
C           -1.46526802852034       -2.91194978126227       -0.20534236870563
H            3.64561050390246        1.44109715990122        0.66015904586782
H            3.63351908267506        1.15100368322130       -1.24960224060407
H            2.75576800950257        2.40794494260667       -0.39734876775662
H            3.19506481004957       -1.24365466616871        1.00719228912036
H           -1.17118671365924        3.06940498747733        0.20418185219043
H           -2.41526517918917        2.50221485382169       -0.92531158949277
H           -2.70314509028257        2.47678374475409        0.83685433122768
H           -1.20712686375866       -3.60574154605164        0.61831905074397
H           -1.06593457249122       -3.41483014586616       -1.10250633958388
H           -2.54024559318528       -2.92278291704958       -0.29613583212935
H            1.45921823906772       -2.99828145410810        0.33081213318096
25
 energy: 44.055062132359 xtb: 6.6.1 (8d0f1dd)
C            3.11396194882014        1.35834970068743       -0.29209818573927
N            2.20875416152425        0.17076293237539       -0.23792019334545
C            2.49457964259713       -1.14812704319740        0.18610212762923
N            1.36471611473373       -1.99445548094857        0.23481847404539
C            0.29875822317669       -1.22255997063872        0.00767118121460
C            0.79896590193635        0.09175537139679       -0.11297806952735
C            0.09068445794224        1.21657783579702        0.27392344984657
O            0.62438233338139        2.25674786341883        0.66258410674011
N           -1.28930798912188        1.01821878505357        0.11674384706707
C           -1.97308797426471        2.31982553179510        0.05328583240899
C           -1.85809334899815       -0.23096355964098       -0.12560577688008
O           -3.02415782941029       -0.36239725034046       -0.39223801535697
N           -1.02699577255850       -1.44962516436525       -0.04363609499410
C           -1.46253755209211       -2.90169677420682       -0.20606199834820
H            3.65301677121711        1.44259136709956        0.65961976419511
H            3.64012229075856        1.15495524825397       -1.25200367198904
H            2.75519343018190        2.40106890471868       -0.39412890862261
H            3.17981198643700       -1.23778710707247        1.00984431041638
H           -1.18015277883890        3.06953439710832        0.20338573419693
H           -2.42244561070077        2.49507155838324       -0.92253721720994
H           -2.70840042613010        2.46157048991505        0.83946328386892
H           -1.20697068116287       -3.59688459161251        0.61835964502233
H           -1.06582192967516       -3.41098661538565       -1.10233961832765
H           -2.53848035486813       -2.91095546791741       -0.29423473006899
H            1.44571965305146       -3.00156235850461        0.33701461990533
25
 energy: 41.557828713683 xtb: 6.6.1 (8d0f1dd)
C            3.12109324810257        1.34514145645360       -0.28520312558500
N            2.21984822856661        0.16884643834922       -0.24018048236201
C            2.50597897744935       -1.15630784694278        0.17658971522653
N            1.35453083957220       -1.99476927554883        0.23257080092848
C            0.30545891286520       -1.21705994011273       -0.01172448788785
C            0.81140798991548        0.09452762088379       -0.13375540210285
C            0.10619487966215        1.21598450875262        0.26860917632463
O            0.61916063838169        2.25541076747112        0.64505872147984
N           -1.28426943958124        1.01280491723422        0.11467954091609
C           -1.97855238580864        2.30728667315214        0.05567662323673
C           -1.84911990158985       -0.23501039376726       -0.12418122627921
O           -3.02110998163984       -0.36933004352612       -0.37538447377225
N           -1.02048402287164       -1.44109608234066       -0.04558699476582
C           -1.45795359348213       -2.88276645595056       -0.20702721631328
H            3.66582494593730        1.43693252658210        0.66129175381238
H            3.65661090013079        1.16326425181584       -1.24655346099105
H            2.75721095354666        2.38785427338100       -0.38491049900242
H            3.13178638397536       -1.20975985161701        1.03725397170750
H           -1.19591916777482        3.06615861946679        0.20141177970478
H           -2.43490078395703        2.47811049994386       -0.91667630466875
H           -2.71449493405183        2.43337333019638        0.84461400701937
H           -1.20597277330556       -3.57889867382643        0.61784680262264
H           -1.06836087887523       -3.40033123137075       -1.10384462524879
H           -2.53555590459666       -2.88794293903206       -0.28938665513858
H            1.42380153736547       -3.00339454747538        0.33584595728621
25
 energy: 41.602221480092 xtb: 6.6.1 (8d0f1dd)
C            3.12414359145552        1.34164725891095       -0.28991553787835
N            2.22781855196579        0.16769660700928       -0.24513221910457
C            2.51462860677021       -1.16276516839978        0.17503392277661
N            1.34981588388363       -1.99742618974485        0.23315636280407
C            0.30792266634636       -1.21702185488137       -0.03133720343697
C            0.81867389266308        0.09327385079347       -0.16022063424753
C            0.11691766240786        1.21406508436178        0.25106448100510
O            0.62264729870505        2.25358076447814        0.66774834165624
N           -1.27987886023029        1.00898900938591        0.11026176221268
C           -1.97829457510995        2.30043071206582        0.05965237009685
C           -1.84397044328103       -0.23852152509788       -0.12822287068616
O           -3.02032133243496       -0.37321197728775       -0.36358466120521
N           -1.01728642178369       -1.43819271416900       -0.05140550459394
C           -1.45557402681219       -2.87604530797617       -0.20814554113621
H            3.66956979624702        1.43563199578516        0.65580497953887
H            3.66531563665791        1.16602733997326       -1.24952029812522
H            2.76114082758720        2.38535955337527       -0.39038675471644
H            3.07561638380973       -1.17441501579891        1.08949797842311
H           -1.19926604135050        3.06347412607292        0.20370577531937
H           -2.44085035825331        2.47247177678826       -0.90995864550933
H           -2.71210165522518        2.41910638259735        0.85216783750065
H           -1.20391313480252       -3.57130203630170        0.61694837058609
H           -1.07110729290547       -3.39873787588430       -1.10515539194003
H           -2.53409820242888       -2.87945173881966       -0.28666225456509
H            1.41466621405495       -3.00563445506406        0.33163923137273
25
 energy: 43.463306503247 xtb: 6.6.1 (8d0f1dd)
C            3.12862675553680        1.34864654090597       -0.28921886179427
N            2.23429238273510        0.17083058684152       -0.23936197217048
C            2.51539825040076       -1.16654366537840        0.17917860713507
N            1.34927171525245       -2.00086745932620        0.22815088020249
C            0.30573959800709       -1.21947835341405       -0.03580399085558
C            0.82288352475282        0.09071136287257       -0.16123360279454
C            0.12035382915692        1.21516379739548        0.23754777658570
O            0.62575431400891        2.25227597345485        0.64390437709449
N           -1.27760656725394        1.00857900720767        0.11127967038401
C           -1.97655788632692        2.29870588385299        0.06136855665000
C           -1.84403269698054       -0.23961754776888       -0.12173613922031
O           -3.02365446377461       -0.37400200215991       -0.34682874720829
N           -1.01737559651349       -1.43896131671305       -0.05239270731837
C           -1.45570801978899       -2.88007660639962       -0.20987675184448
H            3.66624570541354        1.43820908016132        0.66202035166433
H            3.67157097971684        1.16350334203246       -1.24484710522966
H            2.77250217545296        2.39357730153782       -0.39372224379638
H            3.03754460941700       -1.15690879181357        1.11295500827113
H           -1.19765670239151        3.06284584633367        0.20332102374966
H           -2.44536271534689        2.47164746079822       -0.90572796900765
H           -2.70533799209483        2.41785469460492        0.85848750792397
H           -1.20185352319595       -3.57583484025360        0.61323435102415
H           -1.07476744848804       -3.40101059335428       -1.10926426453846
H           -2.53424575624269       -2.88206690341080       -0.28579926496738
H            1.41619019648356       -3.00815419583500        0.31139940620816
25
 energy: 45.766246764904 xtb: 6.6.1 (8d0f1dd)
C            3.13415406841114        1.35732258289089       -0.28722409069918
N            2.23937326984375        0.17228731007860       -0.23732732545843
C            2.51728154047835       -1.17040808978043        0.18561047632765
N            1.35340920170598       -2.00517198381160        0.21180475018588
C            0.30494772329872       -1.22264455195129       -0.04307092378698
C            0.82680692963793        0.08704562740132       -0.16139513516236
C            0.11950377965994        1.21967332913909        0.22273347966780
O            0.63272826703898        2.25422892869842        0.61673619569739
N           -1.27418096588702        1.01096791216735        0.10955041400611
C           -1.97515118306331        2.29944932946042        0.06318700536606
C           -1.84565368371917       -0.23890254891221       -0.11500294892232
O           -3.02733548414322       -0.37211929295176       -0.32413735756825
N           -1.01655475186017       -1.44098851261747       -0.05770217849467
C           -1.45730354698148       -2.88889854351472       -0.20925120450274
H            3.65960075415702        1.43955830692600        0.67349584535109
H            3.67851855695067        1.15751280012864       -1.23699535595906
H            2.78540314172470        2.40261825067217       -0.39592104113365
H            2.99080719852320       -1.13713252990055        1.14638976202779
H           -1.19828810924704        3.06543171261105        0.20006840428681
H           -2.45155665393264        2.47011331052129       -0.90027115969665
H           -2.69722850877687        2.42047515056473        0.86582148935630
H           -1.19713015657148       -3.58234328980825        0.61251777448935
H           -1.08022745160643       -3.40670434019028       -1.11054696088661
H           -2.53540646268977       -2.88893601318725       -0.28049984712464
H            1.42569719498458       -3.01340625246204        0.27846382878061
25