25
 energy: 0.000000000000 xtb: 6.6.1 (8d0f1dd)
C            3.23720132972391        1.16630909158653        0.08434468864950
N            2.29877796055224        0.07527476373246        0.03981602671198
C            2.58028186251803       -1.21425391179017        0.03006175752192
N            1.43813944744728       -1.93419254010258        0.00098261751768
C            0.39035684826767       -1.05887462812143       -0.00790371763344
C            0.93510047688824        0.21347817468824        0.01709077332874
C            0.09450143016486        1.40504290868848       -0.00410946993748
O            0.49712746915594        2.54126690785742       -0.00342325656480
N           -1.25076628431515        1.06271869620815       -0.03085477937476
C           -2.21907191394203        2.15522079838987       -0.05001256521996
C           -1.81739470187490       -0.20012724136556       -0.04692818139228
O           -2.99983858926755       -0.37846413507442       -0.07008877579474
N           -0.92618577614240       -1.30210203518959       -0.03682761236648
C           -1.46982251276835       -2.64643077634382       -0.06029819901142
H            3.71247229913541        1.21471443890471        1.06488839270555
H            4.00791460421487        1.03430799217987       -0.67357688121503
H            2.69909982127087        2.09770098766290       -0.09130154035862
H            3.56654087521359       -1.63682977417947        0.04233139674524
H           -1.67107945562430        3.09322822573871       -0.02552706696334
H           -2.82428927394145        2.09428605349656       -0.95318074103337
H           -2.87644002486466        2.07745706351925        0.81450059976605
H           -1.17061985538665       -3.19584861009707        0.83242224714061
H           -1.14560246782873       -3.17511580834413       -0.95688266944647
H           -2.55549768731684       -2.55659960601237       -0.07459039105944
H            1.38130842369251       -2.94313824728853       -0.01389874052104
25
 energy: -4.595321229453 xtb: 6.6.1 (8d0f1dd)
C            3.22483137607828        1.19782423544309        0.05790323215752
N            2.27410482471890        0.12604280705696        0.00045162354390
C            2.56102549064143       -1.22262252585407        0.08436222667306
N            1.39778589727266       -1.95158614459196        0.03926020620587
C            0.36417383510545       -1.09455528498168        0.01702059234605
C            0.88007333354377        0.19980552615181        0.03158659456811
C            0.10621842512510        1.36807690249383        0.02375063011940
O            0.50780444401103        2.53559832736831        0.03686404483420
N           -1.27844966601441        1.03883962925418       -0.01381831283964
C           -2.20543157345578        2.15981594081032       -0.04436152861605
C           -1.83385515540465       -0.20844317672696       -0.06156859450349
O           -3.03299410037313       -0.38269767912429       -0.10497000102321
N           -0.97391247027519       -1.33714226168187       -0.02918248902844
C           -1.47700734236862       -2.68846235990443       -0.07766556798923
H            3.70497253293753        1.24969352860048        1.04274397201138
H            3.97369793914247        1.04727972675981       -0.72520968326128
H            2.71518671881008        2.14315465696352       -0.11128074256667
H            3.53504144092683       -1.62566917839066        0.12710333745804
H           -1.62842976177855        3.08355872969358       -0.01722324860871
H           -2.80519819695648        2.12239589815404       -0.95312031904978
H           -2.86712997812548        2.10915956386928        0.81841433797991
H           -1.17218343385705       -3.24470569437484        0.81204610969856
H           -1.13884436474031       -3.21327533064324       -0.97385176378830
H           -2.55952674436652       -2.60688752216262       -0.09612734578535
H            1.36405822840266       -2.95763314850921        0.02735200926730
25
 energy: 0.356716071752 xtb: 6.6.1 (8d0f1dd)
C            3.20978941193497        1.22273849837693        0.02822423208088
N            2.24609735796946        0.14683659176382       -0.04003186653118
C            2.52128859403574       -1.20629554363927        0.12198025580550
N            1.37488144579850       -1.96628247444744        0.07483924314499
C            0.32866214255387       -1.13046382203575        0.03418979031799
C            0.84311731432682        0.16978534980123        0.03244756608860
C            0.09988538813401        1.34900384445747        0.05200235483107
O            0.52254789914107        2.50995431009060        0.08083931031788
N           -1.28778885104671        1.03072082793407        0.00531263019783
C           -2.19103353167061        2.17062547725073       -0.03881818882347
C           -1.84956248859797       -0.21325011743830       -0.07588330180771
O           -3.04903017846368       -0.37693052715707       -0.14079538235203
N           -1.01048223309751       -1.37331072357383       -0.02052254109078
C           -1.48401443467903       -2.73411460131090       -0.09444439367041
H            3.69403365991860        1.27809344588767        1.01516578966069
H            3.93599787268437        1.06050059840471       -0.77734519541007
H            2.73116441007531        2.18512638918465       -0.13001082497068
H            3.49298518160605       -1.60041966373979        0.21713105068319
H           -1.59486227998848        3.08276699103085       -0.00788665635424
H           -2.78303745975585        2.14856948050227       -0.95327481273901
H           -2.85789196200455        2.13860531406765        0.81984302573661
H           -1.17861093831174       -3.29214903844517        0.79393458614344
H           -1.13375972666591       -3.25260398251896       -0.98909279958935
H           -2.56397355613779       -2.66076726265980       -0.11894038947762
H            1.35840884542690       -2.97361124853079        0.06659280973057
25
 energy: 8.074540005696 xtb: 6.6.1 (8d0f1dd)
C            3.19559711404647        1.24685520968835       -0.00349633182993
N            2.22164412629283        0.16311337804036       -0.09427224791294
C            2.48237516042353       -1.19443518641355        0.11624892559582
N            1.35140348146288       -1.98296406185062        0.10773106597201
C            0.29347547073385       -1.16744959103174        0.03870274565443
C            0.81272835637069        0.13579205656432        0.01157560225523
C            0.09482892333224        1.32628179486582        0.07826406252119
O            0.53664665569956        2.48061841934371        0.12460052212663
N           -1.29713741118349        1.02331022160028        0.02813892249647
C           -2.17580097730359        2.18197504325016       -0.03201749826858
C           -1.86582534245807       -0.21857209376325       -0.08027166001104
O           -3.06422486039156       -0.37146154484375       -0.17347858504414
N           -1.04744112094801       -1.40764660673883       -0.01845238936107
C           -1.49061609916903       -2.77947465385865       -0.11202021978655
H            3.67982884516198        1.30509196082803        0.98796095079809
H            3.90081838864811        1.07475076575830       -0.82849229850028
H            2.74917206456345        2.22632595218126       -0.15036872239477
H            3.44787132521941       -1.56860189799840        0.31187986878322
H           -1.56045457076273        3.08191102776912        0.00191946133911
H           -2.76025355558837        2.17501240657043       -0.95201668044114
H           -2.84766669457398        2.16938247659673        0.82213194813259
H           -1.18381142629763       -3.33901985698149        0.77524713311066
H           -1.12839577059539       -3.29183036331322       -1.00494555026508
H           -2.56800361390946       -2.71439415088322       -0.14198732507225
H            1.35751589892098       -2.99106295525713        0.10671597445054
25
 energy: 17.593467371485 xtb: 6.6.1 (8d0f1dd)
C            3.18442092656410        1.27107617675752       -0.03763541156416
N            2.20648233498808        0.17435760657146       -0.15853470222116
C            2.45289075610500       -1.18812026834319        0.08781944471424
N            1.33185471986593       -2.00050716690896        0.13379634088734
C            0.26485765635728       -1.20119264436243        0.03849997462033
C            0.79532946774573        0.10487080103869       -0.01614532046681
C            0.09432442809597        1.30391412287838        0.10439511812509
O            0.55045746084379        2.45216790972163        0.17030765293163
N           -1.30070215562606        1.01806540458153        0.05124475468683
C           -2.15924883820134        2.19229675296704       -0.02549342423347
C           -1.86629263181721       -0.22902575272921       -0.08992204222396
O           -3.06654776607030       -0.36544194547977       -0.20694254014641
N           -1.07464610361726       -1.43846332393422       -0.04039793725246
C           -1.49521036556341       -2.82281444410613       -0.13102225125297
H            3.66598822287874        1.33138653682554        0.95969195507296
H            3.86878680766206        1.09205934664039       -0.88074734740870
H            2.76677049852273        2.26575440027536       -0.17145624376316
H            3.40090775259511       -1.53251803881528        0.40770351414234
H           -1.52717620707538        3.08132249842976        0.01072421429504
H           -2.73610899871186        2.19842509909173       -0.95110370197830
H           -2.83679425829325        2.19925625248258        0.82360783262373
H           -1.18750006660632       -3.38168792463544        0.75670821026329
H           -1.12320907020700       -3.33222049954664       -1.02076297341301
H           -2.57064975865870       -2.76605122966010       -0.16459930919607
H            1.35967878026219       -3.00886655267797        0.14290798607246
25
 energy: 28.475098936376 xtb: 6.6.1 (8d0f1dd)
C            3.17705372649781        1.29623239620828       -0.07029166667401
N            2.19951888423978        0.18089666554124       -0.21818367987835
C            2.43092148020762       -1.17594619156129        0.08665391232060
N            1.32030108180450       -2.01932769134440        0.15277483489007
C            0.25144693989121       -1.23084581055159        0.01837021549110
C            0.78702609677073        0.08126639666496        0.00075099877677
C            0.09623020370491        1.28594540077501        0.13652758165288
O            0.56437224304245        2.42758556354207        0.21605026391633
N           -1.30009930266651        1.01970524827024        0.07355999648467
C           -2.14134753481945        2.20590226571912       -0.01891445234565
C           -1.86356532197503       -0.22857456322775       -0.10318621948843
O           -3.06357504670399       -0.35514086260385       -0.23955428357490
N           -1.08494924231987       -1.44674262917032       -0.08880166406812
C           -1.49484018248484       -2.85516337092355       -0.15147995552577
H            3.65465368397192        1.35954417190425        0.93189168546918
H            3.83759921191498        1.11016221088121       -0.93220048062620
H            2.78554590107517        2.30442914931348       -0.19324209343759
H            3.35688236747153       -1.49246920867835        0.49697146280119
H           -1.49341211479324        3.08340299560503        0.02013235817016
H           -2.71133595858444        2.22345780077793       -0.94953556707017
H           -2.82443452196491        2.22972633806459        0.82520187904561
H           -1.18792468338777       -3.41627713776000        0.73692717490876
H           -1.11856879146805       -3.37047621419783       -1.03594875182376
H           -2.56941614584557       -2.81210765244187       -0.18547563609539
H            1.36458040010700       -3.02765409294267        0.17397851694272
25
 energy: 42.488881816782 xtb: 6.6.1 (8d0f1dd)
C            3.17107676863314        1.32262196702543       -0.10188848454487
N            2.19395117416296        0.18686862888109       -0.27107714267314
C            2.41032519847196       -1.15832596115198        0.10122949474362
N            1.31298350663001       -2.03849042913479        0.17934084695648
C            0.23873351711349       -1.25810045703709        0.02273413667183
C            0.78185632257463        0.05820787327791        0.04888400359387
C            0.09968719986447        1.27023154105518        0.17640545844588
O            0.57994429500643        2.40477296510156        0.26230412418562
N           -1.29654333316830        1.02663565230164        0.09683492826468
C           -2.12262565778923        2.22238631478675       -0.01222918667832
C           -1.86497994266335       -0.21434145496162       -0.11414516063355
O           -3.06088563665891       -0.33592051144154       -0.27333967984154
N           -1.09653627114980       -1.43798585850393       -0.10665071650328
C           -1.49568302899984       -2.88099848677795       -0.16663611826542
H            3.64288408120600        1.38706303667888        0.90507567944980
H            3.80574229737262        1.12995811057122       -0.98311445655184
H            2.80424246839513        2.34292126501494       -0.21529002217480
H            3.31361903914281       -1.44590744658487        0.57980212469180
H           -1.46064805830038        3.08833923099552        0.03045272908644
H           -2.68565627405780        2.24897637360542       -0.94783793200017
H           -2.81222927222855        2.26013637035550        0.82619790285711
H           -1.18947583385137       -3.44842942983221        0.71875071692436
H           -1.11284422484825       -3.40154160076361       -1.04715304128737
H           -2.56924577982295       -2.85754488189536       -0.20568206119222
H            1.37770998236842       -3.04705043858117        0.20340808733500
25
 energy: 60.224939121033 xtb: 6.6.1 (8d0f1dd)
C            3.16971679452362        1.35334283899753       -0.13143766477385
N            2.19510834690745        0.19740803346415       -0.32786453309276
C            2.38583032988293       -1.13200293550271        0.12150593444323
N            1.30999124495438       -2.05457056928147        0.17240046916968
C            0.22129120901803       -1.27445247930442        0.07694704171714
C            0.77996103719354        0.03777980410831        0.11115391620777
C            0.10459278521299        1.25625677721034        0.21831351046974
O            0.59387115676795        2.38353282108991        0.31111466832940
N           -1.28836978915283        1.03124427987023        0.10978045364760
C           -2.10157766362304        2.23780872363973       -0.00873884410184
C           -1.87182031698934       -0.20146448001836       -0.11703416603111
O           -3.06258077784704       -0.31507233706392       -0.30053313555213
N           -1.10728483402810       -1.42719970854993       -0.11890253438784
C           -1.49936843337668       -2.90924369406881       -0.17833297030468
H            3.63249793666051        1.41497956537913        0.88044100281717
H            3.77293090468694        1.15861400740488       -1.03496430890722
H            2.81993233714472        2.38188197316395       -0.23559642783765
H            3.26494790969739       -1.39208752626889        0.65048184977011
H           -1.42595224059831        3.09291911608661        0.03765996257413
H           -2.65838479239092        2.27343336827782       -0.94861586377025
H           -2.79678102183412        2.28910320728629        0.82484227301480
H           -1.19127544365636       -3.48367752496841        0.70149278142629
H           -1.10763432425127       -3.42986952373969       -1.05721066988811
H           -2.57190482062868       -2.90402177236797       -0.22433364786378
H            1.39835282529288       -3.06432875229269        0.22818981447631
25
 energy: 111.293169661165 xtb: 6.6.1 (8d0f1dd)
C            3.20936301044304        1.40284907514756       -0.18586689200866
N            2.37342454640522        0.27370428250958       -0.64304600928362
C            2.14505217123471       -0.87951946068857        0.24797745672259
N            1.28469458545865       -2.10879150721206        0.04468299613436
C            0.14742828610732       -1.36417381162635        0.13890483270819
C            0.78686183497065       -0.13208107796477        0.39278087567054
C            0.16386778768784        1.18488217221606        0.28126977690419
O            0.63560334281508        2.31086445284905        0.34989414288265
N           -1.23571455956646        1.01489387758665        0.09348077790359
C           -2.05788068154694        2.24105568727129       -0.00644180141323
C           -1.87735101691861       -0.20262515307017       -0.12238236640639
O           -3.06703293172834       -0.27712508897495       -0.31271443672680
N           -1.14273954287719       -1.43825606603869       -0.17938673602336
C           -1.53006159167153       -2.94216832014702       -0.20404760173869
H            3.61432152467584        1.44238364342905        0.85952205548330
H            3.79689582412451        1.23123915898386       -1.10005339039124
H            2.86094192499620        2.43665729440116       -0.26572484948686
H            3.07318191951411       -1.23002973644806        0.75835606190683
H           -1.38921709687174        3.09749457374595        0.04637003163798
H           -2.62612393228191        2.29479446773004       -0.94217086239380
H           -2.76475606668686        2.30333530781674        0.82345600716313
H           -1.20232989149183       -3.51717113076116        0.67616853362635
H           -1.11688645593519       -3.47201690616646       -1.07052578176026
H           -2.59262546415151       -2.95341568332277       -0.24325362941486
H            1.43732469281617       -3.08932947807486        0.24102768633941
25
 energy: 114.993103611309 xtb: 6.6.1 (8d0f1dd)
C            3.21870499891862        1.43696341704235       -0.21390810116977
N            2.43167726363415        0.28632687994208       -0.67937409748943
C            2.11065722020704       -0.82587952391590        0.24807926089298
N            1.28074766322579       -2.11662213958013        0.00771154525112
C            0.13386077321254       -1.39447324797229        0.17224745080320
C            0.74507378937411       -0.16887209356974        0.46202288541064
C            0.17687544641573        1.15676959015213        0.29864741036341
O            0.65842647895322        2.27720150836462        0.38077471039387
N           -1.22340100941335        1.01349367812145        0.07436286427718
C           -2.03664603255996        2.25265280687612       -0.00519042923725
C           -1.86948907949178       -0.19867031067145       -0.11890974084156
O           -3.06251558433431       -0.26986893352322       -0.27389242951944
N           -1.13438247169676       -1.44147896060807       -0.23563629172075
C           -1.52750636854887       -2.97916506979341       -0.22856476339592
H            3.60138613736819        1.47799245564483        0.84151551475953
H            3.77861615290063        1.27891440672617       -1.14988181276095
H            2.88384152558060        2.47820466967582       -0.28614724358857
H            3.00910793069941       -1.17210569984879        0.82248756492639
H           -1.35532660497138        3.09890697940135        0.05525372054902
H           -2.60261537671135        2.32236475386299       -0.94145613787941
H           -2.74642762446442        2.32706431045353        0.82317648047959
H           -1.20306524593551       -3.55501166023074        0.65504269721063
H           -1.11415191831858       -3.51424209883102       -1.08824301075853
H           -2.59236021600495       -2.99831406114065       -0.25896567699337
H            1.46337939650261       -3.09155193455016        0.22061748906882
25
 energy: 120.529757865674 xtb: 6.6.1 (8d0f1dd)
C            3.24793552970774        1.45650805828600       -0.23168782773631
N            2.47234326839638        0.30015661782551       -0.68531209096579
C            2.08319532094860       -0.78892959350866        0.24572413932720
N            1.27353698160822       -2.12754009083871       -0.03030796929235
C            0.11952416320323       -1.41690643282984        0.12708828257410
C            0.70667613849652       -0.20331597347192        0.49234720523181
C            0.18703908934455        1.13193742433090        0.31466901065120
O            0.68042220525222        2.24413333664842        0.41306094044377
N           -1.21325852009378        1.01522818183140        0.05699421788185
C           -2.01616641370069        2.26592765617320       -0.00340008090991
C           -1.86364653653008       -0.18914113976564       -0.11820649967255
O           -3.05812067876604       -0.26179653097686       -0.24733846840628
N           -1.13349090202050       -1.43970698715947       -0.30618606600771
C           -1.54300061785788       -3.01487785792916       -0.23729728762469
H            3.58873554582526        1.50949142488632        0.83303100937363
H            3.83391833960306        1.27114282418008       -1.15920316975381
H            2.92477890366835        2.50715137315945       -0.31436678878996
H            2.95156282390979       -1.12489498303897        0.87980571004117
H           -1.32166098944669        3.10102325298117        0.06473706486433
H           -2.57893481548801        2.35032122154539       -0.94041055304605
H           -2.72823487309906        2.35065755974288        0.82338768421342
H           -1.20925365758722       -3.59200839702105        0.64222804502025
H           -1.13193843383444       -3.55689497661071       -1.09482953243547
H           -2.61070704628413       -2.99028407427271       -0.24655608286487
H            1.46775652903481       -3.10538836974924        0.17418017088199
25
 energy: 131.545478794238 xtb: 6.6.1 (8d0f1dd)
C            3.28747739040676        1.47463364782409       -0.24018708005566
N            2.51141894562837        0.32573424028180       -0.67659347608089
C            2.05485745544685       -0.75282536274780        0.25206329498300
N            1.25473693112889       -2.13686729700720        0.00218558052473
C            0.10195793175399       -1.41879958879096        0.10198600096685
C            0.68413855575442       -0.20597038549865        0.48104868242585
C            0.19238077750459        1.12057897191537        0.31793132710165
O            0.69725499905773        2.22302387441629        0.44140537505662
N           -1.21219112827756        1.02230744216824        0.05114116638062
C           -1.99852335303097        2.28258963991823       -0.00036797626816
C           -1.86300657081005       -0.17248420694992       -0.12890944224973
O           -3.05406018642194       -0.25190859715038       -0.27157777727276
N           -1.13544694743053       -1.43093661261254       -0.34912086358961
C           -1.54535732883915       -3.05088135077710       -0.24626193714630
H            3.58638307595318        1.51350313260264        0.82901864565028
H            3.84208108952463        1.27603311149768       -1.19629030280303
H            2.96957708209450        2.53500109614572       -0.32993609230364
H            2.88805261008123       -1.06144806625330        0.93012093290174
H           -1.28853775937790        3.10435566597579        0.07460672853868
H           -2.55518708234045        2.37838048546119       -0.93954242614511
H           -2.71205189208351        2.37725790406471        0.82403682253544
H           -1.21123859686011       -3.63177463166746        0.62839290137723
H           -1.15774764570487       -3.58527657046536       -1.10938969380970
H           -2.60968329819754       -3.01276801843844       -0.26153630591149
H            1.46280370349352       -3.12645241488584        0.13465282727065
25
 energy: 150.190288188719 xtb: 6.6.1 (8d0f1dd)
C            3.31958947707614        1.49268506931810       -0.22880738200400
N            2.55509600105306        0.34815099248091       -0.67617033092069
C            2.02096854334050       -0.73131698778296        0.25963874984124
N            1.23552931580823       -2.14795493477033        0.04327524859153
C            0.07708791789690       -1.43533399408530        0.11033427240222
C            0.66875094835734       -0.20037175722656        0.41869576018851
C            0.19215699010719        1.11682537955712        0.29504751649822
O            0.71103418854083        2.20830684054942        0.46613480664275
N           -1.22257822821121        1.03629828289168        0.05638061011696
C           -1.98374522553821        2.30407733940514        0.00333161926896
C           -1.87097843918695       -0.15171106954666       -0.13486443565544
O           -3.06311207653855       -0.24123008377742       -0.28402633861076
N           -1.13742731297036       -1.40932911009329       -0.35514555042175
C           -1.54386520359362       -3.09409584058049       -0.25473210357335
H            3.58364838063147        1.51244285111540        0.85643537321232
H            3.82335218930439        1.26964265768251       -1.21748763305900
H            3.01974294607442        2.56258388839425       -0.34511544190597
H            2.81403414441928       -0.98386956273575        0.99032079544811
H           -1.25851940571214        3.11236497199680        0.08429345688389
H           -2.53238656231596        2.40883794275843       -0.93944344121149
H           -2.69863611838093        2.40899769483512        0.82412957796706
H           -1.20874040082180       -3.67140235339102        0.61686920478114
H           -1.16924932912657       -3.62933800204902       -1.12492522462324
H           -2.60452297443065       -3.00008087900448       -0.24278419433360
H            1.47062851693074       -3.13296849974069        0.14532593738003
25
 energy: 78.471821333625 xtb: 6.6.1 (8d0f1dd)
C            3.30245138769660        1.66447612816228       -0.01288932619159
N            3.03244743667403        0.65422303132963       -0.72615858875954
C            1.68249372504244       -0.98804480034635        0.34111023699794
N            1.05507159643967       -2.25382391675392        0.19655150176784
C           -0.30585549743364       -2.11235511219319        0.04612216415598
C            0.57355227548207       -0.17887845846978        0.19560665868584
C            0.19026353611547        1.16982561647571        0.28964023235741
O            0.78475196902462        2.22079002687435        0.50377085921945
N           -1.21682630110167        1.16428617504604        0.08725416236255
C           -1.97461638172731        2.37951658298066        0.01689872891285
C           -1.79669701143057       -0.03755211108635       -0.11355816804664
O           -2.98033401333258       -0.27892426671252       -0.27154335133653
N           -0.69561470448821       -0.88459744241437       -0.24289565224432
C           -1.37023937935798       -3.25101781754671       -0.17467785885532
H            3.43326977750373        1.58328788039698        1.04442536001025
H            3.49507759466904        1.04861962995909       -1.54741735134605
H            3.21656219918305        2.69414423538308       -0.34872901627806
H            2.64847081195573       -0.92218091705711        0.89587793838537
H           -1.23934790786890        3.16930787611720        0.09752916740342
H           -2.51305071711257        2.44510909973071       -0.93479069013673
H           -2.69627776078061        2.45717108735956        0.83015215589638
H           -1.26895152339991       -3.89432621480837        0.66439696926897
H           -1.16462352786406       -3.74845538142238       -1.11333082691801
H           -2.43106722519384       -2.93884445742960       -0.21055303363148
H            1.48504625973036       -3.17067829344379        0.20837476649546
25
 energy: 65.611571963670 xtb: 6.6.1 (8d0f1dd)
C            3.31559983339866        1.69176222700536        0.00232257056012
N            3.05754320438645        0.67437179505634       -0.69609045019662
C            1.66407578804708       -1.01560459525603        0.38022584873971
N            1.03929310154186       -2.28120770765922        0.24107276061616
C           -0.31797531271796       -2.13907930721227        0.07040088033913
C            0.56838815950696       -0.18914304159471        0.24860953227600
C            0.19466541572357        1.17190187446135        0.28230749082419
O            0.81840988233607        2.21133875185085        0.48453353843865
N           -1.20005303581045        1.17201750485027        0.07551000516747
C           -1.95040653328562        2.39153632833413        0.01821097227659
C           -1.78740914421403       -0.02922496898213       -0.10426386894467
O           -2.97231845886789       -0.26070594056332       -0.25729340739765
N           -0.69328316856909       -0.89367516779672       -0.18079059862805
C           -1.36197813332183       -3.29210496238469       -0.17018262139064
H            3.44620824845794        1.60724439604600        1.06337514122654
H            3.43325613882891        1.02087167356873       -1.56722416484529
H            3.25515864566028        2.72289685274405       -0.34899344262854
H            2.61279706528521       -0.89691236776031        0.92979507442225
H           -1.20463548220541        3.17100707685055        0.10566210954260
H           -2.48526803976698        2.47068223213032       -0.93410924423428
H           -2.67292654935238        2.48242450894090        0.82975319945644
H           -1.26590251934215       -3.93404408445045        0.65720728483189
H           -1.15621800195463       -3.77851256070250       -1.11366676687354
H           -2.39500741497727       -2.91724139998412       -0.19943222720591
H            1.46674834915703       -3.19675658413659        0.23515584427988
25