25
 energy: -42.079124422056 gnorm: 0.002038179210 xtb: 6.6.1 (8d0f1dd)
C            3.23296694482744        1.07434472169571       -0.03497961620327
N            2.29995801276910       -0.02101938489997       -0.02815146004853
C            2.58885354531732       -1.31393035299417       -0.00318610589023
N            1.45182415692164       -2.03942789783781        0.01906091503317
C            0.39766391918846       -1.17525205262113        0.00882767066282
C            0.92809069606649        0.10936490548562       -0.02060788807159
C            0.10582713972283        1.28210636431577       -0.05540967891304
O            0.46805329461876        2.43648807989870       -0.11417744380471
N           -1.28691112744531        0.94277940323246       -0.01648119068411
C           -2.16632031745967        1.95285263644652       -0.02843069272679
C           -1.82999235501431       -0.37472482335704        0.02713994014525
O           -3.01499503432858       -0.55728684329135        0.06295537492291
N           -0.92424065525454       -1.43316974047126        0.02164399566923
C           -1.43647672508111       -2.79158792230243        0.03835937497931
H            3.68248309859651        1.19361954174562        0.95206719691439
H            4.02284354402437        0.89400511804361       -0.76260125945941
H            2.69735541692309        1.98929567723172       -0.28632156844933
H            3.57703307265340       -1.73110494672611       -0.00258095034158
H           -3.30008614818370        5.12545661608295        0.15466902438436
H           -1.77766166323240        2.95576475078595       -0.06442033366969
H           -3.21546080063560        1.72585853500037       -0.00008915771222
H           -1.12710630021851       -3.30583641327179        0.94851051024094
H           -1.09202809379721       -3.33718618468287       -0.84027863207690
H           -2.52387684191792       -2.73468524952210        0.01744685986252
H            1.40263473503620       -3.04848599639102        0.03820673313690
