25
 energy: -42.047138268020 gnorm: 0.107336638451 xtb: 6.6.1 (8d0f1dd)
C            2.94799611058885        1.06599582223621        0.00795019537162
N            1.95431977746569        0.00082247301659       -0.00956312934920
C            2.37913047627023       -1.24240630711009       -0.01296866885046
N            1.79595763649741       -2.47807881993534       -0.00989525676210
C            0.49941451045379       -3.00487697077793       -0.00403851647823
C            0.60205079671895        0.42696262967232        0.01063435654894
C           -0.04605769145854        1.92482155047621        0.01699210730119
O            0.47074843446774        2.99457177219404        0.01026211195608
N           -1.34794500665761        1.52817533776217        0.04012886010125
C           -2.52278512382532        2.35101786551182       -0.01348043520479
C           -0.39090533124078       -0.51870309966015        0.01536406146048
O           -1.57443063239286        0.14271486505059        0.02879588885894
N           -0.44126879458688       -2.01119929908763        0.00630899382018
C           -1.81053971883674       -2.53402018746933        0.00208741988559
H            3.39902745340312        1.14666461029272        0.99827006590742
H            3.73153264581722        0.87924147760197       -0.72462828551598
H            2.46313065444447        2.01286115783356       -0.22250797230158
H            3.46402019537656       -1.30620877113318       -0.02044416068475
H           -2.19410981349378        3.38480216171063        0.07942990450242
H           -3.04477419486705        2.21699400196763       -0.96278305026295
H           -3.19426283040301        2.10410965866427        0.80925854535485
H           -1.95450030859525       -3.17604854322536        0.86983106465885
H           -1.96697276259786       -3.13193683389386       -0.89475853411796
H           -2.53916940919639       -1.73032863842821        0.02730922142451
H            2.48082444074816       -3.22770937167003       -0.01638316972475
25
 energy: -42.071734765319 gnorm: 0.065452823741 xtb: 6.6.1 (8d0f1dd)
C            2.95046456614613        1.07679912442344        0.00863882302926
N            1.96816736980364        0.00424715313676       -0.00934835243861
C            2.40730157763795       -1.22447852552964       -0.01344630184317
N            1.80333763280671       -2.43379661868667       -0.01000046608200
C            0.49032309583305       -2.88343051544989       -0.00300688167168
C            0.60669943713831        0.39014302788279        0.01121951954365
C           -0.03699668240700        1.81936600542867        0.01571315530636
O            0.49717222042524        2.88498749744696        0.00748739585403
N           -1.35465928570004        1.49217818302066        0.03836852122717
C           -2.51220216080963        2.34447689595582       -0.01305366518610
C           -0.41086217612868       -0.51670972176142        0.01492383275699
O           -1.59991945920131        0.12459724677724        0.02771618731982
N           -0.47561768833973       -1.96352554375505        0.00667944299954
C           -1.82672617697287       -2.52541226131199        0.00244307031743
H            3.40009835469477        1.15576031405739        0.99957174039337
H            3.73445516211240        0.88955104930992       -0.72323343718619
H            2.45964090787320        2.01969400817548       -0.22271071047779
H            3.48950992374583       -1.29535721397773       -0.02099170879632
H           -2.17379243979110        3.37520222712064        0.07943613688378
H           -3.04016124042422        2.21821292214645       -0.96025136999576
H           -3.18848849280607        2.10722049153946        0.80893865580557
H           -1.95523779784690       -3.17162789183787        0.86992522779828
H           -1.96872667094838       -3.12697448473253       -0.89476349317351
H           -2.56579616580245       -1.73341025419202        0.02803217597978
H            2.46244770306126       -3.20947457358726       -0.01711588046434
25
 energy: -42.081170999726 gnorm: 0.025361525282 xtb: 6.6.1 (8d0f1dd)
C            2.93947947579398        1.09986946471901        0.01020422464061
N            1.97043855878622        0.01555411374360       -0.00893154517697
C            2.42909642012634       -1.20152081246611       -0.01398510365677
N            1.79824922451926       -2.39180398198457       -0.01057605545644
C            0.47812803571211       -2.78634415455027       -0.00263367464394
C            0.59692914233652        0.35145716451562        0.01111173487408
C           -0.00816065979600        1.71122400435366        0.01358529138878
O            0.53264305246377        2.78672221871781        0.00197098122227
N           -1.35008189865494        1.45869230060349        0.03535636234166
C           -2.48681330116097        2.34037658964658       -0.01280435634119
C           -0.43759914227103       -0.52897646493789        0.01450488325300
O           -1.61857806418620        0.10748978377817        0.02673712311186
N           -0.50610565999359       -1.93099323329941        0.00739105902666
C           -1.84194546123720       -2.52625872817274        0.00315542048333
H            3.38996722941458        1.17831625349517        1.00078145160426
H            3.72521503489672        0.91333267510921       -0.72040454442802
H            2.44353826973476        2.04023301130522       -0.22015985589688
H            3.51152893848789       -1.27611750580055       -0.02203244640448
H           -2.13084743679775        3.36436738364224        0.07917490251822
H           -3.02061765909946        2.22164484307470       -0.95825261164825
H           -3.16611930736010        2.11274945157872        0.81040877844779
H           -1.95335204150987       -3.17455342893159        0.87055384145322
H           -1.96855924759647       -3.12853959841440       -0.89503179459979
H           -2.59596805679563       -1.74838794485393        0.02968420269983
H            2.42996606828717       -3.19029486327215       -0.01863665091327
25
 energy: -42.082353136072 gnorm: 0.014047230281 xtb: 6.6.1 (8d0f1dd)
C            2.92349529096917        1.11789346438176        0.01309290332350
N            1.96855127471301        0.01937464763024       -0.00812974613884
C            2.43806172963077       -1.19362425626212       -0.01458043935450
N            1.79666485368130       -2.38252420495961       -0.01229560950441
C            0.48221516854888       -2.78218491225749       -0.00377706003353
C            0.58994047390299        0.33214261482149        0.01045113079625
C            0.00793639781333        1.68632209295585        0.00864283349563
O            0.54583219527935        2.76613624824156       -0.00619999122080
N           -1.34254479882528        1.45580347802937        0.03232979078154
C           -2.46351791694967        2.35190370756889       -0.01246761578578
C           -0.45560418813125       -0.54256318548974        0.01430474925863
O           -1.62591587272931        0.10781276189821        0.02606202474875
N           -0.52137151887705       -1.94145727388376        0.00779637841478
C           -1.85320042446988       -2.54730078801948        0.00434503665805
H            3.37146783883060        1.20314361088668        1.00422812138088
H            3.71171109866106        0.94327198744902       -0.71757088547187
H            2.41501575665468        2.05318102532840       -0.21511688303219
H            3.52113821317023       -1.26553926099065       -0.02303059875604
H           -2.08301537683020        3.36738651177444        0.07797359315449
H           -2.99961773669040        2.24017846952894       -0.95729119368143
H           -3.14114525029430        2.13445242425058        0.81477697083904
H           -1.95604416329830       -3.19640008073010        0.87157105054358
H           -1.97383420306719       -3.14810879271393       -0.89499936957101
H           -2.61833406442210       -1.77870898321138        0.03274602412547
H            2.42254673682964       -3.18235276462758       -0.02168959707063
25
 energy: -42.082857526080 gnorm: 0.004736010508 xtb: 6.6.1 (8d0f1dd)
C            2.91045878573022        1.13106123882879        0.01704692556707
N            1.96801951667023        0.02152664478971       -0.00801705774174
C            2.44508355676062       -1.18843978165002       -0.01645099745302
N            1.79247701345672       -2.37718397364443       -0.01578070698395
C            0.48612609379125       -2.78857289503539       -0.00559325440454
C            0.58686414226127        0.31761877282622        0.00844437110027
C            0.01247057836739        1.67255796115646        0.00409015050931
O            0.53554365107060        2.76094204243895       -0.01457553735186
N           -1.34101041344566        1.45218091409863        0.02820131702638
C           -2.44344758728742        2.36499399507058       -0.01262544143075
C           -0.46720666479216       -0.55505863327744        0.01404870089438
O           -1.62997232241184        0.10526838492724        0.02430418066921
N           -0.52985910066049       -1.95418766809684        0.00875727565411
C           -1.85777762069960       -2.56819449768607        0.00675157024105
H            3.35160065299828        1.22321179217588        1.01046181668098
H            3.70206956309950        0.96726384224933       -0.71166489381499
H            2.39232728857167        2.06172511097077       -0.21115880532630
H            3.52794852980405       -1.26029878590512       -0.02457914346380
H           -2.03200808497242        3.36973186344551        0.07520966347855
H           -2.98387558395853        2.26655662340258       -0.95606493723487
H           -3.11990837081590        2.16526615722421        0.81962104364139
H           -1.95469502929616       -3.21933149976298        0.87294988374379
H           -1.97679287651494       -3.16736482512473       -0.89370497473141
H           -2.62914302753655       -1.80532668563259        0.03846314081170
H            2.41513882390998       -3.17770755618967       -0.02696267218139
25
 energy: -42.082984361419 gnorm: 0.003639412526 xtb: 6.6.1 (8d0f1dd)
C            2.90284517190900        1.13526269679761        0.02069536491038
N            1.96632569389904        0.02172154460225       -0.00792198740205
C            2.44638211456261       -1.18698363603114       -0.01832653583427
N            1.79057506436175       -2.37617070132321       -0.01938669244593
C            0.48757086920755       -2.79299557027920       -0.00729368974743
C            0.58562250350907        0.31349336290274        0.00672388749736
C            0.00952430440455        1.66703525519860        0.00038768004895
O            0.52316678131525        2.76019835836661       -0.01995400795398
N           -1.34369585409218        1.44696066670187        0.02435724720934
C           -2.43379640430611        2.37254987736950       -0.01280898576303
C           -0.46962203257139       -0.55991594973624        0.01334260838784
O           -1.63208992824690        0.09998557407499        0.02240352089426
N           -0.53019365098264       -1.95889386688207        0.00921093318409
C           -1.85580915441847       -2.57692048552132        0.00918199725242
H            3.33812361284007        1.23065838547005        1.01635708930075
H            3.69825136717388        0.97550130242043       -0.70431554962004
H            2.38157351687506        2.06361238193002       -0.21025241267755
H            3.52854685898325       -1.26007566920746       -0.02611917784126
H           -2.00304318645675        3.37002495909153        0.07197784058424
H           -2.97957035476426        2.28450187291916       -0.95401286920155
H           -3.11010122158625        2.18753419253859        0.82274411886946
H           -1.94916867756134       -3.23062553437206        0.87410432414460
H           -1.97588125470999       -3.17536594955799       -0.89184511035443
H           -2.62907234314814       -1.81628153247266        0.04428024360016
H            2.41396771790346       -3.17657299340102       -0.03235821914279
