25
 energy: 28.696833230080 xtb: 6.6.1 (8d0f1dd)
C            3.41033773353172        1.82830599020491        0.07569054072485
N            3.35714156286363        0.79469052297095       -0.63852271352019
C            1.62006115276557       -1.13453089422905        0.36957637892129
N            1.02409563720964       -2.36317914475097        0.19392408384077
C           -0.32689722921165       -2.26713510331289        0.08891029833424
C            0.55319681370497       -0.23005975485495        0.27645052314752
C            0.20201774496978        1.16354565429108        0.23097294941178
O            0.88967875286620        2.16299069671568        0.39138265097458
N           -1.17135637014097        1.18295684154820        0.03911481363863
C           -1.94227851866109        2.39252091003064       -0.00021987075296
C           -1.73499719078309       -0.06143679453122       -0.09288714029848
O           -2.91852526249054       -0.31521342789698       -0.26322700256224
N           -0.65539988030180       -0.94144136982075        0.07379609836905
C           -1.30453188041545       -3.34463386927682       -0.14784979456279
H            3.37173965445898        1.71962531540549        1.15554654786005
H            3.33325618162093        0.96583058237408       -1.64501138679045
H            3.45618614761486        2.85294991154465       -0.29041777554858
H            2.69692702303045       -1.00527508878874        0.55604069460041
H           -1.24565743611381        3.22009173603166        0.10218054950841
H           -2.47951345323304        2.47930300818937       -0.94210123560319
H           -2.65980808869326        2.43516183350881        0.81934449401597
H           -1.27773096293034       -4.07616939559099        0.67125876150380
H           -1.18091799904672       -3.87556994998147       -1.10047450442846
H           -2.27424723553714       -2.84876322223766       -0.17397879899853
H            1.48031211265615       -3.26905728333776        0.23047066857899
