25
 energy: 0.000000000000 xtb: 6.6.1 (8d0f1dd)
C            3.23720163006194        1.16630919979326        0.08434469647475
N            2.29877817382611        0.07527477071623        0.03981603040599
C            2.58028210190900       -1.21425402444508        0.03006176031096
N            1.43813958087363       -1.93419271955128        0.00098261760884
C            0.39035688448383       -1.05887472636071       -0.00790371836672
C            0.93510056364412        0.21347819449412        0.01709077491437
C            0.09450143893243        1.40504303904423       -0.00410947031874
O            0.49712751527797        2.54126714362870       -0.00342325688240
N           -1.25076640035757        1.06271879480407       -0.03085478223738
C           -2.21907211982101        2.15522099834493       -0.05001256985998
C           -1.81739487048744       -0.20012725993278       -0.04692818574614
O           -2.99983886758376       -0.37846417018721       -0.07008878229737
N           -0.92618586207120       -1.30210215599479       -0.03682761578324
C           -1.46982264913417       -2.64643102187190       -0.06029820460571
H            3.71247264356769        1.21471455160235        1.06488849150277
H            4.00791497605742        1.03430808813993       -0.67357694370751
H            2.69910007168542        2.09770118228144       -0.09130154882931
H            3.56654120610678       -1.63682992603973        0.04233140067262
H           -1.67107961066214        3.09322851271934       -0.02552706933167
H           -2.82428953597071        2.09428624779827       -0.95318082946668
H           -2.87644029173232        2.07745725625962        0.81450067533302
H           -1.17061996399332       -3.19584890659852        0.83242232437030
H           -1.14560257411436       -3.17511610292205       -0.95688275822323
H           -2.55549792440841       -2.55659984320617       -0.07459039797972
H            1.38130855184625       -2.94313852034425       -0.01389874181052
25
 energy: -5.435315541027 xtb: 6.6.1 (8d0f1dd)
C            3.24177810788296        1.18343289945191        0.08680318899297
N            2.30953723263217        0.09389631121396        0.03816589816754
C            2.59957795620276       -1.23574466938626        0.03032128247323
N            1.42673015537243       -1.94353260274278        0.00085830316958
C            0.39608354106321       -1.05928153683930       -0.00827072384549
C            0.93135961161139        0.21894890608356        0.01542429196103
C            0.10409596507364        1.39257187112611       -0.00520730860730
O            0.50223707042338        2.55780787176949       -0.00445227899289
N           -1.25810491996208        1.04872389712244       -0.03108769184626
C           -2.21626080715963        2.14637848405018       -0.04963998720765
C           -1.82312898863176       -0.20167801434235       -0.04739222781779
O           -3.02002153359947       -0.38236913977696       -0.07051135576352
N           -0.93501839393171       -1.30294738395415       -0.03722176526753
C           -1.47561265310236       -2.64396922186323       -0.06052234249974
H            3.72140921087747        1.23866895011448        1.06793807658371
H            4.01148196267562        1.05848278266390       -0.67632991126820
H            2.69195631228558        2.10637416252315       -0.08845021030098
H            3.57660475007202       -1.66462418963576        0.04282566821147
H           -1.65262457187162        3.07642561078438       -0.02545570027029
H           -2.82186388073283        2.09380715284138       -0.95390823307686
H           -2.87341350858614        2.07745593168007        0.81659456497973
H           -1.17389612727606       -3.19588004657798        0.83169865422710
H           -1.14835671245491       -3.17545950148401       -0.95625429653184
H           -2.56081554745775       -2.55098185486754       -0.07517930748157
H            1.35848043652994       -2.94747806778265       -0.01371269184117
25
 energy: -6.301803045892 xtb: 6.6.1 (8d0f1dd)
C            3.24208665685779        1.20800969128128        0.08988473382343
N            2.32413202491951        0.10415767239072        0.03570156459094
C            2.61501378511426       -1.26007040546387        0.03161536971214
N            1.41243306475971       -1.94979547535590        0.00155404247085
C            0.40099563867676       -1.06122122497235       -0.00908141944710
C            0.93228402819129        0.21998599100290        0.01264799155228
C            0.11776646936996        1.37058406238134       -0.00810932372702
O            0.49803867604570        2.55432646841771       -0.00805581609497
N           -1.26382890479682        1.02902231760155       -0.03196056397992
C           -2.20423463184136        2.13525454530714       -0.04864008658833
C           -1.82589356302599       -0.20713784720301       -0.04828097316227
O           -3.02943457882583       -0.39059299023541       -0.07097155838333
N           -0.94317164525229       -1.30423464737865       -0.03812464178474
C           -1.48630660543363       -2.64047618142231       -0.06125610783729
H            3.73279463069803        1.28944620850185        1.06742049692021
H            4.01354026312084        1.11865282748881       -0.68009627522975
H            2.66880766895513        2.11941544474344       -0.07912061034373
H            3.58091716186634       -1.70620183696492        0.04452465884372
H           -1.60898679463059        3.04695542535344       -0.02544725723064
H           -2.81165868109040        2.09585736562465       -0.95311154441952
H           -2.86028977429239        2.08066606025086        0.82025959734927
H           -1.18774037683940       -3.19687505416709        0.83062232491632
H           -1.16037264438551       -3.17733243806108       -0.95569438812904
H           -2.57120750805656       -2.53810426427482       -0.07705244278671
H            1.32653030783164       -2.95126311267427       -0.01219387488752
25
 energy: -3.047805741226 xtb: 6.6.1 (8d0f1dd)
C            3.22652887744116        1.25311130977936        0.09343655312892
N            2.34769481418065        0.10555924864474        0.03326072190226
C            2.63298427745656       -1.29544963797584        0.03523488288591
N            1.40031808061194       -1.96299908227049        0.00441137392939
C            0.40841361186459       -1.07264485932137       -0.01029049761191
C            0.94206548954590        0.20966842779122        0.00858674612743
C            0.13956892523894        1.33781577200153       -0.01476060506677
O            0.49256527828688        2.53732901278228       -0.01749823455159
N           -1.26308450331371        0.99936578151858       -0.03446809675165
C           -2.17078799490324        2.12295698016500       -0.04629440047516
C           -1.82507494969835       -0.22158906150448       -0.05028678147017
O           -3.03328385943504       -0.40735944504851       -0.07196995470097
N           -0.94825674556239       -1.31309188119325       -0.04016298516931
C           -1.50823406802565       -2.63936640028632       -0.06327566279709
H            3.73695966814430        1.38594701423677        1.06127737014835
H            4.00009841260481        1.24774175368222       -0.68974433184524
H            2.59834222923345        2.13853248928211       -0.05666825803127
H            3.58245191811607       -1.77439095692439        0.04910123476460
H           -1.51928518836647        3.00027925205779       -0.02611338914647
H           -2.78247540307531        2.10631197062867       -0.94918389613831
H           -2.82194071321820        2.09362301172674        0.82834976702243
H           -1.22541139047961       -3.20327936465075        0.82984117677747
H           -1.19276400311889       -3.18591793501087       -0.95640296850696
H           -2.59213389338651       -2.51054318541015       -0.08216903649880
H            1.28695579779430       -2.96258161252854       -0.00717683177782
25
 energy: 1.703118372562 xtb: 6.6.1 (8d0f1dd)
C            3.19595661701096        1.29783121106373        0.09542711687133
N            2.36598557741718        0.09967011432446        0.03310630396984
C            2.64853245160913       -1.32245993400475        0.03941357073272
N            1.40150605544874       -1.98112536890558        0.00854673366151
C            0.41623852946993       -1.09130255493601       -0.01097568819953
C            0.95438847466891        0.19021874889646        0.00563528960276
C            0.15963297965203        1.31115406425404       -0.02237057811728
O            0.50070223626613        2.51680478570147       -0.02885125704964
N           -1.25250648720160        0.97623741758915       -0.03783316136257
C           -2.12968356830968        2.11865049891387       -0.04354696895848
C           -1.81945461990304       -0.23633642234301       -0.05267176498166
O           -3.03054884701911       -0.41975516916714       -0.07313023375006
N           -0.94720882883651       -1.32820227452924       -0.04247511197222
C           -1.53203347813082       -2.64361352268998       -0.06589969065524
H            3.72248392906035        1.47500020281554        1.05260765420395
H            3.96464198695818        1.37804875330795       -0.70256903423273
H            2.50566093033405        2.15089220205878       -0.03151413849494
H            3.58548209231490       -1.82664328237615        0.05488692117672
H           -1.43290278123038        2.96636984277487       -0.02766447624595
H           -2.74596245471640        2.12286082088397       -0.94354385234872
H           -2.77275786374136        2.11255868584029        0.83803014948097
H           -1.27098232324763       -3.21512731015444        0.82952350813525
H           -1.23128594987365       -3.20041306262591       -0.95806832667211
H           -2.61401792914909       -2.48292779040550       -0.08884542485007
H            1.27034793908495       -2.97936205411481       -0.00018364379659
25
 energy: 8.288242131751 xtb: 6.6.1 (8d0f1dd)
C            3.15276572836985        1.34818643512469        0.09701819971590
N            2.38237257835151        0.09186599045328        0.03425776900850
C            2.66572807058177       -1.34690125512983        0.04458981948050
N            1.41012458363754       -2.00380351013363        0.01396308889434
C            0.42556430039600       -1.11675048083103       -0.01150018039725
C            0.96780875063397        0.16383688603981        0.00259373322041
C            0.18227898486360        1.28221686693100       -0.03179164377245
O            0.52007450970872        2.49060427709881       -0.04288926824216
N           -1.23504617277711        0.95401851872268       -0.04220485215423
C           -2.07954060305733        2.11825542373263       -0.03989151913790
C           -1.80943754322798       -0.25154267828006       -0.05558941584702
O           -3.02313147213919       -0.42838161823477       -0.07447530461454
N           -0.94369983192730       -1.34871225865386       -0.04535953223279
C           -1.56041839235283       -2.65141690092433       -0.06946598972951
H            3.69406916492394        1.56952194764986        1.04165213626221
H            3.90760390472670        1.51854962517190       -0.71780591793050
H            2.39481454305881        2.16122671817800       -0.00310152549515
H            3.59143143441890       -1.87264894993222        0.06242293330710
H           -1.34239458829940        2.93736007971787       -0.02990627433454
H           -2.70121601374450        2.14463020494899       -0.93560745969000
H           -2.71089520048199        2.13645022439889        0.85038902158434
H           -1.32682974576979       -3.23197251420722        0.82864607518006
H           -1.27779654633722       -3.22065439534885       -0.96013089868300
H           -2.63930777280722       -2.45372957849215       -0.09773726973821
H            1.26729199718672       -3.00118045582841        0.00895817149318
25
 energy: 16.389748231299 xtb: 6.6.1 (8d0f1dd)
C            3.10658691303790        1.39924152766268        0.09854548899552
N            2.39701266120085        0.08513496050321        0.03651347768965
C            2.68269916421216       -1.36656747759803        0.05075007003991
N            1.42363375561878       -2.02724465102509        0.02025715652257
C            0.43546370219823       -1.14503649756742       -0.01212063875340
C            0.98148377255309        0.13526313010145       -0.00093284496544
C            0.20392762377545        1.25364044018220       -0.04302399264728
O            0.54252548661935        2.46318622600775       -0.05941682693912
N           -1.21437676926593        0.93418482388045       -0.04739919108248
C           -2.02808054991331        2.11918533552874       -0.03510152094733
C           -1.79660649623203       -0.26580294160899       -0.05885743791012
O           -3.01233909291143       -0.43311405202156       -0.07574006250023
N           -0.93870679216115       -1.37163856549743       -0.04886139086649
C           -1.59128826950686       -2.66057551162086       -0.07407541450869
H            3.65978722132688        1.66205932757737        1.02942970780216
H            3.83806826193268        1.65127387158724       -0.73205695336743
H            2.29163382377136        2.17135312072043        0.02457161433584
H            3.59848337825304       -1.91091765504590        0.07161197182221
H           -1.26044137303913        2.91369156410646       -0.03247197203907
H           -2.65568445454331        2.16591830873779       -0.92505719219447
H           -2.64392493844881        2.15882894962478        0.86528565021841
H           -1.38866019854192       -3.25049964714342        0.82674490137401
H           -1.32848073308835       -3.24329266918432       -0.96259196795768
H           -2.66576770319484       -2.42459984153135       -0.10866779549866
H            1.27526627428345       -3.02464347420408        0.01969905952491
25
 energy: 26.116711481690 xtb: 6.6.1 (8d0f1dd)
C            3.05952532122153        1.45038830537421        0.10026108840633
N            2.40905157327409        0.08033100365491        0.03981582178073
C            2.69887742109669       -1.38051603963380        0.05801237827906
N            1.44154938053101       -2.05063794533470        0.02729612820726
C            0.44529844558607       -1.17604060099258       -0.01298222036455
C            0.99421253927904        0.10526823101041       -0.00518164634366
C            0.22236758205058        1.22461725864248       -0.05654256614278
O            0.56145945711359        2.43509870699987       -0.07951759770322
N           -1.19211820156998        0.91518788238216       -0.05342280138148
C           -1.97474916748546        2.12144060784950       -0.02867024577699
C           -1.78223886619365       -0.28037790652013       -0.06235931901969
O           -2.99948537555431       -0.43529268423820       -0.07660747951355
N           -0.93326357197748       -1.39749825406662       -0.05308629086142
C           -1.62494453557032       -2.67170739425487       -0.07992942297943
H            3.61951232431720        1.75446163350236        1.01754276696626
H            3.76022999213840        1.77351768996676       -0.74431768665088
H            2.19999108861071        2.18280867643001        0.04901081713587
H            3.60674066319797       -1.93944951831275        0.08247812011746
H           -1.18119314730930        2.89355486551149       -0.03480508279748
H           -2.60886718678396        2.18891222682857       -0.91162195241628
H           -2.57090245609417        2.18132434385180        0.88377969668201
H           -1.45656406718841       -3.27103677117278        0.82347981794970
H           -1.38354425982394       -3.26877229115784       -0.96562890195713
H           -2.69364765235700       -2.39733050775955       -0.12179340470642
H            1.29491736742723       -3.04922291638862        0.03182387923752
25
 energy: 32.765971594823 xtb: 6.6.1 (8d0f1dd)
C            3.00912286765745        1.50860143030238        0.10052144130577
N            2.42495666121746        0.06638289893890        0.04968017718717
C            2.69915819697529       -1.36416156991783        0.07003544989125
N            1.49321032149700       -2.07717687089042        0.03866396750421
C            0.45352083520004       -1.21999261725500       -0.01543115925356
C            1.02821675382273        0.05811649716181       -0.01302174101154
C            0.21860862932280        1.21009567841146       -0.08058081864403
O            0.56921064193224        2.39885518679881       -0.11827729336226
N           -1.14843360465695        0.91389001359972       -0.06353092019080
C           -1.91423950231562        2.13152146601698       -0.01645337790336
C           -1.75569344639154       -0.29708568022656       -0.06665324177738
O           -2.96299805920823       -0.42155456738148       -0.07624799810336
N           -0.91000021162975       -1.44003799487077       -0.06043061980141
C           -1.67140462579781       -2.69237091356786       -0.09060001338364
H            3.55603645441637        1.84575737500978        0.98984239395217
H            3.61675344480379        1.88318420159243       -0.74458075760107
H            2.16181193455154        2.18644114706206        0.08129040948106
H            3.59851525120270       -1.95025429327597        0.10034097345190
H           -1.14784323667428        2.89413703870613       -0.04038815084478
H           -2.55377953946791        2.20963523124943       -0.88330208138141
H           -2.46743685563285        2.19546253731527        0.91297641373874
H           -1.56175529242457       -3.29607607420785        0.81595939752331
H           -1.46737495418918       -3.30430391537482       -0.97107708306346
H           -2.72380689150395       -2.36656669734721       -0.14387580635421
H            1.36785889522936       -3.08347090567728        0.05217433478798
25
 energy: 50.973097365045 xtb: 6.6.1 (8d0f1dd)
C            2.99232179772964        1.56631182948005        0.10944157632645
N            2.45476566692624        0.06934402988754        0.05716702735949
C            2.72287138211602       -1.37781851090424        0.08790539698616
N            1.51263074225406       -2.09662260940000        0.05213735087247
C            0.46872592338130       -1.25085915015859       -0.01829617282407
C            1.04810182370545        0.03242957910528       -0.02581275368687
C            0.23962883466762        1.16302082291446       -0.11343878895644
O            0.56426982139038        2.36792056294938       -0.17901705671270
N           -1.12621088233500        0.88137661629058       -0.07563164798172
C           -1.86515215616305        2.11826102996582       -0.00177774528020
C           -1.73731484001242       -0.31633220584167       -0.07273665257236
O           -2.94916573359289       -0.42051323795213       -0.07477148977316
N           -0.90603053239767       -1.46986527222432       -0.07020491737527
C           -1.72359299365271       -2.69795079880188       -0.10366587848168
H            3.55548512725708        1.96500539104581        0.97674123813727
H            3.52971513663769        2.04080809109387       -0.77252997978843
H            2.08668654039790        2.19537219082947        0.13866808154698
H            3.60434811219967       -1.99328445095358        0.12609235420648
H           -1.06682791631549        2.86132869175051       -0.04948640225083
H           -2.52428858418798        2.22048856300831       -0.85240708195031
H           -2.37594607569009        2.20231403317922        0.95443569487264
H           -1.67199736454935       -3.31246421492768        0.80701598894178
H           -1.55211229013686       -3.33400383479230       -0.97715508264195
H           -2.76343063925326       -2.31924737521330       -0.17198930787031
H            1.39473376755980       -3.10599116815849        0.07635014504391
25
 energy: 69.221857779065 xtb: 6.6.1 (8d0f1dd)
C            2.98605305168735        1.62736590068046        0.12526146992821
N            2.48086901356219        0.06807396739915        0.06757462355574
C            2.73526510395753       -1.37479635748558        0.11405444098420
N            1.53890406488952       -2.11240170162065        0.06891518034552
C            0.47716606237407       -1.28453082593742       -0.02414943070415
C            1.06957165850590        0.00223042472144       -0.04994524025447
C            0.26199088059042        1.11699105527488       -0.17388707483191
O            0.58716638425760        2.32004758144823       -0.30021042197984
N           -1.09696915803115        0.85887981319612       -0.09036069758236
C           -1.82712526077499        2.10383679097850        0.02482953571905
C           -1.71881592294475       -0.33246397747067       -0.07594670343942
O           -2.93288916761591       -0.40294144752278       -0.06343041860234
N           -0.90485381250639       -1.50481151556553       -0.08444813534544
C           -1.78064545156522       -2.70603759497935       -0.12341933325211
H            3.57114375931224        2.08081684623011        0.95703193229181
H            3.41808672642729        2.17603400122472       -0.78020038629135
H            2.04245263636845        2.20139356320392        0.21953696851020
H            3.60070158827491       -2.01443847905061        0.16170024781734
H           -1.01681539629860        2.83884421856144       -0.06061075698937
H           -2.51668001028604        2.22470105700850       -0.79829178595370
H           -2.27530172713455        2.19419191455970        1.01378793289315
H           -1.79249011529067       -3.31848585299543        0.78946866753802
H           -1.64239353737222       -3.36223296893629       -0.98636852574662
H           -2.79920521644526       -2.28383991464270       -0.21044027720026
H            1.44702851399436       -3.12739789610797        0.10658208473738
25
 energy: 79.486964153046 xtb: 6.6.1 (8d0f1dd)
C            2.99531488967931        1.67530922530859        0.15476270348062
N            2.49466114363004        0.06559320611835        0.07458676040791
C            2.73773876823799       -1.36910016934787        0.14145829147828
N            1.55122485724183       -2.12062857513832        0.08491215758699
C            0.47777310799245       -1.30723637087127       -0.03115265158223
C            1.07903843988066       -0.01696188050926       -0.08294396174953
C            0.27524893878765        1.08519119263027       -0.26668362166701
O            0.60217589425329        2.28225560053733       -0.49105672140808
N           -1.08158986892975        0.84113319615768       -0.10416418533891
C           -1.80376009580287        2.08984782534732        0.06005674833227
C           -1.71150818738219       -0.34514622878501       -0.07183790151668
O           -2.92707490216051       -0.38931922664144       -0.03466809894993
N           -0.91173106001742       -1.52969494848315       -0.09852704997080
C           -1.82162023720657       -2.71059767713563       -0.14429530086618
H            3.61820974450100        2.14955482293173        0.94617706682135
H            3.32919155045407        2.26454538545569       -0.76697228682447
H            2.04225137071916        2.21296417907659        0.32314759635930
H            3.59472367479951       -2.01817316538762        0.19619447535213
H           -0.98725838425323        2.82369545740557       -0.06465854287293
H           -2.53396249025804        2.22226393577374       -0.72794271113673
H           -2.19313251329690        2.17300736192601        1.07529033224029
H           -1.87892225974483       -3.31141859394171        0.77031144215887
H           -1.70047548403665       -3.37824705149274       -0.99737012594593
H           -2.82173569018855       -2.26038456716174       -0.25086832191836
H            1.48743346103654       -3.13942433160092        0.13327780367703
25
 energy: 82.650949944373 xtb: 6.6.1 (8d0f1dd)
C            2.97929603579006        1.72524381111041        0.19152806714651
N            2.48177130829894        0.05622669340506        0.07270218816156
C            2.73019694408915       -1.36099054166990        0.17215218908829
N            1.55499334748055       -2.12966765551184        0.10433286000039
C            0.47021409975587       -1.32954470233242       -0.04085173660968
C            1.07149181587564       -0.03850687493150       -0.12633374772822
C            0.29062776093677        1.06375923480597       -0.39475144479686
O            0.65346894986252        2.22814622874630       -0.72744151581568
N           -1.06677796088520        0.83456093350286       -0.11712626140839
C           -1.77354872279541        2.08570804115548        0.10455341757094
C           -1.70863936107904       -0.35091985561441       -0.06370712433169
O           -2.92440554999933       -0.37472526263754        0.01159666394143
N           -0.92515505244803       -1.54895271595932       -0.11361998082464
C           -1.84702598277893       -2.71653404430090       -0.16653952619833
H            3.66123744265830        2.18556885331976        0.93548760016246
H            3.22937536312746        2.31028843200972       -0.72682664245280
H            2.03296664861424        2.23188922291561        0.43771098505655
H            3.59449786631092       -1.99000461726416        0.22997715393226
H           -0.96576560178154        2.82374157208585       -0.05539288363353
H           -2.54975383356241        2.22772639050606       -0.64080993638789
H           -2.11355990332800        2.14646278268930        1.13335522828500
H           -1.93421817039779       -3.29741210491038        0.75065781791716
H           -1.72490933048627       -3.39033093356331       -1.00912661426923
H           -2.83213705881366       -2.25300266416276       -0.29512639083083
H            1.52797361349114       -3.14970162122175        0.16063353017250
25
 energy: 76.254092546109 xtb: 6.6.1 (8d0f1dd)
C            2.95805523322150        1.75523642869318        0.23185020439684
N            2.44869687113017        0.04239114186431        0.04310104657479
C            2.71264133520378       -1.35339355275231        0.19326290817896
N            1.54470041861091       -2.13145561967428        0.12850271175070
C            0.45932732158655       -1.33580784053850       -0.05499644238387
C            1.05119108884145       -0.04760596746970       -0.17707025007184
C            0.28744605701052        1.05761428549482       -0.52535903410076
O            0.67456615490333        2.17440633325311       -0.92018240898583
N           -1.06208008781670        0.83657694423220       -0.13788830005076
C           -1.74412277702743        2.08772438902192        0.13721854193219
C           -1.71069429484112       -0.34893428106272       -0.06151545601306
O           -2.92310608029258       -0.37058515794403        0.06185553753009
N           -0.93720226954702       -1.54980774502352       -0.12604947634169
C           -1.84505602197870       -2.71452756969316       -0.18043040580513
H            3.72133762295604        2.14894557470086        0.92531542721168
H            3.13379136077988        2.31781973145157       -0.69928655761970
H            2.03755364887875        2.24451445414824        0.57551418160782
H            3.59957747425711       -1.94365688965226        0.25593477804354
H           -0.95573820236718        2.83254406374679       -0.04728103310528
H           -2.56684300141527        2.23663970633093       -0.56080042871300
H           -2.05046244656962        2.12002352211983        1.17251398822089
H           -1.94392256909650       -3.27326583567918        0.74355307224956
H           -1.70120147960053       -3.39411311932517       -1.01247002825991
H           -2.82416292453182       -2.25355153227031       -0.33209699368732
H            1.54792223564036       -3.14870286180038        0.19383831358841
25
 energy: 63.912349715870 xtb: 6.6.1 (8d0f1dd)
C            2.91346873228237        1.78988401285483        0.28109108263366
N            2.39018195500817        0.00666071174436       -0.05775332667984
C            2.68154248545471       -1.35290824633597        0.19958418052037
N            1.51738178540050       -2.13369461137227        0.16874515916521
C            0.44584866025375       -1.33190146777764       -0.07617492903394
C            1.02056980647232       -0.05630205189878       -0.24650393904291
C            0.27425654186835        1.06235534268304       -0.65291121986389
O            0.68920358385960        2.09958921908403       -1.09459863481714
N           -1.05770215325378        0.85209777442279       -0.16573439526583
C           -1.70659272041240        2.09439144231829        0.16257616809635
C           -1.71182154841855       -0.33449503200809       -0.06032919715651
O           -2.91550600769037       -0.37165840734546        0.11806257266953
N           -0.94718101650437       -1.53044768972307       -0.13393556492617
C           -1.82038367145873       -2.70218822753838       -0.19002520517471
H            3.78451597789918        2.06674188550325        0.91086333042077
H            3.02910955328490        2.29229324637348       -0.65309575351178
H            2.04940076307291        2.25703995476360        0.73458514510618
H            3.61429815392116       -1.87315802303302        0.28259392637014
H           -0.96227967830988        2.85267214505354       -0.03662757714096
H           -2.58054835606566        2.24871206230090       -0.47248908018193
H           -1.99002361595337        2.08593360719543        1.19878771443217
H           -1.91820779330445       -3.24108209597347        0.74492941811104
H           -1.63057673030307       -3.39044134056582       -1.01033808944534
H           -2.80401545146677       -2.25907690579567       -0.37113211380125
H            1.54727541229930       -3.14198870275764        0.24686422466411
25