25
 energy: -42.117982529322 gnorm: 0.029024092048 xtb: 6.6.1 (8d0f1dd)
C            3.06171102165480        1.26244815936629        0.02216357458294
N            2.37713170563519       -0.04165912638407       -0.01000635963065
C            3.21689916544532       -1.02730792043895       -0.02035186033556
N            0.68612116551706       -2.60707496230045       -0.00910232891873
C            0.24989237148822       -1.40020701844144       -0.00448558098479
C            0.97219523988045       -0.12903380929265       -0.00540920900234
C            0.17679933211128        1.08786291437515       -0.01040091827874
O            0.61651994566087        2.23573154044032       -0.02551973354808
N           -1.20480862001643        0.96214856719580        0.00038052463331
C           -2.01383352249681        2.16578063441410       -0.00040854309077
C           -1.90558580244060       -0.22301969875695        0.00634789526397
O           -3.11329548881087       -0.24439691680945        0.01344548738724
N           -1.13701445327615       -1.35992483511602        0.00217648757873
C           -1.83611980114806       -2.62642724745550        0.00166479569261
H            3.52035388557941        1.40618504563518        1.00222814472066
H            3.83208134295307        1.29009341072237       -0.74792344709950
H            2.36653956825685        2.08557965865324       -0.15309093708017
H            4.30654837758438       -0.79397133083396       -0.01739715169312
H           -1.35634698042671        3.03328601663511        0.00738783070842
H           -2.65021740714105        2.18213439489312       -0.88773856054515
H           -2.66251204201646        2.17372080876940        0.87789635277455
H           -1.55703474502320       -3.21012551124514        0.88067866618723
H           -1.56815623271433       -3.20307811854294       -0.88556853372702
H           -2.90659421342826       -2.42460679519142        0.00899510411323
H            1.68915770127202       -2.77589931869111       -0.01479008180826
25
 energy: -42.126149380134 gnorm: 0.018636386503 xtb: 6.6.1 (8d0f1dd)
C            3.06810550113946        1.24593909728820        0.02266036252189
N            2.34943020940691       -0.04054563824785       -0.01109331797213
C            3.12107497391704       -1.07961628671691       -0.02293666455071
N            0.76958852985936       -2.55557368018764       -0.00905758766955
C            0.26798101278900       -1.37304719874678       -0.00433658828999
C            0.95457715280209       -0.09479412791146       -0.00519197305267
C            0.16397938185623        1.11514239243969       -0.01103574203625
O            0.60356254842412        2.26251712554140       -0.02841464872692
N           -1.21424958457518        0.97179323103635        0.00024361860405
C           -2.02939889413782        2.16972356923900       -0.00043395801517
C           -1.90067935286143       -0.22441453510824        0.00661643290743
O           -3.10819041724885       -0.25783773522448        0.01401999187814
N           -1.12078807339564       -1.35702924230420        0.00224292676720
C           -1.81399881807860       -2.62763128336748        0.00186808854356
H            3.52585900209618        1.38468349972018        1.00378199821978
H            3.83987798716245        1.26461977698573       -0.74663959820021
H            2.38114807367923        2.07927863277388       -0.15216300041187
H            4.20820347472034       -0.93374311254526       -0.01667868306402
H           -1.37341070382569        3.03925452944368        0.00744195794132
H           -2.66424669293808        2.18258942868253       -0.88866609083379
H           -2.67642132615492        2.17377312566380        0.87888201918029
H           -1.53569019682525       -3.21089285418342        0.88138410147362
H           -1.54688632862020       -3.20400926115497       -0.88572905845687
H           -2.88672661797248       -2.42999098343338        0.00922044590308
H            1.77773067288177       -2.68194992808236       -0.01481341476019
25
 energy: -42.132205996667 gnorm: 0.021909283027 xtb: 6.6.1 (8d0f1dd)
C            3.07657547781705        1.22079703695367        0.02413267673476
N            2.31837037053093       -0.03973372475146       -0.00996748230985
C            3.00061914102706       -1.14447077465916       -0.02451498707298
N            0.86691661615788       -2.48212415059995       -0.00895836173114
C            0.28090449946851       -1.33677008629221       -0.00417430392559
C            0.93217836963180       -0.05121040512194       -0.00453357817137
C            0.14855067047012        1.15258354350811       -0.01285883863411
O            0.59363026709832        2.29646551231919       -0.03228600730816
N           -1.22725357043596        0.98623839665658       -0.00007773662095
C           -2.05477523767072        2.17489796194777       -0.00037178466622
C           -1.89475256058932       -0.22416993490180        0.00693357766528
O           -3.10115465685639       -0.27155566851505        0.01507807299683
N           -1.10443358604894       -1.35435135831961        0.00224866785168
C           -1.78358578050734       -2.63259763975636        0.00207833029114
H            3.53496035458272        1.34762529407403        1.00606236064897
H            3.85284176946906        1.21391441179560       -0.74069279252465
H            2.40650945797077        2.06783234822183       -0.15408977526059
H            4.08689979565637       -1.10882346941097       -0.02134513317085
H           -1.40276784772717        3.04826765910714        0.00758477502956
H           -2.68882876966805        2.18493357219786       -0.88897282370598
H           -2.70090159151890        2.17534658312616        0.87939347741261
H           -1.50010567844206       -3.21212266328144        0.88236723135271
H           -1.51150492113328       -3.20554640304596       -0.88614956807960
H           -2.85931238367929       -2.44678260819161        0.00951336628568
H            1.89085130849690       -2.54040489146044       -0.01522774518717
25
 energy: -42.133879017273 gnorm: 0.021391502151 xtb: 6.6.1 (8d0f1dd)
C            3.08752469803013        1.19818301863135        0.02538278996224
N            2.30736229063860       -0.04288753152893       -0.01052711375292
C            2.94445665994935       -1.17287591636658       -0.02811614451915
N            0.90553360662673       -2.43582139897333       -0.00885560725941
C            0.27850394264202       -1.31407673531858       -0.00364988020019
C            0.92137261079279       -0.02695488779341       -0.00443193160948
C            0.13887222035682        1.17696564034806       -0.01390915964531
O            0.58722727365891        2.31827053656353       -0.03605414168006
N           -1.23720776737653        0.99728502360143       -0.00018328509096
C           -2.07716956731005        2.17790723387924       -0.00051795639980
C           -1.89420338440464       -0.22039750084003        0.00759680931196
O           -3.09977450265916       -0.27659395684238        0.01632650710063
N           -1.09976129023003       -1.35003217097043        0.00280062891323
C           -1.76279023043153       -2.63652977439379        0.00256652965492
H            3.54536808412093        1.31432048008949        1.00889036388413
H            3.86865930159914        1.17036572279205       -0.73426544915843
H            2.43075220226887        2.05364711385051       -0.15646709416629
H            4.02782853190746       -1.21029179716073       -0.02369417880616
H           -1.43263950470856        3.05704697834472        0.00754740490045
H           -2.71207139072748        2.18399836456918       -0.88868468952993
H           -2.72405099190468        2.17390787055886        0.87880765028778
H           -1.46936532791981       -3.21132134560578        0.88295272405462
H           -1.48092061136344       -3.20485914034108       -0.88582337906411
H           -2.84063937773167       -2.46596354482850        0.01005387057784
H            1.94756403827595       -2.43505374066489       -0.01657364986555
25
 energy: -42.134842008996 gnorm: 0.013626221097 xtb: 6.6.1 (8d0f1dd)
C            3.09603665148072        1.18199167874047        0.02688837471462
N            2.30670368306821       -0.04723912301659       -0.01175420021587
C            2.93251348617106       -1.17605615615965       -0.03197932115059
N            0.90698868953660       -2.41534793367194       -0.00883144926998
C            0.26836303694925       -1.30434566913763       -0.00334022948278
C            0.91834319815249       -0.01861207947187       -0.00501039877057
C            0.13519512610503        1.18878066181584       -0.01547860859776
O            0.58565040770881        2.32773363289839       -0.03944918408579
N           -1.24245463386733        1.00361541204084       -0.00037930711469
C           -2.09183493683218        2.17857426818225       -0.00076712409923
C           -1.89686514844248       -0.21535878667096        0.00848178406015
O           -3.10196001917639       -0.27571512712586        0.01804314440101
N           -1.10274770934947       -1.34585945657992        0.00368280349161
C           -1.75200837736303       -2.63899996739820        0.00345127509815
H            3.55192715023680        1.29122286417294        1.01226743029136
H            3.88281930923919        1.14001419694590       -0.72622801145328
H            2.45155444990217        2.04363272412081       -0.15971910970091
H            4.00685816500231       -1.25630884109450       -0.02607601009279
H           -1.45562208092669        3.06356301715815        0.00719712630741
H           -2.72827759155857        2.18006205434800       -0.88815914923901
H           -2.73999624746119        2.16980993144762        0.87788491549554
H           -1.44795447082998       -3.20914858590492        0.88357135435752
H           -1.45976561015911       -3.20268955560839       -0.88486946688647
H           -2.83102574946152       -2.48252244568806        0.01104760195469
H            1.96799073597545       -2.36255817274274       -0.01930262211228
25
 energy: -42.135391700085 gnorm: 0.012733570764 xtb: 6.6.1 (8d0f1dd)
C            3.10377062065907        1.17138124769914        0.02927612854233
N            2.30556066074768       -0.04923610406820       -0.01329399831433
C            2.92683832456894       -1.17806136132157       -0.03684851078500
N            0.90230795785496       -2.40645040740215       -0.00963841134868
C            0.25806094356451       -1.29938565672627       -0.00343507957602
C            0.91632666893964       -0.01335886285050       -0.00584705430791
C            0.13284153529623        1.19661760617616       -0.01731904711759
O            0.58416771163213        2.33334894982870       -0.04315834354701
N           -1.24633833733177        1.00726036527402       -0.00055966057597
C           -2.10246496890172        2.17773891251672       -0.00140366052480
C           -1.90175979846559       -0.21068377242013        0.00987412553853
O           -3.10669753184255       -0.27416247654650        0.02060857129887
N           -1.10847039096517       -1.34205544552070        0.00503712211410
C           -1.74550703114108       -2.64085320000492        0.00507325511918
H            3.55463496835825        1.27711088250913        1.01765364404004
H            3.89824017236095        1.11842934609918       -0.71495141090490
H            2.47430887369546        2.04118891055329       -0.16432107543567
H            3.99548594242013       -1.30178593610818       -0.03037921543910
H           -1.47408333453059        3.06777315736725        0.00622251709201
H           -2.74000271204667        2.17360135210745       -0.88832554465290
H           -2.75158587216212        2.16375938818807        0.87677159639589
H           -1.43159392849686       -3.20664019548122        0.88469267585073
H           -1.44398441373779       -3.20027628186971       -0.88299035246565
H           -2.82533138273762       -2.49777438739993        0.01299181657065
H            1.98570683636175       -2.28924748899916       -0.02455846966674
25
 energy: -42.135618239457 gnorm: 0.009411996517 xtb: 6.6.1 (8d0f1dd)
C            3.10588210361819        1.16879417832954        0.03148420769113
N            2.30363932868003       -0.04943809754021       -0.01450087755557
C            2.92590106746394       -1.17992662244759       -0.04035457864258
N            0.89978512147003       -2.40905878645690       -0.01178279172872
C            0.25548982409960       -1.30043283129150       -0.00423222236429
C            0.91611406705234       -0.01400205703732       -0.00658030409708
C            0.13282087312365        1.19648403513579       -0.01826040133351
O            0.58384158427872        2.33245295356187       -0.04517533419885
N           -1.24692032039482        1.00672936939013       -0.00053352845942
C           -2.10377717529473        2.17664711913645       -0.00209699747559
C           -1.90467871256198       -0.20944064048950        0.01116063926757
O           -3.10953368315230       -0.27367295428628        0.02297274220207
N           -1.11157890958023       -1.34099689399262        0.00609188937349
C           -1.74553656951873       -2.64108075534703        0.00677084649956
H            3.54956470136240        1.27520855793077        1.02328917931591
H            3.90659435087586        1.11068695692885       -0.70571572692502
H            2.48502421544751        2.04269211913059       -0.16932479244999
H            3.98880358842259       -1.31504950305321       -0.03417816240220
H           -1.47781372270381        3.06791186768757        0.00511238242199
H           -2.74144277739243        2.17035535559966       -0.88898715706191
H           -2.75322403568594        2.16136538447029        0.87585942692331
H           -1.42875328122371       -3.20544580483489        0.88614570414780
H           -1.44207687328948       -3.19945024945571       -0.88115125883999
H           -2.82545431059224       -2.50229595189315        0.01526294364062
H            1.99776105959574       -2.25079820757567       -0.03010421004866
