25
 energy: 0.000000000000 xtb: 6.6.1 (8d0f1dd)
C            3.23720163006194        1.16630919979326        0.08434469647475
N            2.29877817382611        0.07527477071623        0.03981603040599
C            2.58028210190900       -1.21425402444508        0.03006176031096
N            1.43813958087363       -1.93419271955128        0.00098261760884
C            0.39035688448383       -1.05887472636071       -0.00790371836672
C            0.93510056364412        0.21347819449412        0.01709077491437
C            0.09450143893243        1.40504303904423       -0.00410947031874
O            0.49712751527797        2.54126714362870       -0.00342325688240
N           -1.25076640035757        1.06271879480407       -0.03085478223738
C           -2.21907211982101        2.15522099834493       -0.05001256985998
C           -1.81739487048744       -0.20012725993278       -0.04692818574614
O           -2.99983886758376       -0.37846417018721       -0.07008878229737
N           -0.92618586207120       -1.30210215599479       -0.03682761578324
C           -1.46982264913417       -2.64643102187190       -0.06029820460571
H            3.71247264356769        1.21471455160235        1.06488849150277
H            4.00791497605742        1.03430808813993       -0.67357694370751
H            2.69910007168542        2.09770118228144       -0.09130154882931
H            3.56654120610678       -1.63682992603973        0.04233140067262
H           -1.67107961066214        3.09322851271934       -0.02552706933167
H           -2.82428953597071        2.09428624779827       -0.95318082946668
H           -2.87644029173232        2.07745725625962        0.81450067533302
H           -1.17061996399332       -3.19584890659852        0.83242232437030
H           -1.14560257411436       -3.17511610292205       -0.95688275822323
H           -2.55549792440841       -2.55659984320617       -0.07459039797972
H            1.38130855184625       -2.94313852034425       -0.01389874181052
25
 energy: -2.537529699455 xtb: 6.6.1 (8d0f1dd)
C            3.24335982402781        1.17175480695512        0.07907545261438
N            2.30700277944237        0.09060385158931        0.03579676682366
C            2.60406010678703       -1.23478728045556        0.02432071401375
N            1.43652015069908       -1.94771290213887        0.00126722108375
C            0.40071284221454       -1.06752514816477       -0.00095041105252
C            0.92777848061904        0.21339721753725        0.02187271268589
C            0.09178624080956        1.38470998491189        0.00639184874662
O            0.49046675427008        2.54922284895444        0.00779562986128
N           -1.27503433449835        1.04530430101388       -0.04392344733869
C           -2.23158696108343        2.16355863092227       -0.07216823528788
C           -1.82512562738554       -0.21543938636995       -0.03964531523257
O           -3.01954347303814       -0.40835372432944       -0.04857949072866
N           -0.92906293076484       -1.31486468502060       -0.02339061082872
C           -1.45644256321311       -2.66250644996288       -0.04441773445354
H            3.72384807461484        1.21872540363675        1.05968489038778
H            4.01037221072529        1.03435899999354       -0.68462332278392
H            2.69793871997105        2.09643042935898       -0.09757885230666
H            3.58446403914029       -1.65485903504362        0.02870351869813
H           -1.65523434136106        3.07721324120629        0.05486432720040
H           -2.83339427264006        2.35474444502116       -1.01081237172489
H           -2.94265838217011        2.03427946976807        0.73972445697658
H           -1.15022764527812       -3.21227273243615        0.84792161820763
H           -1.12315990897282       -3.19250599753463       -0.93923469673911
H           -2.54223093829254       -2.58243961425138       -0.06047876168090
H            1.37760582331334       -2.95200807298910       -0.01458201099451
25
 energy: 10.811919416192 xtb: 6.6.1 (8d0f1dd)
C            3.24923788416709        1.17183153901129        0.07041642918130
N            2.31095983951810        0.10413177561452        0.02928150350808
C            2.62646494771174       -1.25630008070206        0.01571170741195
N            1.43397384168209       -1.95989181938242        0.00129272424036
C            0.41231122783444       -1.08049400949564        0.00976458311803
C            0.91385507086773        0.21193737724322        0.02850063265066
C            0.08663644335479        1.35521058226020        0.01098048229453
O            0.47455717428321        2.54216569691432        0.02388640742222
N           -1.31525621075298        1.03029111897987       -0.07600751211381
C           -2.24833658731514        2.18494834327006       -0.10197753499452
C           -1.83250212188471       -0.23409971057621       -0.02517305220975
O           -3.03180614124341       -0.45505462018444       -0.00635475691242
N           -0.93194609280560       -1.33007593211264       -0.00019148985132
C           -1.43530740328091       -2.68479520677511       -0.02024161279469
H            3.73869086467092        1.22155916759858        1.04917904054995
H            4.01335314116850        1.03174833450359       -0.69891806976681
H            2.70006601409110        2.09275052557190       -0.10665659695943
H            3.60171844855291       -1.66922646707755        0.00779779218649
H           -1.63458271717076        3.05983759578456        0.18870986199027
H           -2.81629683947828        2.73376328884294       -1.08879118974059
H           -3.05173859969831        1.95569130820039        0.61264066202590
H           -1.12103600972182       -3.23589956893195        0.87116335321292
H           -1.09005843906447       -3.21645402918565       -0.91277013769021
H           -2.52175186043781       -2.62295995208308       -0.03922544361857
H            1.38100879288785       -2.96158665511679       -0.01598388699327
25
 energy: 30.385730595081 xtb: 6.6.1 (8d0f1dd)
C            3.25391395684885        1.16450782917155        0.06360687275117
N            2.31132160262658        0.10343053522513        0.02418730503119
C            2.63603577112285       -1.27195750193240        0.00675264303388
N            1.43556635012826       -1.97043503640834       -0.00176030406990
C            0.41916029615668       -1.09388719345127        0.01892894352376
C            0.90537477618438        0.20601217358979        0.03510375707120
C            0.08180562303560        1.33981596619442        0.01295881406065
O            0.46300646386062        2.53254217148106        0.04414159349800
N           -1.34642370457000        1.03389328521641       -0.10741324005066
C           -2.26367636509685        2.22066811644587       -0.12805263850231
C           -1.83785901638219       -0.24401874260682       -0.00757915046965
O           -3.03535079715318       -0.49291406045093        0.03964116421500
N           -0.93123994296673       -1.33986852662380        0.02281562251126
C           -1.41343427031704       -2.70440935459478        0.00169981506696
H            3.75100988435340        1.21627774407697        1.03971976938556
H            4.01575697126543        1.02450914859034       -0.70929912788137
H            2.70687721189013        2.08725883922560       -0.11169771309765
H            3.61255914622133       -1.67926151996879       -0.01697259968175
H           -1.64914789413745        3.04717998382813        0.30682974331103
H           -2.79118906904923        3.04290300968730       -1.13246876767195
H           -3.15488653038432        1.89767779864476        0.46601068070485
H           -1.09201820051796       -3.25692264836378        0.89127346928278
H           -1.05571058930726       -3.23448932943250       -0.88889682946142
H           -2.50093174672710       -2.66635880578279       -0.02060025884463
H            1.39169474085141       -2.97312527958925       -0.02189566756871
25
 energy: 48.565238437849 xtb: 6.6.1 (8d0f1dd)
C            3.25724354221803        1.15324192750729        0.06048697066651
N            2.31084563932552        0.09254027845261        0.02113383389080
C            2.63638456976451       -1.27984660808675        0.00168095186559
N            1.44183620110378       -1.97807053695710       -0.00571172472807
C            0.42295177411048       -1.10633674853333        0.02433360349697
C            0.90424042675026        0.19627037457059        0.03989810532111
C            0.08056516478881        1.33315965602243        0.01203930295525
O            0.45496780668064        2.51887845623635        0.06393331936812
N           -1.36221521035676        1.04128229043599       -0.12895572244954
C           -2.27825105653679        2.24269085929248       -0.13990891354125
C           -1.83891124207797       -0.24974987347455        0.01105939359647
O           -3.02828840833090       -0.51788621033467        0.08295960142857
N           -0.92689530825285       -1.34589723002696        0.04002702676616
C           -1.39512327084011       -2.71899848148336        0.01679985285799
H            3.75761306984941        1.20610574136888        1.03469540917099
H            4.01802596351224        1.01491880186404       -0.71332911076325
H            2.71479592755406        2.08022707320373       -0.11269706632975
H            3.61724871166674       -1.68218685546376       -0.03859955177545
H           -1.70323039596977        3.01512958074179        0.37060197534688
H           -2.79027746677007        3.30034297184483       -1.14370464682290
H           -3.21178310801254        1.87556418775686        0.33382183705743
H           -1.06880032429476       -3.27076430923724        0.90552468450722
H           -1.02608767531849       -3.24473830609661       -0.87243111292905
H           -2.48295646224730       -2.70336564395548       -0.00872365651528
H            1.40831579962007       -2.98348279347622       -0.02790046629424
25
 energy: 61.275554431648 xtb: 6.6.1 (8d0f1dd)
C            3.25797253147533        1.14564499227826        0.05379004985228
N            2.31158901568078        0.08015880232362        0.01615031497047
C            2.63105381352133       -1.27629664891429        0.00259053918678
N            1.45041616016694       -1.97992377069531       -0.00507406993438
C            0.42333877379038       -1.11346894947381        0.02330069089123
C            0.90961432331374        0.18800728165832        0.03916335402982
C            0.08459949165716        1.33358031051131        0.01478353466371
O            0.45208039430054        2.50911077737260        0.07756077925044
N           -1.35688186157949        1.04104265316357       -0.13070355454110
C           -2.28209695111831        2.23400558295373       -0.13968914197100
C           -1.83646677922049       -0.25411321374410        0.01526639304333
O           -3.01714588572895       -0.52410344537908        0.10562426950960
N           -0.92156264630340       -1.34907447074288        0.04410586857693
C           -1.38906821324465       -2.72477016373583        0.02720105832135
H            3.75665852246921        1.20027482024966        1.02761473250546
H            4.01811653509664        1.00664843081975       -0.71917889534809
H            2.71775376759483        2.07441673932425       -0.12057089778623
H            3.61558966054843       -1.67566933945510       -0.04823230466688
H           -1.75442744259705        2.97117649149047        0.43912947464942
H           -2.78725938534997        3.48359640260013       -1.15429672286347
H           -3.24208324670001        1.84275583717946        0.22189184440846
H           -1.06136304592008       -3.27009109257843        0.91886129974819
H           -1.01626083973781       -3.24935822787398       -0.85989891708883
H           -2.47576631486036       -2.71724519219113        0.00089530697015
H            1.42381429068150       -2.98727600496936       -0.02325111023033
25
 energy: 74.966863328020 xtb: 6.6.1 (8d0f1dd)
C            3.25706194360767        1.14005388150185        0.04664386145501
N            2.31390327176396        0.06522045333082        0.01036179799958
C            2.62362201017477       -1.26636242226868        0.00681090561480
N            1.46210803622426       -1.97970652617026       -0.00284419988367
C            0.42289103504347       -1.12032737388461        0.01977506133813
C            0.91785800481818        0.17900206658860        0.03388374248784
C            0.09089579404184        1.33294133311732        0.01689869169716
O            0.45125725262520        2.49665948057452        0.08912012362621
N           -1.34000465004284        1.03235474067988       -0.11319765729190
C           -2.27385173853292        2.19937978143848       -0.12928372482687
C           -1.83108130712734       -0.26478612017998        0.02463691643098
O           -3.00217815180241       -0.53155807420909        0.12824219648515
N           -0.91346401054477       -1.35590921001308        0.04425655380970
C           -1.38609582136143       -2.73201219712769        0.03500295402742
H            3.75243729810900        1.19875596355520        1.02034834822446
H            4.01750475338932        1.00180740807689       -0.72431442503249
H            2.71627601314618        2.06861004244024       -0.12999532768595
H            3.61151818771143       -1.66500429224572       -0.05077080632606
H           -1.81807276355542        2.91354847918804        0.48729637300676
H           -2.80412278117920        3.70915831706040       -1.16257293466505
H           -3.25028412305036        1.80713434581082        0.10277093280040
H           -1.05922198196478       -3.27109382931970        0.92964292334034
H           -1.01489344860129       -3.25670217339197       -0.85064522131335
H           -2.47173596060192       -2.72337915439949        0.01002429511006
H            1.43988780564570       -2.98875631798101       -0.01505748428137
25
 energy: 87.704386313024 xtb: 6.6.1 (8d0f1dd)
C            3.25407191491648        1.13613553324188        0.03580727176012
N            2.31774569535811        0.04565725511426        0.00501120355580
C            2.61468713894269       -1.25052628940788        0.01166825964608
N            1.47884391678872       -1.98002386339838        0.00288421967766
C            0.42198014859189       -1.12834977184536        0.01815462397053
C            0.93004442092064        0.16676377482311        0.02890504586263
C            0.09549136787808        1.33173563910819        0.02328799888811
O            0.45207672377698        2.48031353000694        0.09563971730232
N           -1.30935461663679        1.01246328107732       -0.07110399875556
C           -2.24970906247496        2.12967873840539       -0.11211562866710
C           -1.82151459751209       -0.28375478901519        0.03781655675224
O           -2.98359560502708       -0.54242028605865        0.14962777206817
N           -0.89942324369356       -1.36917210494148        0.04332497306211
C           -1.38317924112479       -2.74297984457637        0.04442201715400
H            3.74590476862918        1.20024686726270        1.00863616025860
H            4.01410127977699        0.99878233038422       -0.73336017763965
H            2.71026976016828        2.06308568202476       -0.14328913230512
H            3.60639871495057       -1.65163363607289       -0.05090070763513
H           -1.89323765168901        2.85054367479431        0.55084448809472
H           -2.84590824400080        4.02753508251779       -1.18902992538940
H           -3.25473741820395        1.75123405709074       -0.05077045048671
H           -1.05954740513538       -3.27351560211873        0.94345288737171
H           -1.01769461856195       -3.26861718537729       -0.84001106514037
H           -2.46829184741510       -2.72382522384084        0.02194080877722
H            1.45679236871312       -2.99032824702679       -0.00380902203571
25
 energy: 92.606088812312 xtb: 6.6.1 (8d0f1dd)
C            3.25067134317897        1.13768605848406        0.03678159442021
N            2.31836286497360        0.03785457216104        0.00930613493990
C            2.61115140855442       -1.24036842964997        0.01030962814071
N            1.48766750262693       -1.98083501207425        0.00496603320331
C            0.42023778515694       -1.12948862175780        0.02093758478355
C            0.93558382016882        0.16249591875274        0.03188226918715
C            0.08886897458035        1.33149882394419        0.02903393232150
O            0.45193164473337        2.47514312120116        0.09208607654932
N           -1.28898389028135        0.99403658845567       -0.02713358928743
C           -2.22245018568723        2.06746571571365       -0.09316652010323
C           -1.81683185851331       -0.29977679875278        0.05062392840787
O           -2.98004045151196       -0.55080563284129        0.15374914906465
N           -0.89050311617600       -1.38094274248805        0.04156681240921
C           -1.38074328813621       -2.75176330090866        0.04203502874742
H            3.74161148649572        1.20112660152450        1.00884838127402
H            4.01079173450776        1.00160482613018       -0.73172255169296
H            2.70454981210240        2.06345804683204       -0.14089594065460
H            3.60372435875109       -1.64819410787710       -0.04817095161563
H           -1.92460405506231        2.84208139413188        0.49945842167981
H           -2.92005038999057        4.16686892767183       -1.19707844617591
H           -3.19993637025911        1.75800683393112       -0.07974963129678
H           -1.06012651952225       -3.28034656761492        0.94172958414874
H           -1.01902297644181       -3.27575620575691       -0.84350279989973
H           -2.46716065638312       -2.72145123122668        0.02023759412854
H            1.45751569007110       -2.99057017581389       -0.00509782653238
25
 energy: 92.041829497345 xtb: 6.6.1 (8d0f1dd)
C            3.25055278588570        1.14437124495217        0.03393802420478
N            2.32289954072193        0.03815029227438        0.01545540299173
C            2.61750805358599       -1.23522902005879       -0.00247605613872
N            1.49744051853800       -1.98588391776638        0.00598721497023
C            0.42173437931467       -1.12488534514519        0.02789516573488
C            0.94440022436600        0.16431967776186        0.04264260308898
C            0.08225962108450        1.33244720303312        0.05305411901683
O            0.46867681789095        2.48463858690720        0.08474402138206
N           -1.25295697790669        0.96730570808604        0.06522425248172
C           -2.16104187324096        1.96458116220712       -0.03835347160966
C           -1.80627657614928       -0.31895212733036        0.06919823494881
O           -2.98538600163112       -0.55075981492865        0.14278023982697
N           -0.88030657548793       -1.39614901497706        0.03887174653920
C           -1.38274452559618       -2.75765365079885        0.03775709805099
H            3.74158268142865        1.20375336035726        1.00553522187380
H            4.00905602658643        1.00507380647860       -0.73596191210965
H            2.69850206811858        2.06557807427842       -0.14223238062349
H            3.60649126085974       -1.65705239210289       -0.04391624102672
H           -1.94570958403245        2.90522835207766        0.41786292349999
H           -3.00602218750593        4.27018258343431       -1.23635059322914
H           -3.20548418481709        1.73398993279347       -0.11042030204522
H           -1.06569759864081       -3.28479716508277        0.93769460660644
H           -1.02970070141820       -3.28159441499034       -0.85016466658759
H           -2.47221353275856       -2.70599173655601        0.01881155505658
H            1.44465100874032       -2.99164278273253       -0.01054291075656
25
 energy: 89.737642487589 xtb: 6.6.1 (8d0f1dd)
C            3.25207455613840        1.15093083666189        0.04083552366640
N            2.32323456101569        0.05530517612510        0.02520755325118
C            2.63557861874562       -1.24833324662301       -0.01393923249695
N            1.49968484602127       -1.99196460775378        0.00469487132751
C            0.43063292916903       -1.12490666069503        0.03658855825642
C            0.93841805569374        0.17268344641161        0.05798514183336
C            0.07659716009173        1.32041176844465        0.06197949278096
O            0.48076474322504        2.49335810868847        0.06813293716408
N           -1.26761430029627        0.95948862041842        0.08913837571708
C           -2.15442189395753        1.94409626715207        0.01409435721651
C           -1.80344506656206       -0.33535406424433        0.07729738324023
O           -2.99931859919345       -0.56618809198115        0.11922375152870
N           -0.88286240954446       -1.40781998090029        0.04220104977825
C           -1.38112930976042       -2.76419853618429        0.03035890323641
H            3.74281710357073        1.20918568978866        1.01441038631451
H            4.01172261411179        1.00965000698435       -0.72949131936020
H            2.69493963231231        2.06794088067314       -0.13642669505090
H            3.61932677406053       -1.66915044391845       -0.03685248278228
H           -1.86584235787831        2.97297714087092        0.27637137833227
H           -3.11321803082876        4.28978412101311       -1.26127141389233
H           -3.19670642156684        1.73779009940299       -0.01361651697591
H           -1.06662927499759       -3.29679392140438        0.92864341155412
H           -1.02851551499129       -3.28769456793767       -0.85992248515523
H           -2.47169279436929       -2.70769415920021        0.00874765696561
H            1.43781904772664       -2.99447527962097       -0.01735669030254
25
 energy: 87.807227152091 xtb: 6.6.1 (8d0f1dd)
C            3.25430911093974        1.15014402177947        0.04146690965741
N            2.32543586182313        0.06244369812928        0.02621955723134
C            2.64783357982660       -1.26222880494689       -0.01680315142487
N            1.50213864555115       -1.99447870451203        0.00230482121038
C            0.44360215223765       -1.13648082563468        0.04398305936025
C            0.93483999894309        0.17067097157730        0.06915585201747
C            0.09058185923920        1.29936470581906        0.07545557487943
O            0.48642985944811        2.48417418799503        0.07110338673656
N           -1.28836018304215        0.95802493229028        0.09301101615215
C           -2.18466587380189        1.95912732234833        0.06120457997316
C           -1.79330457669411       -0.35144992404475        0.09202884278013
O           -2.99251783265549       -0.58382851704368        0.11636287105325
N           -0.88264757180593       -1.41715918597123        0.05347020267225
C           -1.37664557609212       -2.77175127238724        0.02948825580375
H            3.74580533581306        1.21605783227582        1.01576273863323
H            4.01424126622596        1.01327314409389       -0.72952522965727
H            2.69333602972410        2.06622956775514       -0.13724172761127
H            3.63079904059357       -1.66910509046078       -0.03542531404100
H           -1.78888838768283        2.96449297631606        0.18088886554188
H           -3.19951294085168        4.42446183383853       -1.31085101181539
H           -3.24421776564614        1.72728103027854        0.03762425879321
H           -1.06455865330022       -3.31184613400732        0.92560527735182
H           -1.02435864040686       -3.29359431249484       -0.86326611902688
H           -2.46534968890000       -2.71718264255403        0.00602079809893
H            1.44788961845031       -2.99761220826741       -0.02101041822264
25
 energy: 87.593583005590 xtb: 6.6.1 (8d0f1dd)
C            3.25475301789003        1.14770476994829        0.04307127726471
N            2.32562887469250        0.05948453925103        0.02436993555416
C            2.64296396866564       -1.26381014605236       -0.01246223190349
N            1.49890748515441       -1.99063655391246        0.00234901888913
C            0.44435769931088       -1.14058281501496        0.04341092864678
C            0.93535485578348        0.16829117215694        0.06513812110328
C            0.10088674942932        1.29781476806082        0.07699822644404
O            0.47934580559904        2.48363807127718        0.06874399298634
N           -1.28787931512587        0.95772635037516        0.09192590193701
C           -2.19323021071633        1.95440638451028        0.08548035489418
C           -1.78879175471201       -0.35435496836507        0.08658460975317
O           -2.98709657284204       -0.57703738911500        0.10662420384445
N           -0.88362754563322       -1.41549590927637        0.05370821034136
C           -1.37735279720990       -2.77120245545939        0.03009769725227
H            3.74581644440064        1.21698224267139        1.01748384500864
H            4.01517938174346        1.01298677792243       -0.72693219313457
H            2.69613357644756        2.06650128598217       -0.13600206833512
H            3.62925242702653       -1.66469542217337       -0.03198593932753
H           -1.77303347556143        2.96966285983785        0.15159903357054
H           -3.23617840278743        4.44237990951124       -1.36206068177835
H           -3.22686840091931        1.70902019353015        0.09862110010364
H           -1.06468366165736       -3.31166663759076        0.92621823242532
H           -1.02255765382371       -3.29199583708586       -0.86189722585142
H           -2.46538480170392       -2.72021061622519        0.00514484559072
H            1.45031897448530       -2.99588197259234       -0.01919529913204
25
 energy: 87.142235025418 xtb: 6.6.1 (8d0f1dd)
C            3.25342070954985        1.14432259032664        0.04402767012071
N            2.32681847063878        0.05029174366978        0.01937334894909
C            2.63457696192004       -1.26238195297695       -0.00925885568676
N            1.49781454192619       -1.98656089823089       -0.00054191329457
C            0.44253442843037       -1.14689306382776        0.04314474565182
C            0.93739982833047        0.16285857818641        0.05915276367768
C            0.11288129358060        1.30095726013752        0.08424487069377
O            0.46319854019822        2.48209841249740        0.07295290541789
N           -1.28442613129632        0.95638516703093        0.10821826435961
C           -2.19065435719689        1.95444721360326        0.11109567288465
C           -1.78865472602725       -0.35723237889384        0.09739220382069
O           -2.98259715487802       -0.57245767280475        0.11900572204256
N           -0.88412403576037       -1.41225947997235        0.05837994113434
C           -1.37760162470656       -2.77162152932861        0.02945087665156
H            3.74454109445198        1.21425829567562        1.01778412131194
H            4.01338282792722        1.01474741166617       -0.72635596653804
H            2.69612847356848        2.06581683189044       -0.13266225577969
H            3.62731760853259       -1.65657736522116       -0.03906543583787
H           -1.77356812035431        2.95275805046058        0.13691146349699
H           -3.24057195960713        4.46208383126917       -1.44973582053660
H           -3.22638970904450        1.71460465890555        0.13896793580384
H           -1.06314900492034       -3.31401463934421        0.92365636061724
H           -1.02105508851303       -3.28769742938127       -0.86389789527896
H           -2.46478581775440       -2.72376239760551        0.00493322530124
H            1.45977761894059       -2.99514263556032       -0.02014005283586
25
 energy: 86.969985505701 xtb: 6.6.1 (8d0f1dd)
C            3.25385901789161        1.14323602478590        0.04533776675179
N            2.32878568489623        0.04680446983177        0.01829970033875
C            2.63232582392274       -1.26139584614133       -0.00642509330131
N            1.49724397333480       -1.98605201988266       -0.00028639400648
C            0.43980957674341       -1.14646747987584        0.04002896198923
C            0.93838486849093        0.16348649600237        0.05231459169438
C            0.11933902029145        1.30636443933569        0.07757877339635
O            0.45962017309933        2.48521273304432        0.07037472693993
N           -1.28137418799618        0.95706784300924        0.10978999521851
C           -2.18251984938131        1.95944314007119        0.13456350915198
C           -1.79253864697667       -0.35506914968573        0.09444042648317
O           -2.98625898300405       -0.57024276105478        0.12046629902153
N           -0.88529992086296       -1.40801791023422        0.05577898474451
C           -1.37854089601572       -2.76944777144981        0.02798292003120
H            3.74341125064198        1.21145207729236        1.01956226207195
H            4.01470165717654        1.01385177522398       -0.72449913997241
H            2.69671753303891        2.06417083804842       -0.13217120738372
H            3.62608399825196       -1.65547377088481       -0.04008935262297
H           -1.78194264636514        2.95751812313606        0.14415222912999
H           -3.23980948121975        4.42554726207922       -1.50754753480805
H           -3.22176504590649        1.71941523476588        0.18214168519406
H           -1.06426409790834       -3.30919212767317        0.92358496097547
H           -1.02063604116429       -3.28641144412240       -0.86406175176226
H           -2.46575661345504       -2.72166448317799        0.00285599370063
H            1.46263850041230       -2.99510709027184       -0.01713941682895
25