      -----------------------------------------------------------      
     |                   =====================                   |     
     |                           x T B                           |     
     |                   =====================                   |     
     |                         S. Grimme                         |     
     |          Mulliken Center for Theoretical Chemistry        |     
     |                    University of Bonn                     |     
      -----------------------------------------------------------      

   * xtb version 6.6.1 (8d0f1dd) compiled by 'conda@1efc2f54142f' on 2023-08-01

   xtb is free software: you can redistribute it and/or modify it under
   the terms of the GNU Lesser General Public License as published by
   the Free Software Foundation, either version 3 of the License, or
   (at your option) any later version.
   
   xtb is distributed in the hope that it will be useful,
   but WITHOUT ANY WARRANTY; without even the implied warranty of
   MERCHANTABILITY or FITNESS FOR A PARTICULAR PURPOSE.  See the
   GNU Lesser General Public License for more details.
   
   Cite this work as:
   * C. Bannwarth, E. Caldeweyher, S. Ehlert, A. Hansen, P. Pracht,
     J. Seibert, S. Spicher, S. Grimme, WIREs Comput. Mol. Sci., 2020, 11,
     e01493. DOI: 10.1002/wcms.1493
   
   for GFN2-xTB:
   * C. Bannwarth, S. Ehlert and S. Grimme., J. Chem. Theory Comput., 2019,
     15, 1652-1671. DOI: 10.1021/acs.jctc.8b01176
   for GFN1-xTB:
   * S. Grimme, C. Bannwarth, P. Shushkov, J. Chem. Theory Comput., 2017,
     13, 1989-2009. DOI: 10.1021/acs.jctc.7b00118
   for GFN0-xTB:
   * P. Pracht, E. Caldeweyher, S. Ehlert, S. Grimme, ChemRxiv, 2019, preprint.
     DOI: 10.26434/chemrxiv.8326202.v1
   for GFN-FF:
   * S. Spicher and S. Grimme, Angew. Chem. Int. Ed., 2020, 59, 15665-15673.
     DOI: 10.1002/anie.202004239
   
   for ALPB and GBSA implicit solvation:
   * S. Ehlert, M. Stahn, S. Spicher, S. Grimme, J. Chem. Theory Comput.,
     2021, 17, 4250-4261. DOI: 10.1021/acs.jctc.1c00471
   
   for DFT-D4:
   * E. Caldeweyher, C. Bannwarth and S. Grimme, J. Chem. Phys., 2017,
     147, 034112. DOI: 10.1063/1.4993215
   * E. Caldeweyher, S. Ehlert, A. Hansen, H. Neugebauer, S. Spicher,
     C. Bannwarth and S. Grimme, J. Chem. Phys., 2019, 150, 154122.
     DOI: 10.1063/1.5090222
   * E. Caldeweyher, J.-M. Mewes, S. Ehlert and S. Grimme, Phys. Chem. Chem. Phys.
     2020, 22, 8499-8512. DOI: 10.1039/D0CP00502A
   
   for sTDA-xTB:
   * S. Grimme and C. Bannwarth, J. Chem. Phys., 2016, 145, 054103.
     DOI: 10.1063/1.4959605
   
   in the mass-spec context:
   * V. Asgeirsson, C. Bauer and S. Grimme, Chem. Sci., 2017, 8, 4879.
     DOI: 10.1039/c7sc00601b
   * J. Koopman and S. Grimme, ACS Omega 2019, 4, 12, 15120-15133.
     DOI: 10.1021/acsomega.9b02011
   
   for metadynamics refer to:
   * S. Grimme, J. Chem. Theory Comput., 2019, 155, 2847-2862
     DOI: 10.1021/acs.jctc.9b00143
   
   for SPH calculations refer to:
   * S. Spicher and S. Grimme, J. Chem. Theory Comput., 2021, 17, 1701-1714
     DOI: 10.1021/acs.jctc.0c01306
   
   with help from (in alphabetical order)
   P. Atkinson, C. Bannwarth, F. Bohle, G. Brandenburg, E. Caldeweyher
   M. Checinski, S. Dohm, S. Ehlert, S. Ehrlich, I. Gerasimov, C. Hölzer
   A. Katbashev, J. Koopman, C. Lavigne, S. Lehtola, F. März, M. Müller,
   F. Musil, H. Neugebauer, J. Pisarek, C. Plett, P. Pracht, F. Pultar,
   J. Seibert, P. Shushkov, S. Spicher, M. Stahn, M. Steiner, T. Strunk,
   J. Stückrath, T. Rose, and J. Unsleber
   
 * started run on 2024/04/06 at 11:11:44.790     

           -------------------------------------------------
          |                Calculation Setup                |
           -------------------------------------------------

          program call               : xtb xtbopt.xyz --opt crude --input .xc2 --gfn2
          hostname                   : n-62-30-23
          coordinate file            : xtbopt.xyz
          omp threads                :                     1

   ID    Z sym.   atoms
    1    7 N      1, 17
    2    6 C      2-6, 8, 9, 11-16, 18-23, 25, 26, 28-33
    3    8 O      7, 10, 24, 27
    4    1 H      34-72

molecular fragmentation (1/2 indicates fragments):
112222222222222222222222222222222222222222222212222222222222222222222221
# atoms in fragment 1/2:     4    68
 fragment masses (1/2) :       28.03      427.58
CMA distance (Bohr)    :   6.938
constraining FC (au)   :  0.0500
########################################################################
[WARNING] Please study the warnings concerning your input carefully
-1- readin_getIntValue: could not parse ''
########################################################################

           -------------------------------------------------
          |                 G F N 2 - x T B                 |
           -------------------------------------------------

        Reference                      10.1021/acs.jctc.8b01176
      * Hamiltonian:
        H0-scaling (s, p, d)           1.850000    2.230000    2.230000
        zeta-weighting                 0.500000
      * Dispersion:
        s8                             2.700000
        a1                             0.520000
        a2                             5.000000
        s9                             5.000000
      * Repulsion:
        kExp                           1.500000    1.000000
        rExp                           1.000000
      * Coulomb:
        alpha                          2.000000
        third order                    shell-resolved
        anisotropic                    true
        a3                             3.000000
        a5                             4.000000
        cn-shift                       1.200000
        cn-exp                         4.000000
        max-rad                        5.000000

q/qsh data taken from xtbrestart
CAMM data taken from xtbrestart

          ...................................................
          :                      SETUP                      :
          :.................................................:
          :  # basis functions                 171          :
          :  # atomic orbitals                 171          :
          :  # shells                          105          :
          :  # electrons                       180          :
          :  max. iterations                   250          :
          :  Hamiltonian                  GFN2-xTB          :
          :  restarted?                       true          :
          :  GBSA solvation                  false          :
          :  PC potential                    false          :
          :  electronic temp.         5000.0000000     K    :
          :  accuracy                    1.0000000          :
          :  -> integral cutoff          0.2500000E+02      :
          :  -> integral neglect         0.1000000E-07      :
          :  -> SCF convergence          0.1000000E-05 Eh   :
          :  -> wf. convergence          0.1000000E-03 e    :
          :  Broyden damping             0.4000000          :
          ...................................................

 iter      E             dE          RMSdq      gap      omega  full diag
   1   -100.7008567 -0.100701E+03  0.281E-05    0.07       0.0  T
   2   -100.7008567  0.103029E-09  0.382E-05    0.07     308.3  T
   3   -100.7008567 -0.104052E-09  0.196E-05    0.07     601.1  T

   *** convergence criteria satisfied after 3 iterations ***

         #    Occupation            Energy/Eh            Energy/eV
      -------------------------------------------------------------
         1        2.0000           -0.8074568             -21.9720
       ...           ...                  ...                  ...
        84        1.9974           -0.5141315             -13.9902
        85        1.9961           -0.5078367             -13.8189
        86        1.9890           -0.4913467             -13.3702
        87        1.9819           -0.4834731             -13.1560
        88        1.9393           -0.4639338             -12.6243
        89        1.8687           -0.4511396             -12.2761
        90        0.9668           -0.4080429             -11.1034 (HOMO)
        91        0.8814           -0.4053215             -11.0294 (LUMO)
        92        0.3710           -0.3856695             -10.4946
        93        0.0121           -0.3282799              -8.9330
        94        0.0033           -0.3077298              -8.3738
        95        0.0032           -0.3070744              -8.3559
       ...           ...                  ...                  ...
       171                          0.6676638              18.1681
      -------------------------------------------------------------
                  HL-Gap            0.0027213 Eh            0.0741 eV
             Fermi-level           -0.4090950 Eh          -11.1320 eV

 SCC (total)                   0 d,  0 h,  0 min,  0.121 sec
 SCC setup                      ...        0 min,  0.001 sec (  0.948%)
 Dispersion                     ...        0 min,  0.002 sec (  1.665%)
 classical contributions        ...        0 min,  0.001 sec (  0.417%)
 integral evaluation            ...        0 min,  0.019 sec ( 15.659%)
 iterations                     ...        0 min,  0.028 sec ( 23.080%)
 molecular gradient             ...        0 min,  0.070 sec ( 57.685%)
 printout                       ...        0 min,  0.001 sec (  0.533%)

         :::::::::::::::::::::::::::::::::::::::::::::::::::::
         ::                     SUMMARY                     ::
         :::::::::::::::::::::::::::::::::::::::::::::::::::::
         :: total energy             -99.303080025005 Eh    ::
         :: gradient norm              0.002525201768 Eh/a0 ::
         :: HOMO-LUMO gap              0.074051433838 eV    ::
         ::.................................................::
         :: SCC energy              -100.700856692073 Eh    ::
         :: -> isotropic ES            0.105358106550 Eh    ::
         :: -> anisotropic ES          0.002096241141 Eh    ::
         :: -> anisotropic XC          0.046361887730 Eh    ::
         :: -> dispersion             -0.073381583502 Eh    ::
         :: repulsion energy           1.395798919916 Eh    ::
         :: add. restraining           0.000000000000 Eh    ::
         :: total charge               1.000000000000 e     ::
         :::::::::::::::::::::::::::::::::::::::::::::::::::::

      ----------------------------------------------------------- 
     |                   =====================                   |
     |                        A N C O P T                        |
     |                   =====================                   |
     |               Approximate Normal Coordinate               |
     |                Rational Function Optimizer                |
      ----------------------------------------------------------- 

          ...................................................
          :                      SETUP                      :
          :.................................................:
          :   optimization level             crude          :
          :   max. optcycles                   200          :
          :   ANC micro-cycles                  20          :
          :   degrees of freedom               210          :
          :.................................................:
          :   RF solver                   davidson          :
          :   write xtbopt.log                true          :
          :   linear?                        false          :
          :   energy convergence         0.5000000E-03 Eh   :
          :   grad. convergence          0.1000000E-01 Eh/α :
          :   maxmium RF displ.          1.0000000          :
          :   Hlow (freq-cutoff)         0.1000000E-01      :
          :   Hmax (freq-cutoff)         5.0000000          :
          :   S6 in model hess.         20.0000000          :
          ...................................................

generating ANC from model Hessian ...
Using Lindh-Hessian (1995)
 Shifting diagonal of input Hessian by    9.9866241867437346E-003
 Lowest  eigenvalues of input Hessian
    0.000000    0.000000    0.000000    0.000000    0.000000    0.000000
    0.010000    0.010034    0.010084    0.010142    0.010166    0.010291
    0.010311    0.010449    0.010661    0.010670    0.010690    0.010912
 Highest eigenvalues
    2.008191    2.021396    2.048076    2.182472    2.188702    2.251726


........................................................................
.............................. CYCLE    1 ..............................
........................................................................

 iter      E             dE          RMSdq      gap      omega  full diag
   1   -100.7008567 -0.100701E+03  0.207E-05    0.07       0.0  T
   2   -100.7008567  0.346233E-09  0.557E-05    0.07     211.5  T
   3   -100.7008567 -0.381860E-09  0.989E-06    0.07    1191.6  T
     SCC iter.                  ...        0 min,  0.026 sec
     gradient                   ...        0 min,  0.069 sec
 * total energy  :   -99.3030800 Eh     change       -0.2079048E-10 Eh
   gradient norm :     0.0025239 Eh/α   predicted     0.0000000E+00 (-100.00%)
   displ. norm   :     0.0353486 α      lambda       -0.2004585E-04
   maximum displ.:     0.0171030 α      in ANC's #1, #12, #5, ...

   *** GEOMETRY OPTIMIZATION CONVERGED AFTER 1 ITERATIONS ***

------------------------------------------------------------------------
 total energy gain   :        -0.0000000 Eh       -0.0000 kcal/mol
 total RMSD          :         0.0000002 a0        0.0000 Å
 total power (kW/mol):        -0.0000001 (step)   -0.0000 (real)
------------------------------------------------------------------------

 ANCopt (total)                0 d,  0 h,  0 min,  0.178 sec
 optimizer setup                ...        0 min,  0.000 sec (  0.146%)
 model hessian                  ...        0 min,  0.048 sec ( 27.015%)
 ANC generation                 ...        0 min,  0.007 sec (  3.678%)
 coordinate transformation      ...        0 min,  0.000 sec (  0.028%)
 single point calculation       ...        0 min,  0.120 sec ( 67.592%)
 optimization log               ...        0 min,  0.002 sec (  0.993%)
 hessian update                 ...        0 min,  0.000 sec (  0.001%)
 rational function              ...        0 min,  0.001 sec (  0.488%)

================
 final structure:
================
72
 xtb: 6.6.1 (8d0f1dd)
N           -0.90467882082398        0.41908120534950        3.55640039173579
C           -0.07278648537700        1.08235686032511        2.97679106822065
C           -3.25383517752709        1.76968979831314       -0.49518748622053
C           -3.65837701494267        0.48764383336841       -0.07612179138924
C           -4.35553069550364       -0.38643508439166       -0.95808141165217
C           -4.72741094915381       -1.65734112341899       -0.58725051541275
O           -5.41941583039352       -2.52779206285081       -1.35645340946432
C           -5.87843052118306       -2.11424970080351       -2.62107337891512
C           -4.38022607043518       -2.15148282355334        0.70439487123660
O           -4.75798821059972       -3.41475263717502        0.96731404871309
C           -4.51027180668095       -3.95205815962911        2.24593569979877
C           -3.69025233145293       -1.30943932403298        1.57143072760149
C           -3.34936483411704       -0.02674746206293        1.20452203609108
C           -3.04840774543225        2.03956568329689       -1.95174239527327
C           -2.00877879018683        1.08074267963056       -2.61272333964184
C           -0.65258481987351        1.28879203492426       -2.07528944497536
N           -0.01898298871322        0.46939022656050       -1.25027425571836
C            1.31866114990050        0.77002729741708       -0.80003220323559
C            2.38037435953249        0.09424047238604       -1.69097152159177
C            3.74850257962993        0.26432076087727       -1.09354457525810
C            4.44950020642747        1.44848837036355       -1.24944220889270
C            5.69731262096716        1.61555705875718       -0.66833751568236
C            6.27024552981210        0.59848983967570        0.08122947902501
O            7.46992065472135        0.65147811746425        0.69266119643771
C            8.24353130612056        1.82384273193929        0.58500803337450
C            5.56260925963281       -0.62372420038450        0.23859344529020
O            6.19662914425010       -1.56672631996158        0.96758924748622
C            5.59858857767815       -2.83089557460079        1.12297940130920
C            4.31325580939658       -0.76433504290919       -0.34320659183732
C           -0.55173174804555       -0.82174573460545       -0.88560600461517
C           -2.99782546204849        2.93070794918808        0.42496133393999
C           -3.91716369899556        2.98976984183463        1.64886434340522
C           -1.52182194155831        3.03771636799843        0.84064689682426
H           -4.66734155209060       -0.01131494271428       -1.91792046401500
H           -6.54274856084266       -1.24804916335450       -2.54377705204172
H           -6.43574509681059       -2.95950353311107       -3.01993103821416
H           -5.04750336546061       -1.88016232872627       -3.29489658279406
H           -5.00857480221549       -3.37027109815183        3.02706842040542
H           -4.92301569163691       -4.95882795928773        2.22592426008731
H           -3.43738723579463       -4.00469492229872        2.45748488779640
H           -3.40474203648962       -1.65856498568710        2.55031257253059
H           -2.76528154950654        0.55705578115478        1.89237706394730
H           -3.98380199862871        1.92687299000078       -2.50603495030365
H           -2.70957807288328        3.06575170202454       -2.09693386477926
H           -2.33915522355736        0.05329223503368       -2.47974749115444
H           -1.99946056121321        1.31622975067860       -3.68017882417313
H            0.79156146943379        1.67718049371512        3.22789774152225
H           -0.14806307720432        2.21046928624650       -2.32144233478233
H            1.42758381917790        0.41919688962762        0.22928563317614
H            1.47593856464532        1.85002113517268       -0.80865493306177
H            2.34305479123540        0.54349589219507       -2.68500399914865
H            2.14850845540026       -0.96738301248216       -1.78615161641552
H            4.03162165132439        2.25119574274129       -1.83761583944205
H            6.22161304217481        2.54601035683834       -0.81195231879748
H            7.72145119385137        2.68873597458158        1.00554790797693
H            8.51546965725389        2.03070374954302       -0.45422357601479
H            9.14559983369009        1.63157844134074        1.16237120287714
H            6.30816324835179       -3.42108491362206        1.69971107597586
H            4.65385374525108       -2.76440417167056        1.67284391710863
H            5.42640925883207       -3.31552235779214        0.15681522009496
H            3.76852914235486       -1.68869105035102       -0.23018182179808
H           -0.71783930385301       -1.44372121020793       -1.76778920616295
H           -1.49685158037055       -0.70989890395085       -0.35059328799572
H            0.15259238586560       -1.32888531034323       -0.23182726723531
H           -3.21513785403643        3.82922216705361       -0.16793661892458
H           -3.57495606055863        2.35080643818670        2.45574075401594
H           -4.92831595853033        2.69514782887223        1.37970384398861
H           -3.94727890186989        4.00992006149932        2.02458911645202
H           -1.20299918334842        2.17390761759044        1.42825123078093
H           -0.88390081588671        3.11200491968411       -0.03683964787645
H           -1.38222197229767        3.93148992435386        1.44370187990551
H           -1.03679946188933        0.21065412874576        4.54728667842929

 Bond Distances (Angstroems)
 ---------------------------
N1-C2=1.2116         N1-H72=1.0212        C2-N1=1.2116         C2-H47=1.0789        C3-C4=1.4082         C3-C14=1.4955        
C3-C31=1.5034        C4-C3=1.4082         C4-C5=1.4240         C4-C13=1.4143        C5-C4=1.4240         C5-C6=1.3751         
C5-H34=1.0767        C6-C5=1.3751         C6-O7=1.3521         C6-C9=1.4259         O7-C6=1.3521         O7-C8=1.4075         
C8-O7=1.4075         C8-H35=1.0943        C8-H36=1.0882        C8-H37=1.0951        C9-C6=1.4259         C9-O10=1.3445        
C9-C12=1.3917        O10-C9=1.3445        O10-C11=1.4089       C11-O10=1.4089       C11-H38=1.0941       C11-H39=1.0883       
C11-H40=1.0948       C12-C9=1.3917        C12-C13=1.3770       C12-H41=1.0778       C13-C4=1.4143        C13-C12=1.3770       
C13-H42=1.0748       C14-C3=1.4955        C14-C15=1.5611       C14-H43=1.0931       C14-H44=1.0904       C15-C14=1.5611       
C15-C16=1.4736       C15-H45=1.0874       C15-H46=1.0932       C16-C15=1.4736       C16-N17=1.3242       C16-H48=1.0792       
N17-C16=1.3242       N17-C18=1.4430       N17-C30=1.4436       C18-N17=1.4430       C18-C19=1.5420       C18-H49=1.0929       
C18-H50=1.0914       C19-C18=1.5420       C19-C20=1.5025       C19-H51=1.0915       C19-H52=1.0908       C20-C19=1.5025       
C20-C21=1.3849       C20-C29=1.3929       C21-C20=1.3849       C21-C22=1.3866       C21-H53=1.0793       C22-C21=1.3866       
C22-C23=1.3873       C22-H54=1.0776       C23-C22=1.3873       C23-O24=1.3475       C23-C26=1.4210       O24-C23=1.3475       
O24-C25=1.4087       C25-O24=1.4087       C25-H55=1.0943       C25-H56=1.0940       C25-H57=1.0881       C26-C23=1.4210       
C26-O27=1.3501       C26-C29=1.3853       O27-C26=1.3501       O27-C28=1.4071       C28-O27=1.4071       C28-H58=1.0883       
C28-H59=1.0951       C28-H60=1.0945       C29-C20=1.3929       C29-C26=1.3853       C29-H61=1.0789       C30-N17=1.4436       
C30-H62=1.0921       C30-H63=1.0918       C30-H64=1.0866       C31-C3=1.5034        C31-C32=1.5319       C31-C33=1.5372       
C31-H65=1.0982       C32-C31=1.5319       C32-H66=1.0846       C32-H67=1.0871       C32-H68=1.0876       C33-C31=1.5372       
C33-H69=1.0923       C33-H70=1.0874       C33-H71=1.0872       H34-C5=1.0767        H35-C8=1.0943        H36-C8=1.0882        
H37-C8=1.0951        H38-C11=1.0941       H39-C11=1.0883       H40-C11=1.0948       H41-C12=1.0778       H42-C13=1.0748       
H43-C14=1.0931       H44-C14=1.0904       H45-C15=1.0874       H46-C15=1.0932       H47-C2=1.0789        H48-C16=1.0792       
H49-C18=1.0929       H50-C18=1.0914       H51-C19=1.0915       H52-C19=1.0908       H53-C21=1.0793       H54-C22=1.0776       
H55-C25=1.0943       H56-C25=1.0940       H57-C25=1.0881       H58-C28=1.0883       H59-C28=1.0951       H60-C28=1.0945       
H61-C29=1.0789       H62-C30=1.0921       H63-C30=1.0918       H64-C30=1.0866       H65-C31=1.0982       H66-C32=1.0846       
H67-C32=1.0871       H68-C32=1.0876       H69-C33=1.0923       H70-C33=1.0874       H71-C33=1.0872       H72-N1=1.0212        
 C  H  Rav=1.0884 sigma=0.0062  Rmin=1.0748  Rmax=1.0982    38
 C  C  Rav=1.4439 sigma=0.0624  Rmin=1.3751  Rmax=1.5611    21
 N  H  Rav=1.0212 sigma=0.0000  Rmin=1.0212  Rmax=1.0212     1
 N  C  Rav=1.3556 sigma=0.0963  Rmin=1.2116  Rmax=1.4436     4
 O  C  Rav=1.3783 sigma=0.0298  Rmin=1.3445  Rmax=1.4089     8

 selected bond angles (degree)
 --------------------
H72-N1-C2=131.67               H47-C2-N1=137.78               C14-C3-C4=119.58               C31-C3-C4=124.74               
C31-C3-C14=115.68              C5-C4-C3=121.01                C13-C4-C3=122.54               C13-C4-C5=116.39               
C6-C5-C4=122.18                H34-C5-C4=118.69               H34-C5-C6=118.95               O7-C6-C5=125.45                
C9-C6-C5=119.92                C9-C6-O7=114.64                C8-O7-C6=119.27                H35-C8-O7=111.54               
H36-C8-O7=105.55               H36-C8-H35=109.26              H37-C8-O7=111.60               H37-C8-H35=109.56              
H37-C8-H36=109.21              O10-C9-C6=115.74               C12-C9-C6=118.39               C12-C9-O10=125.87              
C11-O10-C9=119.10              

 selected dihedral angles (degree)
 ---------------------------------
H47-C2-N1-H72=359.77          C5-C4-C3-C14=335.72           C5-C4-C3-C31=155.89           C13-C4-C3-C14=152.79          
C13-C4-C3-C31=332.97          C6-C5-C4-C3=178.06            C6-C5-C4-C13=  0.81           H34-C5-C4-C3=353.22           
H34-C5-C4-C13=175.97          O7-C6-C5-C4=178.18            O7-C6-C5-H34=  3.04           C9-C6-C5-C4=358.13            
C9-C6-C5-H34=182.98           C8-O7-C6-C5=356.35            C8-O7-C6-C9=176.40            H35-C8-O7-C6=301.05           
H36-C8-O7-C6=182.50           H37-C8-O7-C6= 63.97           O10-C9-C6-C5=181.51           O10-C9-C6-O7=  1.46           
C12-C9-C6-C5=  1.34           C12-C9-C6-O7=181.29           C11-O10-C9-C6=183.13          C11-O10-C9-C12=  3.32         

 CMA Distance (Angstroems)
 ---------------------------
R(CMA):  3.6717
           -------------------------------------------------
          |                Final Singlepoint                |
           -------------------------------------------------

          ...................................................
          :                      SETUP                      :
          :.................................................:
          :  # basis functions                 171          :
          :  # atomic orbitals                 171          :
          :  # shells                          105          :
          :  # electrons                       180          :
          :  max. iterations                   250          :
          :  Hamiltonian                  GFN2-xTB          :
          :  restarted?                      false          :
          :  GBSA solvation                  false          :
          :  PC potential                    false          :
          :  electronic temp.         5000.0000000     K    :
          :  accuracy                    1.0000000          :
          :  -> integral cutoff          0.2500000E+02      :
          :  -> integral neglect         0.1000000E-07      :
          :  -> SCF convergence          0.1000000E-05 Eh   :
          :  -> wf. convergence          0.1000000E-03 e    :
          :  Broyden damping             0.4000000          :
          ...................................................

 iter      E             dE          RMSdq      gap      omega  full diag
   1   -100.7008567 -0.100701E+03  0.445E-06    0.07       0.0  T
   2   -100.7008567  0.117950E-11  0.535E-06    0.07    2203.2  T
   3   -100.7008567 -0.186162E-11  0.316E-06    0.07    3727.1  T

   *** convergence criteria satisfied after 3 iterations ***

         #    Occupation            Energy/Eh            Energy/eV
      -------------------------------------------------------------
         1        2.0000           -0.8074568             -21.9720
       ...           ...                  ...                  ...
        84        1.9974           -0.5141314             -13.9902
        85        1.9961           -0.5078366             -13.8189
        86        1.9890           -0.4913467             -13.3702
        87        1.9819           -0.4834731             -13.1560
        88        1.9393           -0.4639337             -12.6243
        89        1.8687           -0.4511397             -12.2761
        90        0.9668           -0.4080431             -11.1034 (HOMO)
        91        0.8814           -0.4053213             -11.0294 (LUMO)
        92        0.3710           -0.3856693             -10.4946
        93        0.0121           -0.3282802              -8.9330
        94        0.0033           -0.3077297              -8.3738
        95        0.0032           -0.3070744              -8.3559
       ...           ...                  ...                  ...
       171                          0.6676635              18.1680
      -------------------------------------------------------------
                  HL-Gap            0.0027218 Eh            0.0741 eV
             Fermi-level           -0.4090950 Eh          -11.1320 eV

 SCC (total)                   0 d,  0 h,  0 min,  0.117 sec
 SCC setup                      ...        0 min,  0.001 sec (  0.753%)
 Dispersion                     ...        0 min,  0.002 sec (  1.356%)
 classical contributions        ...        0 min,  0.000 sec (  0.369%)
 integral evaluation            ...        0 min,  0.018 sec ( 15.583%)
 iterations                     ...        0 min,  0.026 sec ( 22.339%)
 molecular gradient             ...        0 min,  0.069 sec ( 59.110%)
 printout                       ...        0 min,  0.001 sec (  0.476%)

         :::::::::::::::::::::::::::::::::::::::::::::::::::::
         ::                     SUMMARY                     ::
         :::::::::::::::::::::::::::::::::::::::::::::::::::::
         :: total energy             -99.303080025034 Eh    ::
         :: gradient norm              0.002524166077 Eh/a0 ::
         :: HOMO-LUMO gap              0.074064316668 eV    ::
         ::.................................................::
         :: SCC energy              -100.700856692101 Eh    ::
         :: -> isotropic ES            0.105358416173 Eh    ::
         :: -> anisotropic ES          0.002096063494 Eh    ::
         :: -> anisotropic XC          0.046361875686 Eh    ::
         :: -> dispersion             -0.073381576032 Eh    ::
         :: repulsion energy           1.395798919916 Eh    ::
         :: add. restraining           0.000000000000 Eh    ::
         :: total charge               1.000000000000 e     ::
         :::::::::::::::::::::::::::::::::::::::::::::::::::::

           -------------------------------------------------
          |                Property Printout                |
           -------------------------------------------------

    * Orbital Energies and Occupations

         #    Occupation            Energy/Eh            Energy/eV
      -------------------------------------------------------------
         1        2.0000           -0.8074568             -21.9720
       ...           ...                  ...                  ...
        78        1.9991           -0.5303219             -14.4308
        79        1.9990           -0.5302086             -14.4277
        80        1.9989           -0.5276119             -14.3571
        81        1.9986           -0.5237751             -14.2526
        82        1.9983           -0.5213469             -14.1866
        83        1.9976           -0.5152638             -14.0210
        84        1.9974           -0.5141314             -13.9902
        85        1.9961           -0.5078366             -13.8189
        86        1.9890           -0.4913467             -13.3702
        87        1.9819           -0.4834731             -13.1560
        88        1.9393           -0.4639337             -12.6243
        89        1.8687           -0.4511397             -12.2761
        90        0.9668           -0.4080431             -11.1034 (HOMO)
        91        0.8814           -0.4053213             -11.0294 (LUMO)
        92        0.3710           -0.3856693             -10.4946
        93        0.0121           -0.3282802              -8.9330
        94        0.0033           -0.3077297              -8.3738
        95        0.0032           -0.3070744              -8.3559
        96        0.0028           -0.3048609              -8.2957
        97        0.0011           -0.2903984              -7.9021
        98        0.0000           -0.1819848              -4.9521
        99        0.0000           -0.1809479              -4.9238
       100                         -0.1245915              -3.3903
       101                         -0.0618577              -1.6832
       ...                                ...                  ...
       171                          0.6676635              18.1680
      -------------------------------------------------------------
                  HL-Gap            0.0027218 Eh            0.0741 eV
             Fermi-level           -0.4090950 Eh          -11.1320 eV

     #   Z          covCN         q      C6AA      α(0)
     1   7 N        1.770    -0.195    26.023     7.554
     2   6 C        1.836    -0.023    31.768     9.106
     3   6 C        2.952    -0.009    28.241     8.716
     4   6 C        2.962     0.003    27.967     8.674
     5   6 C        2.919    -0.088    30.196     9.011
     6   6 C        2.857     0.129    25.175     8.224
     7   8 O        1.706    -0.239    17.953     5.721
     8   6 C        3.644     0.029    20.417     6.495
     9   6 C        2.864     0.131    25.132     8.217
    10   8 O        1.706    -0.221    17.671     5.676
    11   6 C        3.646     0.026    20.474     6.502
    12   6 C        2.909    -0.071    29.759     8.945
    13   6 C        2.920    -0.051    29.261     8.871
    14   6 C        3.806    -0.064    21.725     6.635
    15   6 C        3.801    -0.069    21.811     6.649
    16   6 C        2.845     0.005    27.908     8.658
    17   7 N        2.729     0.027    20.786     6.771
    18   6 C        3.757    -0.021    20.997     6.533
    19   6 C        3.808    -0.071    21.848     6.654
    20   6 C        2.969    -0.001    28.051     8.688
    21   6 C        2.922    -0.050    29.237     8.867
    22   6 C        2.914    -0.068    29.701     8.937
    23   6 C        2.865     0.132    25.116     8.215
    24   8 O        1.706    -0.226    17.754     5.689
    25   6 C        3.645     0.026    20.468     6.502
    26   6 C        2.863     0.131    25.127     8.217
    27   8 O        1.706    -0.229    17.802     5.697
    28   6 C        3.645     0.029    20.429     6.496
    29   6 C        2.920    -0.080    30.009     8.983
    30   6 C        3.701    -0.076    22.125     6.726
    31   6 C        3.852    -0.013    20.775     6.483
    32   6 C        3.753    -0.113    22.729     6.798
    33   6 C        3.753    -0.109    22.653     6.787
    34   1 H        0.926     0.049     2.336     2.390
    35   1 H        0.924     0.051     2.309     2.376
    36   1 H        0.925     0.079     1.989     2.206
    37   1 H        0.924     0.043     2.405     2.425
    38   1 H        0.924     0.056     2.242     2.342
    39   1 H        0.925     0.081     1.969     2.194
    40   1 H        0.924     0.051     2.308     2.376
    41   1 H        0.926     0.054     2.268     2.355
    42   1 H        0.926     0.067     2.116     2.275
    43   1 H        0.924     0.069     2.100     2.266
    44   1 H        0.924     0.054     2.272     2.357
    45   1 H        0.925     0.066     2.133     2.284
    46   1 H        0.924     0.074     2.047     2.238
    47   1 H        0.926     0.064     2.152     2.294
    48   1 H        0.926     0.067     2.121     2.277
    49   1 H        0.924     0.072     2.068     2.249
    50   1 H        0.924     0.069     2.095     2.264
    51   1 H        0.924     0.056     2.248     2.345
    52   1 H        0.924     0.054     2.269     2.355
    53   1 H        0.926     0.044     2.396     2.421
    54   1 H        0.926     0.057     2.238     2.339
    55   1 H        0.924     0.052     2.297     2.370
    56   1 H        0.924     0.055     2.264     2.353
    57   1 H        0.925     0.080     1.975     2.198
    58   1 H        0.925     0.080     1.981     2.201
    59   1 H        0.924     0.046     2.373     2.409
    60   1 H        0.924     0.051     2.306     2.375
    61   1 H        0.926     0.045     2.380     2.413
    62   1 H        0.924     0.074     2.038     2.232
    63   1 H        0.924     0.087     1.905     2.159
    64   1 H        0.925     0.079     1.988     2.205
    65   1 H        0.923     0.049     2.336     2.390
    66   1 H        0.925     0.048     2.351     2.398
    67   1 H        0.925     0.044     2.392     2.419
    68   1 H        0.925     0.047     2.352     2.398
    69   1 H        0.924     0.051     2.312     2.378
    70   1 H        0.925     0.030     2.593     2.518
    71   1 H        0.925     0.050     2.318     2.381
    72   1 H        0.860     0.177     1.229     1.737

 Mol. C6AA /au·bohr⁶  :      47864.969161
 Mol. C8AA /au·bohr⁸  :    1093682.105416
 Mol. α(0) /au        :        336.857930


Wiberg/Mayer (AO) data.
largest (>0.10) Wiberg bond orders for each atom

 ---------------------------------------------------------------------------
     #   Z sym  total        # sym  WBO       # sym  WBO       # sym  WBO
 ---------------------------------------------------------------------------
     1   7 N    3.121 --     2 C    2.217    72 H    0.877
     2   6 C    3.165 --     1 N    2.217    47 H    0.908
     3   6 C    3.512 --     4 C    1.326    14 C    1.042    31 C    1.024
     4   6 C    3.975 --     3 C    1.326    13 C    1.262     5 C    1.235
     5   6 C    3.879 --     6 C    1.461     4 C    1.235    34 H    0.957
     6   6 C    3.916 --     5 C    1.461     9 C    1.196     7 O    1.088
     7   8 O    2.250 --     6 C    1.088     8 C    0.980
     8   6 C    3.936 --     7 O    0.980    36 H    0.977    37 H    0.974
                            35 H    0.974
     9   6 C    3.809 --    12 C    1.348     6 C    1.196    10 O    1.114
    10   8 O    2.246 --     9 C    1.114    11 C    0.976
    11   6 C    3.931 --    39 H    0.977    10 O    0.976    38 H    0.973
                            40 H    0.973
    12   6 C    3.970 --    13 C    1.476     9 C    1.348    41 H    0.962
    13   6 C    3.844 --    12 C    1.476     4 C    1.262    42 H    0.955
    14   6 C    3.958 --     3 C    1.042    44 H    0.972    43 H    0.941
                            15 C    0.930
    15   6 C    3.972 --    16 C    1.070    45 H    0.964    46 H    0.949
                            14 C    0.930
    16   6 C    3.573 --    17 N    1.421    15 C    1.070    48 H    0.959
    17   7 N    3.483 --    16 C    1.421    30 C    0.998    18 C    0.990
    18   6 C    3.956 --    17 N    0.990    50 H    0.968    19 C    0.966
                            49 H    0.963
    19   6 C    3.976 --    20 C    1.009    52 H    0.972    51 H    0.970
                            18 C    0.966
    20   6 C    3.950 --    21 C    1.412    29 C    1.379    19 C    1.009
    21   6 C    3.955 --    22 C    1.416    20 C    1.412    53 H    0.968
    22   6 C    3.963 --    21 C    1.416    23 C    1.386    54 H    0.963
    23   6 C    3.901 --    22 C    1.386    26 C    1.225    24 O    1.105
    24   8 O    2.254 --    23 C    1.105    25 C    0.977
    25   6 C    3.931 --    57 H    0.977    24 O    0.977    55 H    0.973
                            56 H    0.973
    26   6 C    3.904 --    29 C    1.398    23 C    1.225    27 O    1.097
    27   8 O    2.252 --    26 C    1.097    28 C    0.980
    28   6 C    3.934 --    27 O    0.980    58 H    0.977    59 H    0.974
                            60 H    0.974
    29   6 C    3.962 --    26 C    1.398    20 C    1.379    61 H    0.962
    30   6 C    3.955 --    17 N    0.998    64 H    0.978    62 H    0.966
                            63 H    0.955
    31   6 C    3.985 --     3 C    1.024    32 C    0.999    33 C    0.972
                            65 H    0.951
    32   6 C    3.984 --    31 C    0.999    67 H    0.986    68 H    0.984
                            66 H    0.980
    33   6 C    3.944 --    70 H    0.983    71 H    0.982    31 C    0.972
                            69 H    0.955
    34   1 H    0.996 --     5 C    0.957
    35   1 H    0.995 --     8 C    0.974
    36   1 H    0.993 --     8 C    0.977
    37   1 H    0.995 --     8 C    0.974
    38   1 H    0.992 --    11 C    0.973
    39   1 H    0.993 --    11 C    0.977
    40   1 H    0.992 --    11 C    0.973
    41   1 H    0.995 --    12 C    0.962
    42   1 H    0.995 --    13 C    0.955
    43   1 H    0.973 --    14 C    0.941
    44   1 H    0.996 --    14 C    0.972
    45   1 H    0.995 --    15 C    0.964
    46   1 H    0.981 --    15 C    0.949
    47   1 H    0.920 --     2 C    0.908
    48   1 H    0.995 --    16 C    0.959
    49   1 H    0.991 --    18 C    0.963
    50   1 H    0.994 --    18 C    0.968
    51   1 H    0.995 --    19 C    0.970
    52   1 H    0.996 --    19 C    0.972
    53   1 H    0.997 --    21 C    0.968
    54   1 H    0.995 --    22 C    0.963
    55   1 H    0.993 --    25 C    0.973
    56   1 H    0.992 --    25 C    0.973
    57   1 H    0.993 --    25 C    0.977
    58   1 H    0.993 --    28 C    0.977
    59   1 H    0.994 --    28 C    0.974
    60   1 H    0.994 --    28 C    0.974
    61   1 H    0.997 --    29 C    0.962
    62   1 H    0.985 --    30 C    0.966
    63   1 H    0.984 --    30 C    0.955
    64   1 H    0.994 --    30 C    0.978
    65   1 H    0.986 --    31 C    0.951
    66   1 H    0.997 --    32 C    0.980
    67   1 H    0.997 --    32 C    0.986
    68   1 H    0.996 --    32 C    0.984
    69   1 H    0.997 --    33 C    0.955
    70   1 H    0.999 --    33 C    0.983
    71   1 H    0.994 --    33 C    0.982
    72   1 H    0.883 --     1 N    0.877
 ---------------------------------------------------------------------------

Topologies differ in total number of bonds
Writing topology from bond orders to xtbtopo.mol

molecular dipole:
                 x           y           z       tot (Debye)
 q only:       -0.233       0.407      -0.546
   full:       -0.117       0.711      -0.312       1.996
molecular quadrupole (traceless):
                xx          xy          yy          xz          yz          zz
 q only:       30.579      11.820     -16.199       5.818      -9.854     -14.380
  q+dip:       22.480      13.642     -15.375       6.864     -10.727      -7.105
   full:       23.615      11.507     -16.810       5.115      -9.131      -6.806

           -------------------------------------------------
          |                Geometry Summary                 |
           -------------------------------------------------

      molecular mass/u    :      455.6105846
   center of mass at/Å    :       -0.0632839      -0.0122083      -0.0031056
  moments of inertia/u·Å² :        0.2620764E+04   0.9795578E+04   0.1032763E+05
rotational constants/cm⁻¹ :        0.6432335E-02   0.1720943E-02   0.1632284E-02

 * 65 selected distances

     #   Z          #   Z                                           value/Å
     1   7 N        2   6 C                                       1.2115802
     3   6 C        4   6 C                                       1.4081592
     4   6 C        5   6 C                                       1.4240402
     5   6 C        6   6 C                                       1.3751411
     6   6 C        7   8 O                                       1.3521202
     7   8 O        8   6 C                                       1.4074714
     6   6 C        9   6 C                                       1.4258547
     9   6 C       10   8 O                                       1.3445005
    10   8 O       11   6 C                                       1.4088770
     9   6 C       12   6 C                                       1.3917085
     4   6 C       13   6 C                                       1.4142616
    12   6 C       13   6 C                                       1.3769986
    15   6 C       16   6 C                                       1.4735611
    16   6 C       17   7 N                                       1.3242058
    17   7 N       18   6 C                                       1.4430498
    20   6 C       21   6 C                                       1.3849025
    21   6 C       22   6 C                                       1.3865896
    22   6 C       23   6 C                                       1.3872739
    23   6 C       24   8 O                                       1.3475449
    24   8 O       25   6 C                                       1.4087235
    23   6 C       26   6 C                                       1.4210278
    26   6 C       27   8 O                                       1.3500628
    27   8 O       28   6 C                                       1.4070973
    20   6 C       29   6 C                                       1.3928699
    26   6 C       29   6 C                                       1.3853328
    17   7 N       30   6 C                                       1.4435500
    31   6 C       32   6 C                                       1.5318649
    31   6 C       33   6 C                                       1.5371506 (max)
     5   6 C       34   1 H                                       1.0766765
     8   6 C       35   1 H                                       1.0943476
     8   6 C       36   1 H                                       1.0881825
     8   6 C       37   1 H                                       1.0951140
    11   6 C       38   1 H                                       1.0940524
    11   6 C       39   1 H                                       1.0882755
    11   6 C       40   1 H                                       1.0948083
    12   6 C       41   1 H                                       1.0777823
    13   6 C       42   1 H                                       1.0747671 (min)
    14   6 C       43   1 H                                       1.0931160
    14   6 C       44   1 H                                       1.0903871
    15   6 C       45   1 H                                       1.0874216
    15   6 C       46   1 H                                       1.0931617
    16   6 C       48   1 H                                       1.0791768
    18   6 C       49   1 H                                       1.0929051
    18   6 C       50   1 H                                       1.0914199
    19   6 C       51   1 H                                       1.0914779
    19   6 C       52   1 H                                       1.0908096
    21   6 C       53   1 H                                       1.0793100
    22   6 C       54   1 H                                       1.0776176
    25   6 C       55   1 H                                       1.0942861
    25   6 C       56   1 H                                       1.0939582
    25   6 C       57   1 H                                       1.0881368
    28   6 C       58   1 H                                       1.0883195
    28   6 C       59   1 H                                       1.0951238
    28   6 C       60   1 H                                       1.0945238
    29   6 C       61   1 H                                       1.0788586
    30   6 C       62   1 H                                       1.0921047
    30   6 C       63   1 H                                       1.0917875
    30   6 C       64   1 H                                       1.0865956
    31   6 C       65   1 H                                       1.0982170
    32   6 C       66   1 H                                       1.0846336
    32   6 C       67   1 H                                       1.0870504
    32   6 C       68   1 H                                       1.0875581
    33   6 C       69   1 H                                       1.0922878
    33   6 C       70   1 H                                       1.0874029
    33   6 C       71   1 H                                       1.0871959

 * 4 distinct bonds (by element types)

   Z      Z             #   av. dist./Å        max./Å        min./Å
   1 H    6 C          37     1.0886176     1.0982170     1.0747671
   6 C    6 C          16     1.4197961     1.5371506     1.3751411
   6 C    7 N           4     1.3555965     1.4435500     1.2115802
   6 C    8 O           8     1.3782997     1.4088770     1.3445005


optimized geometry written to: xtbopt.xyz


           -------------------------------------------------
          | TOTAL ENERGY              -99.303080025034 Eh   |
          | GRADIENT NORM               0.002524166077 Eh/α |
          | HOMO-LUMO GAP               0.074064316668 eV   |
           -------------------------------------------------

------------------------------------------------------------------------
 * finished run on 2024/04/06 at 11:11:45.256     
------------------------------------------------------------------------
 total:
 * wall-time:     0 d,  0 h,  0 min,  0.466 sec
 *  cpu-time:     0 d,  0 h,  0 min,  0.440 sec
 * ratio c/w:     0.943 speedup
 SCF:
 * wall-time:     0 d,  0 h,  0 min,  0.121 sec
 *  cpu-time:     0 d,  0 h,  0 min,  0.121 sec
 * ratio c/w:     1.000 speedup
 ANC optimizer:
 * wall-time:     0 d,  0 h,  0 min,  0.301 sec
 *  cpu-time:     0 d,  0 h,  0 min,  0.294 sec
 * ratio c/w:     0.978 speedup

