25
 energy: -42.105917142823 gnorm: 0.003904851256 xtb: 6.6.1 (8d0f1dd)
C            3.36609311966006        1.05361513969092       -0.01366760265782
N            2.37468466849495        0.01137329668321       -0.02941066812068
C            2.60058193701566       -1.29978207825278       -0.00392440328423
N            1.42361729454267       -1.96829805692761       -0.00278418214712
C            0.41661499356755       -1.05056359195796       -0.02614411476933
C            1.00966045827104        0.20566519929172       -0.04509738644828
C            0.24824362373113        1.41617693730423       -0.08041580226399
O            0.65872110967735        2.55435687029642       -0.10848965522615
N           -1.16911920376203        1.14296369393613       -0.05709712051447
C           -1.99491701106774        2.19799112282889       -0.05628363218185
C           -1.77427916525092       -0.14704464815609       -0.03471926972002
O           -2.96747893046947       -0.27459921510026       -0.02711916000960
N           -0.91799749231329       -1.24481770124892       -0.02310319249290
C           -1.48778010934035       -2.58037954252595        0.00067483085642
H            3.85723541734103        1.09271378919729        0.95959037329798
H            4.11758384120078        0.87049880106117       -0.78036528600223
H            2.87445842096173        2.00778327471417       -0.19826107301079
H            3.56766289048463       -1.76083305154001        0.00960180249232
H           -1.54891860407694        3.17577146161546       -0.08655828173243
H           -3.07096450987466        2.04351873315005        0.05343875032945
H           -4.81062048832438        2.07016461088992        0.55027518406581
H           -1.16950382072162       -3.11190096253176        0.89748207980924
H           -1.19492924440906       -3.13422798890688       -0.89136763913737
H           -2.57190462983706       -2.47906728624350        0.01449510168288
H            1.32368694860018       -2.97284026566792        0.01042196508609
