25
 energy: -43.833465704162 gnorm: 0.073710497149 xtb: 6.6.1 (8d0f1dd)
C            3.23975432744207        1.17653723012214        0.09526494600955
N            2.31345120618441        0.09726748376799        0.03265412643061
C            2.60572523384871       -1.23484827459569        0.01052746584332
N            1.44168738279954       -1.95414814260978       -0.02463316694795
C            0.41680791342935       -1.08307937605914       -0.00742008648495
C            0.90926969445017        0.19741395799826        0.03984433663569
C            0.08695391284071        1.34311938630697        0.03547843077729
O            0.45870654895696        2.53353390600252        0.09766336825171
N           -1.33080708583484        1.06870238951964       -0.14111757567853
C           -2.23748450206638        2.18950006056962       -0.10669745622520
C           -1.81235188959703       -0.19919057121135        0.01744700255692
O           -3.01357054571005       -0.40510070679350        0.01526130359124
N           -0.92883048003485       -1.31506790885508        0.01008314891302
C           -1.46802669877519       -2.65130068064289       -0.03450640225330
H            3.71094662546913        1.23203991298789        1.08604158162184
H            4.01730846512441        1.05325126852624       -0.66119855979740
H            2.68267184218908        2.09443919532852       -0.07958472283813
H            3.58960598717514       -1.65591130377166        0.00186491200860
H           -1.68442278932781        3.11538044099877        0.06206620708296
H           -2.77731546342397        2.19576125609527       -1.02679886623721
H           -2.94521998864192        2.05024636743076        0.72851843746559
H           -1.14550599632255       -3.21947384965529        0.84705729457028
H           -1.17429271156137       -3.18449721172726       -0.92922226804084
H           -2.55347921241367       -2.55901870797467       -0.02945836703705
H            1.38792384005568       -2.95674585983434       -0.04932310733586
25
 energy: -43.836961899499 gnorm: 0.028412768668 xtb: 6.6.1 (8d0f1dd)
C            3.23966670975925        1.18158878885328        0.09862549988612
N            2.31097550984921        0.10210650738991        0.03120168861715
C            2.60667193615901       -1.24020054168157        0.01148958689838
N            1.43198190747105       -1.94956458417703       -0.02178972664182
C            0.40770680470124       -1.07516901345327       -0.00999177281842
C            0.91195750285447        0.21315252307724        0.02959508947558
C            0.09849242919994        1.36022837446106        0.02295829756782
O            0.46508392444392        2.54370954630620        0.09507871736516
N           -1.30857241355009        1.05154533443905       -0.11853379236877
C           -2.23410645075235        2.16447378751440       -0.09316202445622
C           -1.82106183560527       -0.20709198279904       -0.01375159629939
O           -3.02202031291452       -0.41043858366508        0.02442073606176
N           -0.93655316405139       -1.31018870535365        0.00104279261938
C           -1.47293935235285       -2.64795883814237       -0.02910754046378
H            3.71464991259188        1.23477787642787        1.08550670015573
H            4.01654410298896        1.06011514684364       -0.65901586169966
H            2.68524909627634        2.10223808065946       -0.07511355012068
H            3.58563106502511       -1.66329357288177        0.00262286682613
H           -1.66102514071581        3.07873976834760        0.05819559406933
H           -2.77899235664402        2.19670535337072       -1.02894953069797
H           -2.94855764458249        2.04178655224702        0.72884164065242
H           -1.15128389800300       -3.21326710929690        0.85137435513031
H           -1.16568477807670       -3.17559959717651       -0.93210227777700
H           -2.55857150904329       -2.55666896274272       -0.02335420059623
H            1.37426357122712       -2.95291588664357       -0.04626970850312
25
 energy: -43.837209620313 gnorm: 0.015311511619 xtb: 6.6.1 (8d0f1dd)
C            3.23881588179033        1.17717996004720        0.09596757949520
N            2.30829256131641        0.09966745569702        0.03406646656384
C            2.61298142093708       -1.24540624190265        0.01215538550567
N            1.43432795156709       -1.95177490746532       -0.02144501331736
C            0.40651229078927       -1.07813144045667        0.00051514619537
C            0.91252386872926        0.21423753635436        0.04117297678143
C            0.09974314034834        1.36374268431028        0.03849599735755
O            0.46501391995192        2.54141746659335        0.10243613974065
N           -1.29931064906324        1.05054179012500       -0.09179810196535
C           -2.23553285740298        2.17008690177350       -0.09584820596679
C           -1.82333480432427       -0.20406577759671        0.00067826380344
O           -3.02099534139028       -0.40887821852593        0.01812679385811
N           -0.93761946695355       -1.30777047598691        0.00959743379950
C           -1.46993603503101       -2.64986685364008       -0.03043536591461
H            3.71313236101791        1.23167318560400        1.08186814787868
H            4.01450012663392        1.05019727731497       -0.66316190656388
H            2.68282640016061        2.09549526391364       -0.08307787993547
H            3.59238753667723       -1.66041481511121       -0.00365635670000
H           -1.68792650524142        3.10486294313018        0.04161752426995
H           -2.78194626756017        2.19569643844954       -1.03902126981012
H           -2.95254506107552        2.05721954299804        0.71768886984850
H           -1.14383252117015       -3.22345054517540        0.84104825263603
H           -1.16674071504334       -3.17649766655694       -0.93947402583009
H           -2.55465644590906       -2.56088422420472       -0.02402873087868
H            1.38282482650134       -2.95606701776458       -0.05367613796938
25
 energy: -43.837433470866 gnorm: 0.011062478487 xtb: 6.6.1 (8d0f1dd)
C            3.23765739240972        1.17857625717314        0.09932033817327
N            2.30696903245739        0.10039950782485        0.03001875653193
C            2.61386420814106       -1.24464852361499        0.01214767915843
N            1.43561974853096       -1.95222447585317       -0.02406369654734
C            0.40707985231952       -1.08082502198973       -0.00955324441338
C            0.91143304031278        0.21125752604613        0.02887735303239
C            0.09505817596644        1.36007914734384        0.01969943183256
O            0.45821134212876        2.53762297386428        0.08514285825578
N           -1.30144039131659        1.04967558983269       -0.10816819811201
C           -2.23258662615598        2.17328254316053       -0.08978282093145
C           -1.82420204203982       -0.20330358987129       -0.00854906932413
O           -3.02047182640946       -0.40932592052308        0.01154362495596
N           -0.93690499826545       -1.30824803955476        0.00084581486911
C           -1.47155648314957       -2.65018398276178       -0.02735947093828
H            3.70761077159370        1.23113300668374        1.08760851258810
H            4.01749527883498        1.05631758207138       -0.65667981209205
H            2.68268810321781        2.09755520137172       -0.07779387874543
H            3.59351954061072       -1.65669100553475        0.00534845670876
H           -1.67921224002254        3.10362272409963        0.06084035297773
H           -2.78455973355051        2.20787346209099       -1.02813497864916
H           -2.93888590144023        2.04412042767956        0.73001735830789
H           -1.14820425361995       -3.21369107557871        0.85142619859528
H           -1.17104195250534       -3.18894668273146       -0.92900263566315
H           -2.55579534244652       -2.55782981842930       -0.02585584450303
H            1.38716092065381       -2.95678755087551       -0.04808110318559
25
 energy: -43.837557619389 gnorm: 0.008142610893 xtb: 6.6.1 (8d0f1dd)
C            3.24021415956132        1.18001317056044        0.09758373871936
N            2.30752324078112        0.10203863168607        0.03202486535857
C            2.61024864217666       -1.24341966460859        0.01092945809046
N            1.43169191354112       -1.95007102089592       -0.02251344323483
C            0.40658050287695       -1.07852160225371       -0.00661981429831
C            0.91138952443418        0.21124317373586        0.03508539542657
C            0.09239100685658        1.35924134464023        0.02800547466534
O            0.45705516308406        2.53846389242084        0.09905624974462
N           -1.30408889711273        1.04911944093514       -0.11188862580575
C           -2.23396271052402        2.16924546090532       -0.09572080925750
C           -1.82467091922524       -0.20275480278989       -0.00262705848417
O           -3.02126313933792       -0.40958820610316        0.02400143246495
N           -0.93651905708831       -1.30727080232021        0.00537632072061
C           -1.47193832499461       -2.64755363826212       -0.02916466867535
H            3.71777504748967        1.23302947972551        1.08275126257941
H            4.01539415023098        1.05893466605125       -0.66312980329463
H            2.68664836389885        2.10089235169091       -0.07467963819730
H            3.58831668903447       -1.65932609093456       -0.00031697109573
H           -1.66731072793696        3.09025302274551        0.05595676935843
H           -2.77548007742993        2.19481932047564       -1.03643483193247
H           -2.94655920702616        2.04173474019438        0.72231850789622
H           -1.14885139381984       -3.21541492371370        0.84739208475930
H           -1.16853606105933       -3.17602561364032       -0.93418972318225
H           -2.55670598122253       -2.55616292990431       -0.02740146505972
H            1.38016370906736       -2.95410913841666       -0.04598272438363
25
 energy: -43.837660018844 gnorm: 0.003920490067 xtb: 6.6.1 (8d0f1dd)
C            3.23910073761126        1.17865820600409        0.09806427656033
N            2.30783293362172        0.10070592451487        0.03213519114786
C            2.61160054390222       -1.24529160279575        0.01256168129492
N            1.43207057378316       -1.95090707882561       -0.02361783733387
C            0.40706459242706       -1.07861379383377       -0.00683670173501
C            0.91268033527769        0.21164504873341        0.03419641358375
C            0.09551080420734        1.36150244805615        0.02735264576445
O            0.46430887805592        2.53951395733508        0.09637028713379
N           -1.30172270968514        1.05138303746597       -0.10775417343584
C           -2.23648073339170        2.17109034326982       -0.09287706571071
C           -1.82384163698546       -0.20169469151605       -0.00604338543840
O           -3.02038749544299       -0.40891478425884        0.01920128900329
N           -0.93594726913213       -1.30715932257870        0.00377117003472
C           -1.47006328177363       -2.64892527873107       -0.02895691158529
H            3.71012965110594        1.23430762200914        1.08594213659842
H            4.01768351667823        1.05340317664671       -0.65831398630342
H            2.68410925377194        2.09744857346749       -0.08176400939858
H            3.58980048471573       -1.66114255561153        0.00165571384717
H           -1.67678374245719        3.09696046273763        0.05141370376042
H           -2.78322557708093        2.19588929138413       -1.03130943066252
H           -2.94787113841776        2.04937993594984        0.72638354028325
H           -1.14519188857712       -3.21707509446146        0.84666035099113
H           -1.16659313478457       -3.17821303193675       -0.93428768245905
H           -2.55504898285313       -2.56007703824708       -0.02380096810263
H            1.38077090167925       -2.95506349285377       -0.05033426495599
25
 energy: -43.837659646177 gnorm: 0.003886470399 xtb: 6.6.1 (8d0f1dd)
C            3.23837269778459        1.17949061767594        0.09765053567003
N            2.30726193684887        0.10148824181937        0.03176714389048
C            2.61342157772720       -1.24434357151544        0.01156645530931
N            1.43407477889144       -1.95121107605917       -0.02207944164169
C            0.40742457215131       -1.07998960583656       -0.00487983835821
C            0.91256443961512        0.21120855677583        0.03547489455658
C            0.09458394570588        1.36070280420833        0.02830205462264
O            0.46176130164799        2.53873209896871        0.09377401029392
N           -1.30074166493571        1.04958174984571       -0.10594039294021
C           -2.23422063161802        2.17191813696054       -0.09343409750758
C           -1.82440003023943       -0.20306171407790       -0.00580396007198
O           -3.02058955699122       -0.41075588654630        0.01571555900208
N           -0.93597199513568       -1.30862597852221        0.00456938150732
C           -1.47211565063876       -2.64999204893912       -0.02848258762332
H            3.71387109280742        1.23034235171215        1.08348096597842
H            4.01366340080240        1.05736758671857       -0.66267136990118
H            2.68245795531500        2.09891605542268       -0.07545740272654
H            3.59249503673973       -1.65768987686110       -0.00059284916428
H           -1.67708295041353        3.09880892106523        0.05571069935703
H           -2.77908251306242        2.20199475945110       -1.03389188637795
H           -2.94646151531455        2.04741595010875        0.72334103163714
H           -1.15046501304402       -3.21764669865072        0.84843417814542
H           -1.16979551014950       -3.18272468503050       -0.93260181344051
H           -2.55674300437197       -2.55745706466594       -0.02592403524769
H            1.38522291613360       -2.95565936210401       -0.04821525208704
25
 energy: -43.837690064064 gnorm: 0.001757165578 xtb: 6.6.1 (8d0f1dd)
C            3.23953567825823        1.17891673593077        0.09798946228146
N            2.30710739318670        0.10163163446459        0.03138119886764
C            2.61200942205306       -1.24441678806170        0.01216351990036
N            1.43247365182414       -1.95068401074391       -0.02323923657765
C            0.40678012633532       -1.07898145909234       -0.00665772871732
C            0.91222964855591        0.21162836293694        0.03369294513274
C            0.09325341781780        1.36065430895157        0.02639971828979
O            0.45942080194731        2.53907792762170        0.09424645581696
N           -1.30193842136100        1.04956122938857       -0.10755342924401
C           -2.23472653830785        2.17129005621205       -0.09377067580917
C           -1.82503526947880       -0.20239233595099       -0.00364556072700
O           -3.02123894976631       -0.40991454017796        0.02053140635593
N           -0.93629640190879       -1.30769742528589        0.00426197013948
C           -1.47116825741069       -2.64907378928869       -0.02929490528871
H            3.71266487898544        1.23218963477342        1.08491289593261
H            4.01715744933502        1.05503555279676       -0.65966943712003
H            2.68567063715876        2.09881807553298       -0.07857094967907
H            3.59054316681812       -1.65889261380354        0.00208749211479
H           -1.67512499528243        3.09705566530899        0.05413198418960
H           -2.78044099818026        2.19859498709792       -1.03324540504426
H           -2.94478991376000        2.04555257206497        0.72506305087783
H           -1.14665348989719       -3.21641584398287        0.84685028506363
H           -1.16881279304392       -3.17971107438928       -0.93426255196953
H           -2.55588108752169       -2.55795521606777       -0.02570594678208
H            1.38276645989885       -2.95506138431234       -0.04828457512176
25
 energy: -43.837667586258 gnorm: 0.003276654178 xtb: 6.6.1 (8d0f1dd)
C            3.23827950832232        1.17929836431822        0.09786225491605
N            2.30757347462938        0.10060972995735        0.03217203238251
C            2.61175222971793       -1.24552267897213        0.01151956860010
N            1.43190604832039       -1.95136069873603       -0.02338963036213
C            0.40714496569141       -1.07904689841986       -0.00658111938831
C            0.91298181344630        0.21074602811583        0.03494116065598
C            0.09483911683042        1.36048223240010        0.02864083420211
O            0.46399167514152        2.53841545444847        0.09946205844309
N           -1.30102571981479        1.05112771891326       -0.10888094576090
C           -2.23537772004394        2.17131256575677       -0.09338495620796
C           -1.82390960182163       -0.20133158579288       -0.00761959453663
O           -3.02026051438892       -0.40844382822739        0.01571096478218
N           -0.93574832542201       -1.30740300737691        0.00359994988673
C           -1.47057867788902       -2.64880681526914       -0.02782903437683
H            3.71168788612422        1.23481171705775        1.08465920649974
H            4.01512562826646        1.05681464418840       -0.66071701523468
H            2.68174566277542        2.09767656614833       -0.07900608777207
H            3.58991788597077       -1.66116005984428       -0.00100762115323
H           -1.67477167109165        3.09615971657721        0.05415745420958
H           -2.78022475469204        2.19679415442682       -1.03257949293077
H           -2.94772692854912        2.04725983901073        0.72479182641037
H           -1.14739443245957       -3.21532281024320        0.84950458794872
H           -1.16620890820342       -3.17969433703431       -0.93159262297281
H           -2.55544096115217       -2.55903385925072       -0.02491107801276
H            1.38122793654747       -2.95557189022847       -0.04971071734588
25
 energy: -43.837692655606 gnorm: 0.001415297707 xtb: 6.6.1 (8d0f1dd)
C            3.23884569678686        1.17923249226838        0.09793662797418
N            2.30750981031609        0.10117656962327        0.03201057282786
C            2.61225766937484       -1.24487239732739        0.01207402943750
N            1.43253874055423       -1.95105320215993       -0.02277682305736
C            0.40725770466608       -1.07907797801485       -0.00606107571455
C            0.91290861203159        0.21111447629608        0.03467992692985
C            0.09440258951803        1.36068294594037        0.02736021482697
O            0.46299861622694        2.53878833423883        0.09546735908651
N           -1.30128460309957        1.05054487419896       -0.10792038227200
C           -2.23548695065974        2.17134689123284       -0.09328872708520
C           -1.82414998212502       -0.20191208284239       -0.00595149196719
O           -3.02040565918143       -0.40948121228362        0.01798008175103
N           -0.93572768231050       -1.30780588133214        0.00411244334588
C           -1.47111628592119       -2.64913163160333       -0.02872999688163
H            3.71262352685452        1.23290460303600        1.08460175250121
H            4.01549333174256        1.05614194684632       -0.66077995695216
H            2.68332313512431        2.09838783379914       -0.07805255532418
H            3.59069738759831       -1.65980458925066        0.00033485018830
H           -1.67552652961715        3.09667461569882        0.05393596222407
H           -2.78078366722781        2.19769371931631       -1.03250916538071
H           -2.94740857327034        2.04775128154187        0.72497692328246
H           -1.14803241442883       -3.21713285096383        0.84761264002716
H           -1.16807499647323       -3.17958088620462       -0.93339295378799
H           -2.55590760206935       -2.55845087189906       -0.02512902050251
H            1.38255374184550       -2.95532673823142       -0.04867925259531
25
 energy: -43.808946437883 gnorm: 0.179937507234 xtb: 6.6.1 (8d0f1dd)
C            3.24162917161355        1.18404846516250        0.10649586763387
N            2.32545255832751        0.10860868936747        0.02318165408952
C            2.63040485977103       -1.25514279858352       -0.00964232359035
N            1.44580574973016       -1.97286719410207       -0.05061296689153
C            0.44032312924614       -1.10904874317774       -0.00722109436274
C            0.90106642123013        0.16852473941295        0.04526820593715
C            0.07142622792097        1.28604071539354        0.07826287695366
O            0.42148177290823        2.51815120548469        0.19699227865465
N           -1.37984298310544        1.09252160457262       -0.26106656406662
C           -2.25267552959560        2.22445372525549       -0.16350458880678
C           -1.79282722715004       -0.18596773087813        0.06920916959048
O           -3.02018748134798       -0.42752886078535        0.10134717786193
N           -0.92554030715790       -1.32456708052591        0.06194362697196
C           -1.46621787264286       -2.65609340469158       -0.00870317424825
H            3.70838508753823        1.24280423440062        1.10712686074215
H            4.02620671840977        1.07101381628907       -0.64791485166551
H            2.66790031785229        2.09109055845982       -0.06683096647701
H            3.61173269242054       -1.67349938478245       -0.03908590116304
H           -1.70110905881150        3.13716218121036        0.14730781892117
H           -2.72915971345554        2.29714709096675       -1.09930780933098
H           -3.01202118797676        2.02510069694779        0.64114814500602
H           -1.11981242201673       -3.24257063785635        0.86110356572891
H           -1.20454302889790       -3.19012691638033       -0.90385918705219
H           -2.55142393926106       -2.56155393329075        0.01565984467271
H            1.39517693726783       -2.96993499378215       -0.08452608644462
25
 energy: -43.826580266969 gnorm: 0.064600155700 xtb: 6.6.1 (8d0f1dd)
C            3.23610237225120        1.18261193849795        0.10942493001705
N            2.31420647000283        0.10259810646804        0.02400513167707
C            2.61908011993463       -1.25085968074033       -0.00726939269398
N            1.43945146167980       -1.96318613459936       -0.04469293444467
C            0.42054562034215       -1.09498148917111       -0.01095942982659
C            0.90461002741914        0.19634387839429        0.03388676144946
C            0.08884486209067        1.32999289740001        0.05156326836736
O            0.44256902590125        2.52159919452855        0.19749517826837
N           -1.34155149228308        1.06241608962336       -0.21334282056420
C           -2.24424201372407        2.18877456325170       -0.13887143078196
C           -1.81370224065595       -0.20714646410425        0.01896420869022
O           -3.01951204418696       -0.42762021828076        0.11702188551471
N           -0.93441288975071       -1.31716803496060        0.04549294665705
C           -1.47173566451217       -2.65302388275128       -0.00003962326431
H            3.70614893475045        1.24017209590641        1.10168542296377
H            4.02111529573732        1.07368559269297       -0.64307442794717
H            2.67247143493121        2.09827168895585       -0.06264836297401
H            3.59895884966486       -1.66939347554294       -0.03865676758403
H           -1.68156975968713        3.08999034509719        0.13610305518991
H           -2.72511481914110        2.29846045920203       -1.09801144463082
H           -3.01361551624758        2.01450347597664        0.63325284824660
H           -1.12969561911861       -3.23440343252670        0.86579826692908
H           -1.19088822084497       -3.17634601615343       -0.91153514698444
H           -2.55698079848932       -2.56142883666907        0.02686083425278
H            1.39054749675320       -2.96609661640778       -0.07968137786267
25
 energy: -43.827585695673 gnorm: 0.032724313280 xtb: 6.6.1 (8d0f1dd)
C            3.23796847401445        1.17790562268586        0.10691975004358
N            2.31367187033699        0.09181088719728        0.02820356181255
C            2.62458625590314       -1.25611915478491       -0.00947999369954
N            1.44532604725579       -1.96510854169453       -0.04694486091405
C            0.41566743205463       -1.09677562542813        0.00244246323988
C            0.90977515039071        0.19908418538509        0.05361737165178
C            0.08329577914215        1.33887915710630        0.07633279414060
O            0.42603849630215        2.51203788412473        0.20009606869091
N           -1.32284979320985        1.05155919048450       -0.16672343927636
C           -2.24406446728060        2.19229760363660       -0.14204596727321
C           -1.82402048015773       -0.20504353074446        0.04517926898583
O           -3.01428749870612       -0.42679530650092        0.08925956177541
N           -0.93379639453692       -1.31032705740562        0.05660950839576
C           -1.46922379167180       -2.65268199608323        0.00163576919980
H            3.70913429981822        1.24042154284650        1.09617099555941
H            4.02111150891871        1.07080954663095       -0.64930299084251
H            2.67057719029681        2.09080822901420       -0.06855641684388
H            3.60656473640233       -1.67271930450280       -0.04837610479951
H           -1.71150158237949        3.11869675113395        0.10930049979177
H           -2.73322951244516        2.29752004216160       -1.11189040891393
H           -3.00778684539723        2.03354389311582        0.62130082529746
H           -1.12115235958918       -3.24326664590373        0.85352355244652
H           -1.19453788553681       -3.17655634774704       -0.91803194688170
H           -2.55307637055513       -2.56173754561445        0.02655648326114
H            1.39744063344701       -2.97047743502620       -0.09302476618311
25
 energy: -43.828372246335 gnorm: 0.020606588597 xtb: 6.6.1 (8d0f1dd)
C            3.23668832834687        1.18244078507553        0.11129026715105
N            2.31387721058222        0.09407764211327        0.02094133885573
C            2.62607677410676       -1.25515585683281       -0.00785244606212
N            1.44623178649815       -1.96585794131632       -0.04869787843381
C            0.41574463252857       -1.09928821802889       -0.01550732008566
C            0.90951822867627        0.19540448949966        0.02999137673329
C            0.07747845804901        1.33550839660421        0.04473658615868
O            0.42135682528930        2.51054348385462        0.17856943201417
N           -1.32555838489590        1.05243804515871       -0.19250203431171
C           -2.24232261430101        2.19509208838611       -0.13247634886085
C           -1.82537680906696       -0.20152950525636        0.02403276516458
O           -3.01619681750520       -0.42147832676617        0.10380053925684
N           -0.93282818129796       -1.31034496961382        0.03923013879525
C           -1.47066706320583       -2.65404608385724        0.00405707701074
H            3.69921424244993        1.24128744417304        1.10557234665574
H            4.02585773109790        1.07606815522755       -0.63922862864901
H            2.67027688913369        2.09547079900629       -0.06583335890048
H            3.60818926768976       -1.67134932959208       -0.03044587298587
H           -1.69279283619163        3.10545656580427        0.14252558079083
H           -2.73502011493701        2.31760801164229       -1.09777821710508
H           -2.99845739571842        2.01144715233162        0.63452110477039
H           -1.12527602796102       -3.23084581875520        0.86647568222281
H           -1.19677021599338       -3.19284883666151       -0.90569603307516
H           -2.55438035481649       -2.56144300726202        0.02194998905373
H            1.39676733425944       -2.97088912084738       -0.07890450749948
25
 energy: -43.828553154156 gnorm: 0.017612373494 xtb: 6.6.1 (8d0f1dd)
C            3.23861869026380        1.18503936115384        0.10931665129591
N            2.31375328005208        0.09945712506113        0.02533780567619
C            2.62301052936022       -1.25236475848922       -0.01008401502927
N            1.44179931454991       -1.96337552513446       -0.04504902252264
C            0.41598746931288       -1.09738918444574       -0.00709320039637
C            0.90884172965065        0.19446057381781        0.04066071307483
C            0.07737593265586        1.33405996061308        0.05812963412174
O            0.43329741359876        2.51470311155988        0.20607024440645
N           -1.32685522330613        1.05407135571496       -0.19694334935477
C           -2.24570133713458        2.19088216534198       -0.14170881074428
C           -1.82351138845682       -0.19998371954603        0.02815821993515
O           -3.01882024518946       -0.42299104683695        0.12356757553504
N           -0.93217016284150       -1.31159192681878        0.04780480957173
C           -1.47152047664749       -2.65234794552310        0.00136211915347
H            3.71295934982543        1.23905061322666        1.09901608320881
H            4.01856429101216        1.07418358690068       -0.64957643760801
H            2.67337655086303        2.09985195459829       -0.06023937957437
H            3.60261620214940       -1.66990884708827       -0.04500481321836
H           -1.68483865656936        3.09597560079228        0.12944229200696
H           -2.72192075628906        2.29316147804905       -1.11098132516161