25
 energy: -39.867189088294 gnorm: 11.574156194745 xtb: 6.6.1 (8d0f1dd)
C            3.97836117823868        0.77683681162902        0.30686831220169
N            2.68674138957907        0.20196662406778        0.22203724690841
C            2.47147557660420       -1.03008564286796        0.06546138248998
N            1.19831145196886       -1.52818571184277       -0.01570568341903
C            0.07878143835021       -0.75222250048907        0.05563993866979
C            0.02487159834368        0.63729183743945        0.26809018275286
C           -1.92404579055103        2.87712396857276       -0.87332806167572
O           -1.65637831904943        3.22749628799035       -1.93704686541385
N           -1.39335061008006        0.86237817208946        0.24289492567743
C           -2.05762731216441        2.14384679354282        0.34706020381340
C           -2.11706763024938       -0.29550426732388        0.01521152096075
O           -3.31462960849485       -0.38160830022143       -0.06234314669204
N           -1.17048330688777       -1.29429317681194       -0.08339955891830
C           -1.51626173870837       -2.67530660694818       -0.30892692291199
H            4.06292122668497        1.29189365639861        1.26515119249472
H            4.78880665041336        0.04536612420545        0.21326115732464
H            4.07282538270673        1.52680564751632       -0.47991210415023
H            3.25088345318183       -1.79393502592344       -0.02062137580821
H            0.29152177746759        0.90568436112111        0.32956286774630
H           -3.12749479383032        1.92847433760439        0.52907610448711
H           -1.66881769316888        2.72756968193135        1.19448765270144
H           -1.17827409286398       -3.30108430605649        0.51831639136366
H           -1.09439477178726       -3.03446237142701       -1.24878406088657
H           -2.60327226259142       -2.72504557797047       -0.36733936578562
H            1.07702832098557       -2.52276227463177       -0.14454031602677
25
 energy: -42.086317142244 gnorm: 0.301261379605 xtb: 6.6.1 (8d0f1dd)
C            3.97835906916858        0.77683800815092        0.30687436712506
N            2.68675938184675        0.20195952768635        0.22203165583984
C            2.47147310772991       -1.03001298026985        0.06546998787612
N            1.19860746211518       -1.52789286958228       -0.01563688758139
C            0.07319540909174       -0.76186970157062        0.05379621017137
C           -0.18592790996965        0.42535105875507        0.21963071334700
C           -1.92402821185379        2.87712659427944       -0.87332922303271
O           -1.65639147550023        3.22747955750281       -1.93702069652761
N           -1.40138723047481        0.85803453287050        0.24179737885191
C           -2.05722311743496        2.14404413031754        0.34709710842116
C           -2.11834671704159       -0.29569476805329        0.01512815426424
O           -3.31476742058265       -0.38162628198529       -0.06235235826964
N           -1.17096500297413       -1.29580242345211       -0.08365308069734
C           -1.51629844820864       -2.67539305839254       -0.30893929162571
H            4.06292214293905        1.29189336930993        1.26515075138538
H            4.78880509648840        0.04536627470051        0.21326312491753
H            4.07282565348534        1.52680540764240       -0.47991393857501
H            3.25088255065041       -1.79393464025153       -0.02061862592509
H            0.51701264821476        1.13285545632924        0.38117860766177
H           -3.12746363556125        1.92852154972270        0.52908227602734
H           -1.66879024896413        2.72755102566667        1.19447805324222
H           -1.17827315941315       -3.30108733896388        0.51831931584583
H           -1.09439328834643       -3.03446536640007       -1.24878738651621
H           -2.60327474657446       -2.72504860258353       -0.36734143372108
H            1.07711960526733       -2.52275991983462       -0.14453316460114
25
 energy: -42.132218354601 gnorm: 0.074480845834 xtb: 6.6.1 (8d0f1dd)
C            3.97829015389332        0.77388150970912        0.30657896149809
N            2.68732951692751        0.19482601437705        0.22074747553317
C            2.47771906677274       -1.03985953804931        0.06408358123153
N            1.21406367068277       -1.55364854477418       -0.01871917831382
C            0.08823359352425       -0.80027372251280        0.04850913231126
C           -0.13346565155325        0.53604181280928        0.23792837349878
C           -1.92808868393957        2.88202731431730       -0.87285419308110
O           -1.65438146408986        3.22814637259762       -1.93845152865414
N           -1.43015411656265        0.86498476396623        0.24423559013691
C           -2.07174403968499        2.15003192216198        0.34662864030209
C           -2.13763857685959       -0.31582382791886        0.01271298354447
O           -3.33666472757164       -0.40450118345202       -0.06615253396606
N           -1.19072336197210       -1.32497791957572       -0.08929363338051
C           -1.53381785550478       -2.69586698566079       -0.31326101472609
H            4.06353949736910        1.28896557479335        1.26495267456106
H            4.78931072597406        0.04316322453894        0.21306193616586
H            4.07340918774081        1.52385035220003       -0.48044319576400
H            3.25967293245341       -1.79843093762708       -0.02090767905492
H            0.56974689618089        1.24528840763264        0.40009359357479
H           -3.13798554877929        1.93238622749359        0.52976723943450
H           -1.67188500201819        2.72696445714961        1.19394261242956
H           -1.18564926949660       -3.31077428778407        0.51745409650216
H           -1.10169561962289       -3.04394287724033       -1.25216218353251
H           -2.61846913126846       -2.73980818502497       -0.37054836822382
H            1.09147932150260       -2.54441140253212       -0.14673176412344
25
 energy: -42.137591114219 gnorm: 0.060618425919 xtb: 6.6.1 (8d0f1dd)
C            3.97937579488225        0.77165570864253        0.30689044429045
N            2.68550942847852        0.19822494661172        0.22070005150676
C            2.47181207312333       -1.03494733784454        0.06402610294920
N            1.20404458499604       -1.54311290611020       -0.01996008632332
C            0.07765268026414       -0.78609623736841        0.04791787920587
C           -0.08748945611472        0.56281898959084        0.24564307615757
C           -1.93241830870995        2.87830319068135       -0.87405971519778
O           -1.65566504827388        3.22591767997067       -1.93960193681435
N           -1.42782320978037        0.85558778682862        0.24476168106727
C           -2.07319284852145        2.14208364746640        0.34454159676038
C           -2.14467125140268       -0.32342933995983        0.01263852903316
O           -3.34342237056512       -0.41466076262422       -0.06477774340098
N           -1.19756492181089       -1.32139493168560       -0.08984366921048
C           -1.53768092095578       -2.70008667905027       -0.31464403156594
H            4.06466274076116        1.28703149720278        1.26507951018262
H            4.78954388350915        0.04006131577393        0.21394841577204
H            4.07556672412205        1.52147750647926       -0.48016778773242
H            3.25402151718365       -1.79611730682038       -0.01959065990756
H            0.61919333951223        1.27286793547084        0.40870753397318
H           -3.14224220223813        1.93416626855591        0.52907174734927
H           -1.67548405234898        2.72041044139458        1.19146508049769
H           -1.19235337830918       -3.32174682657150        0.51300152450620
H           -1.10896062337933       -3.05557503847143       -1.25300358692056
H           -2.62284791000787       -2.75837225319171       -0.37397144054206
H            1.08086524968340       -2.53682875337686       -0.14760089773236
25
 energy: -42.138702520884 gnorm: 0.057904380566 xtb: 6.6.1 (8d0f1dd)
C            3.98518132358377        0.76554809428725        0.30658138364119
N            2.68821603506871        0.19911872938315        0.22033641955307
C            2.46719873621318       -1.03250978613738        0.06398082077610
N            1.19587069247039       -1.53312583383556       -0.02045760591885
C            0.06734825058291       -0.77209689540414        0.04830107665960
C           -0.07143828423796        0.58022953432094        0.25068837578988
C           -1.94019655124675        2.87355058858248       -0.87490311496266
O           -1.65991953144350        3.22014168295681       -1.93853942914770
N           -1.42737040556770        0.84967030694448        0.24501044910420
C           -2.07947307952103        2.13564094259252        0.34335298827329
C           -2.14456754119102       -0.32633664013613        0.01232221616031
O           -3.34191564736069       -0.41789456996025       -0.06359515895696
N           -1.19664856742209       -1.31713647444505       -0.09025915734097
C           -1.53363248892732       -2.70052132428571       -0.31543696531970
H            4.07205592414991        1.28088893774161        1.26469660632889
H            4.79168339605718        0.03020378089251        0.21427881949485
H            4.08447643934327        1.51444550655385       -0.48107205784386
H            3.24683798406411       -1.79729048409409       -0.01932009494612
H            0.63889020093168        1.29321043475726        0.41478186451208
H           -3.15012908613348        1.93164441120752        0.52694194058309
H           -1.68596564565093        2.71706803416418        1.18996878530122
H           -1.19207059755357       -3.32534218918115        0.51184294794221
H           -1.10836735756065       -3.05944628585800       -1.25445031273598
H           -2.61979059455850       -2.76293560499984       -0.37559061879960
H            1.07415791000771       -2.52848635445274       -0.14828856024378
25
 energy: -42.139132582084 gnorm: 0.052303903998 xtb: 6.6.1 (8d0f1dd)
C            3.99316892213282        0.75829275819973        0.30633813478651
N            2.69312699034784        0.19894581732412        0.21996108144446
C            2.46508476304159       -1.03148858818702        0.06378681116602
N            1.19173499262179       -1.52605186452621       -0.02064971903476
C            0.06156398732826       -0.76275210648030        0.04904262792864
C           -0.06941174081272        0.58843036363191        0.25346562929247
C           -1.94987663333461        2.87013251483626       -0.87552539996087
O           -1.66728995887542        3.21312804318062       -1.93948834770226
N           -1.42968467500392        0.84865322050087        0.24583641815802
C           -2.08868318500256        2.13269399416140        0.34314041894428
C           -2.14405698982079       -0.32573366476458        0.01281335644984
O           -3.34136654054916       -0.41724276208782       -0.06256266456226
N           -1.19359024423660       -1.31335853423157       -0.09041002726469
C           -1.52809824984242       -2.69831530994041       -0.31610381926449
H            4.08255963061790        1.27354998948912        1.26426973443945
H            4.79528770261045        0.01816624351018        0.21477098782928
H            4.09689420059791        1.50597153455419       -0.48192832305516
H            3.24149058529255       -1.79962786287484       -0.01935489876673
H            0.64476089648826        1.30512531890623        0.41837790304967
H           -3.15934083585019        1.92600053172855        0.52467534642028
H           -1.69934573782967        2.71639651491953        1.19000233649643
H           -1.18776186012080       -3.32318566806851        0.51153847523626
H           -1.10347405619664       -3.05708752940143       -1.25536251552453
H           -2.61479491549787       -2.76069813782448       -0.37658127205259
H            1.07153446599160       -2.52170627496100       -0.14888065654953
25
 energy: -42.139709212722 gnorm: 0.040118246445 xtb: 6.6.1 (8d0f1dd)
C            4.00966582441716        0.74446593089452        0.30613606744298
N            2.70372190789623        0.19886093145779        0.21965968141782
C            2.46351292289664       -1.02953777508455        0.06373530973050
N            1.18765919707459       -1.51485180912833       -0.02074142807426
C            0.05522368290448       -0.74951561657814        0.05033886334381
C           -0.07327230536446        0.59824495492189        0.25679319652093
C           -1.97002271874278        2.86513613957594       -0.87678001286576
O           -1.68346624873205        3.19966368141005       -1.94237778231295
N           -1.43545172294558        0.85050503425360        0.24786062564467
C           -2.10674324036882        2.13006745050376        0.34340365526139
C           -2.14373280627453       -0.32244272980236        0.01419114606087
O           -3.34153349243955       -0.41443759596381       -0.06076458304048
N           -1.18843402238680       -1.30712331861161       -0.09060306045764
C           -1.51915779252496       -2.69308892315031       -0.31737555284321
H            4.10452169254658        1.25963478420620        1.26355479474822
H            4.80312024221677       -0.00534951028522        0.21605316375921
H            4.12267300277120        1.48957791289645       -0.48330429493033
H            3.23409224376249       -1.80345037566124       -0.01932180894017
H            0.64903814244692        1.32293798682640        0.42305514180018
H           -3.17622382388525        1.91331002475833        0.52082894059440
H           -1.72564304319610        2.71776357704207        1.19098365898996
H           -1.17906091192434       -3.31688219226031        0.51078837480092
H           -1.09342717970715       -3.04984767186477       -1.25653356339350
H           -2.60618156341526       -2.75502595972810       -0.37862571202682
H            1.06955352707219       -2.51037638903363       -0.14978320332707
25
 energy: -42.140179722516 gnorm: 0.026805994633 xtb: 6.6.1 (8d0f1dd)
C            4.02741431747349        0.73083140699866        0.30639889277490
N            2.71534134969511        0.19980030144716        0.22001715504405
C            2.46439644464973       -1.02661854359282        0.06413344139602
N            1.18698695464549       -1.50511279865622       -0.02064101942793
C            0.05335918382854       -0.74014788167092        0.05127692381473
C           -0.08144780983026        0.60479810390162        0.25870008536596
C           -1.99089837220221        2.86225592916616       -0.87774681658640
O           -1.70336042007627        3.18566664481562       -1.94672635281247
N           -1.44183437026946        0.85525561330226        0.25036326104507
C           -2.12417203096629        2.12976608745060        0.34416742728916
C           -2.14462174121491       -0.31825097443718        0.01569323832108
O           -3.34290562886704       -0.41214705704686       -0.05937613815158
N           -1.18557870512506       -1.30183988488236       -0.09076807839045
C           -1.51295503695422       -2.68763069631722       -0.31882276620753
H            4.12844463925060        1.24601640180767        1.26311240704619
H            4.81169325844590       -0.02921391714615        0.21787144670375
H            4.15049483181823        1.47302665326398       -0.48426176416092
H            3.22980726213485       -1.80564239306767       -0.01890062011507
H            0.65020243563027        1.33858656227943        0.42614601858058
H           -3.19177981544893        1.90005763453942        0.51773692131208
H           -1.75175951928308        2.72129666733831        1.19255607274499
H           -1.17169361204206       -3.31022881330212        0.50950538329725
H           -1.08444331682025       -3.04165225552682       -1.25752535739503
H           -2.59963168694960       -2.75045566415206       -0.38126500801077
H            1.06937290257507       -2.50017858491780       -0.15047313557406
25
 energy: -42.140518641433 gnorm: 0.012625915308 xtb: 6.6.1 (8d0f1dd)
C            4.04313285777023        0.71975891117013        0.30730129350174
N            2.72559309301803        0.20200997718092        0.22118189928527
C            2.46730652637649       -1.02280954769193        0.06495667641149
N            1.18913787523274       -1.49799886356057       -0.02049583995692
C            0.05580886547997       -0.73553501511761        0.05145705822338
C           -0.09042898295148        0.60858111140026        0.25891588868866
C           -2.01058470790562        2.86125599170712       -0.87898403954914
O           -1.72279260820941        3.17414495217363       -1.95128364129929
N           -1.44725619185274        0.86135368419925        0.25286992171071
C           -2.13726285097627        2.13119726342648        0.34512237987593
C           -2.14675723769311       -0.31497971078174        0.01703928241286
O           -3.34508820368894       -0.41241469702910       -0.05842949291450
N           -1.18616601204427       -1.29821319609624       -0.09079130042834
C           -1.51060003476956       -2.68331895566641       -0.32031306812447
H            4.14997966361818        1.23514334718521        1.26318458122620
H            4.81913266917328       -0.04919537792801        0.22018995898403
H            4.17530458143670        1.45911666546565       -0.48442177598800
H            3.22924429666119       -1.80539071818439       -0.01807242906215
H            0.65062286704197        1.35127521660117        0.42712892759509
H           -3.20277233887164        1.88977841886560        0.51702986523551
H           -1.77182430816115        2.72635644600433        1.19353793106178
H           -1.16762756250188       -3.30546353754401        0.50773141082852
H           -1.07880785011695       -3.03484502364674       -1.25854626652527
H           -2.59649024405346       -2.74898857614978       -0.38425233864435
H            1.06962735208538       -2.49258022438845       -0.15088526464522
25
 energy: -42.140618431441 gnorm: 0.004237030199 xtb: 6.6.1 (8d0f1dd)
C            4.04786851664431        0.71685685326281        0.30847130804938
N            2.72843682639777        0.20377663071200        0.22241103657946
C            2.46947347134963       -1.02070392153730        0.06556542311661
N            1.19123873660384       -1.49670115931078       -0.02062063124738
C            0.05916150772373       -0.73624067515324        0.05079415869736
C           -0.09332141603781        0.60897908383214        0.25780273475936
C           -2.01708774610739        2.86261423845436       -0.87926849629864
O           -1.73321588867711        3.16947607096633       -1.95441628723454
N           -1.44844527018031        0.86433937758970        0.25388644624698
C           -2.13920514211891        2.13259205792182        0.34572478582265
C           -2.14834001011974       -0.31478411251656        0.01745461650633
O           -3.34625851710639       -0.41477038012995       -0.05810040488767
N           -1.18867943768701       -1.29748574643746       -0.09065285555949
C           -1.51172278164454       -2.68237344264480       -0.32115650390894
H            4.15672406424421        1.23255731570605        1.26390274695195
H            4.82100692872488       -0.05485730339688        0.22201845765990
H            4.18317539679294        1.45510292465471       -0.48360269783593
H            3.23117049581257       -1.80369333815080       -0.01747318561122
H            0.65202352593501        1.35537710716997        0.42599095454865
H           -3.20393701590963        1.88892122021888        0.51917818279518
H           -1.77465990254135        2.72928312692648        1.19319540152659
H           -1.16809675939828       -3.30510625549284        0.50644567380994
H           -1.07863926770961       -3.03306220566418       -1.25935337535125
H           -2.59716694114845       -2.75072691499853       -0.38595964945789
H            1.06892814025531       -2.49113201038710       -0.15106622177393
