25
 energy: -39.891273013429 gnorm: 11.572049775621 xtb: 6.6.1 (8d0f1dd)
C            4.79997888792743        0.33446484955648        0.08431620487335
N            3.97577099805306       -0.57034125613674       -0.17007961651388
C            3.12180164845134       -1.50796765440364       -0.01648241133173
N            1.80191705610027       -1.32483683793799       -0.00814956284685
C            1.23588550354822        0.00082819040967       -0.03919390077806
C           -0.14721405957848        0.08297885923674       -0.02119538381744
C           -0.74704742039826        1.45830838564192       -0.05035277564887
O           -0.16828029657282        2.51199212428453       -0.07510666854160
N           -2.10422695154363        1.25298966764384       -0.03506750381918
C           -3.09700742265792        2.29953835265274       -0.06221035157466
C           -2.41358649729829       -0.09164460313291        0.00744820476562
O           -3.49580801064685       -0.59857985130657        0.03799348258422
N           -1.19174371678360       -0.79055953968153        0.01449167754375
C           -1.19537363254940       -2.23142612516492        0.05806000266205
H            5.03125216141568        0.63496686765326        1.10173668244886
H            5.30836139268686        0.83319122367982       -0.73090763752895
H            1.46673732766992        0.30661997356747       -0.05495656648696
H            3.48969902808103       -2.52937497003555       -0.00953922784760
H           -2.60392596151388        3.23871468839966        0.18136751282331
H           -3.54706844755596        2.36899385023856       -1.05410001496265
H           -3.87829702201682        2.07624532272742        0.66339646415453
H           -0.69957486800288       -2.60097237557020        0.95790189307194
H           -0.74713522019991       -2.65590055453787       -0.84282009350721
H           -2.24268092663089       -2.53756463030457        0.09425179651525
H            1.20799796411660       -2.14242541586886        0.00036941165922
25
 energy: -42.140588611155 gnorm: 0.197316243776 xtb: 6.6.1 (8d0f1dd)
C            4.79998286635128        0.33447495709150        0.08431116583831
N            3.97571019053518       -0.57026351422807       -0.17007978804450
C            3.12172659125810       -1.50733919793294       -0.01648767637944
N            1.79847522944392       -1.33295488757421       -0.00784819460330
C            1.05275093770466       -0.24226907929158       -0.02667374889603
C           -0.15548413819485        0.07657495033958       -0.02083550994742
C           -0.74667368587049        1.45834376284685       -0.05036831716927
O           -0.16819613750844        2.51194840577219       -0.07510400792466
N           -2.10421831137599        1.25304473621174       -0.03506935754639
C           -3.09700848710244        2.29953889910760       -0.06221194572361
C           -2.41367420438109       -0.09160118799446        0.00744062725276
O           -3.49578326566349       -0.59856202926336        0.03799688793726
N           -1.19290480678311       -0.79023289779138        0.01448920150997
C           -1.19541116346498       -2.23141776403525        0.05806061046541
H            5.03125219056870        0.63496692235505        1.10173509681387
H            5.30836387060652        0.83319111265104       -0.73090852379056
H            1.66184770140504        0.56412629553368       -0.06812420647570
H            3.48974660510708       -2.52933824481945       -0.00954253890370
H           -2.60392765158645        3.23871672649888        0.18136773094005
H           -3.54706743712100        2.36899318584514       -1.05409489547062
H           -3.87829558048677        2.07624527689930        0.66339533270665
H           -0.69957942289581       -2.60097584895821        0.95790563233445
H           -0.74713586905070       -2.65590155179676       -0.84282004351575
H           -2.24268225612423       -2.53756993153428        0.09425080319093
H            1.20861774873016       -2.14350055432182        0.00038728329772
25
 energy: -42.164731342900 gnorm: 0.072971313814 xtb: 6.6.1 (8d0f1dd)
C            4.80042211352266        0.34136083218106        0.08410416968090
N            3.98193600691949       -0.57158121176387       -0.16985073573754
C            3.14493016969516       -1.52539214855449       -0.01481284445805
N            1.82367060133856       -1.37765526872473       -0.00660997772459
C            1.12560540835522       -0.21690843032692       -0.02732465306340
C           -0.19075572947731        0.09142415455398       -0.02143624596479
C           -0.76555184266785        1.46571963351899       -0.05099666152529
O           -0.17749796390037        2.51269171450005       -0.07514600133543
N           -2.12133166901413        1.25727109041884       -0.03513507591828
C           -3.10764670781485        2.30492849356818       -0.06202657831097
C           -2.44638933157700       -0.08773785119886        0.00740037004377
O           -3.53114162012301       -0.58830045078782        0.03839742741341
N           -1.23926285651617       -0.78678411754192        0.01470869968875
C           -1.21182926275835       -2.22733458671241        0.05805914160949
H            5.03218869270123        0.64111663901192        1.10156639285361
H            5.31040440065717        0.83800882733347       -0.73112818538896
H            1.73616857068721        0.59226843652695       -0.06844133880270
H            3.51858944645746       -2.54115441532107       -0.01256850629844
H           -2.61028916122796        3.24147420667780        0.18192430423943
H           -3.55507816845435        2.37124751176573       -1.05475739072675
H           -3.88662385353001        2.07843969965942        0.66432712160917
H           -0.70577889335852       -2.59134550449292        0.95619183247408
H           -0.75263318141677       -2.64649357100590       -0.84143691393429
H           -2.25216010112832       -2.55082885151859        0.09443996302589
H            1.24048644673163       -2.20619629015614        0.00172330444742
25
 energy: -42.168772250376 gnorm: 0.066450072421 xtb: 6.6.1 (8d0f1dd)
C            4.82322839090115        0.32604174079491        0.08536561946350
N            3.97696391376839       -0.56142740764882       -0.17068696746940
C            3.14511703669629       -1.52070817296822       -0.01596474762533
N            1.81925048299596       -1.38508221768930       -0.00748011632278
C            1.14419161375833       -0.18325849867166       -0.02898101480705
C           -0.19099218065651        0.07458265416124       -0.02138931779101
C           -0.76202783961087        1.44903533713156       -0.05087680358375
O           -0.16883071095685        2.49464715850925       -0.07551251712356
N           -2.12027037821618        1.25185250875552       -0.03496314762570
C           -3.10405869427471        2.30607072582356       -0.06204098378625
C           -2.45338549869360       -0.09171793981445        0.00774951249962
O           -3.54483674309808       -0.58085092878852        0.03910469683781
N           -1.24990554381383       -0.79802987687785        0.01513498151217
C           -1.22534146536723       -2.23488916375219        0.05836849896374
H            5.02952780847358        0.64848341932401        1.10191285030437
H            5.30418072782678        0.84945672889366       -0.73149466696748
H            1.75451636741239        0.63131463471184       -0.06998988457967
H            3.52732133689056       -2.53537720809031       -0.01087174296415
H           -2.60664866986430        3.24274159311748        0.18158357879137
H           -3.55470204594091        2.37790436838846       -1.05331574424320
H           -3.88677601673540        2.08656585522010        0.66305347395936
H           -0.71734190810768       -2.59216272417449        0.95745459376389
H           -0.76282443617861       -2.64739802020929       -0.84185168638700
H           -2.26498044661337       -2.56241505493948        0.09413059615064
H            1.24905641350557       -2.22714096959627        0.00273255692628
25
 energy: -42.163127306855 gnorm: 0.086454391301 xtb: 6.6.1 (8d0f1dd)
C            4.69390273784797        0.45068983688960        0.07856510133260
N            3.96625328606149       -0.54651495083483       -0.17300575750451
C            3.14104449747833       -1.51056011081208       -0.01325874168408
N            1.80861658152124       -1.38808687712193       -0.00910070588419
C            1.16878060940291       -0.13690556480274       -0.03441065872205
C           -0.18582300173896        0.04442591295278       -0.02283581097797
C           -0.75391432532638        1.42283416881679       -0.05128654824776
O           -0.15402684436977        2.46674280618524       -0.07674594330883
N           -2.11603925695279        1.24478350497799       -0.03491430352450
C           -3.09699483865533        2.30641887486061       -0.06163546175778
C           -2.45719981352826       -0.09699660000649        0.00809821749679
O           -3.55695416034600       -0.56994590284508        0.04029965486523
N           -1.25788601291375       -0.81516988080824        0.01499525370460
C           -1.24281896525133       -2.24858610816487        0.05835169096726
H            5.09839721688659        0.58750254601541        1.10441249599936
H            5.36072754980030        0.80119406063176       -0.72747256835200
H            1.77977741541366        0.68826260592967       -0.07516606859969
H            3.53738427369811       -2.52390748141159       -0.00052528199752
H           -2.59889769426205        3.24287659548581        0.18182592292717
H           -3.55116643371169        2.38392465156589       -1.05154074167488
H           -3.88378353958537        2.09424163457937        0.66237283103558
H           -0.73498046994219       -2.60053350699779        0.95855244050179
H           -0.77829608825999       -2.65595177001551       -0.84207190897586
H           -2.28223407297652       -2.57919708369504        0.09311576731700
H            1.25656286381041       -2.24330281976395        0.00455274296067
25
 energy: -42.170673395161 gnorm: 0.062416874330 xtb: 6.6.1 (8d0f1dd)
C            4.79984592644219        0.35232475361630        0.08442215592653
N            3.96581557031826       -0.54653481322143       -0.17035216049016
C            3.13781586645288       -1.50620674861262       -0.01349696567070
N            1.80664419568684       -1.37842014028982       -0.00892264040427
C            1.16219060497880       -0.14383723719990       -0.03429979498211
C           -0.18459013479248        0.04409684842797       -0.02285402708816
C           -0.75400465265575        1.42460736375269       -0.05164267116060
O           -0.15425094292827        2.46783409981423       -0.07710117644067
N           -2.11568000071959        1.24684247820038       -0.03498958414070
C           -3.09607738720792        2.30674154637067       -0.06122522178635
C           -2.45391234910517       -0.09524968631462        0.00811580180774
O           -3.55154553420757       -0.57010337450402        0.04040050564403
N           -1.25352078088075       -0.81358368418250        0.01478518483734
C           -1.24295665228717       -2.24965922500293        0.05811816853322
H            5.05239521683202        0.63008715821737        1.09859531032932
H            5.31098456051179        0.84319511127011       -0.72814358475595
H            1.77376325438560        0.68299601892925       -0.07500389119908
H            3.53310905258298       -2.51950022150262       -0.00238086461155
H           -2.59592233910763        3.24202550751184        0.18251308223583
H           -3.54848543133471        2.38216259827750       -1.05194699441729
H           -3.88126729995925        2.09223549751885        0.66359589030107
H           -0.73814107299812       -2.60680000828820        0.95803381850893
H           -0.78093511326183       -2.66192877305084       -0.84141471878765
H           -2.28314506503531       -2.57760205987144        0.09247354756647
H            1.25230202239100       -2.22748446825548        0.00389244814119
25
 energy: -42.171160699763 gnorm: 0.052676321088 xtb: 6.6.1 (8d0f1dd)
C            4.81317657661650        0.34310933884308        0.08490429865336
N            3.96705698955831       -0.54562330440963       -0.16963084163020
C            3.13726106580821       -1.50436461087134       -0.01216881431737
N            1.80801314996026       -1.37214135700835       -0.00857056870121
C            1.15458718459688       -0.15072858903529       -0.03463451097705
C           -0.18565558059363        0.04527966170642       -0.02340803929920
C           -0.75475857866879        1.42686757576386       -0.05291763150214
O           -0.15473546465452        2.46943443834769       -0.07852565290012
N           -2.11524615147895        1.24700254093671       -0.03546982107848
C           -3.09476218272713        2.30596108713649       -0.06109004888247
C           -2.45199815767865       -0.09530680257007        0.00797218413756
O           -3.54785065249716       -0.57312201799018        0.04077801744409
N           -1.25092331175709       -0.81284855336714        0.01433904263370
C           -1.24466414691755       -2.25084968637989        0.05785159676424
H            5.05897916991063        0.62977643787758        1.10259179177011
H            5.30564073623264        0.85407416977514       -0.73256746846424
H            1.76701063137238        0.67855961557288       -0.07530293137040
H            3.53122666981676       -2.51712167383805       -0.00093279444100
H           -2.59276229780396        3.24019602696022        0.18271278477253
H           -3.54607794466509        2.38052801834350       -1.05208619510889
H           -3.87836100408542        2.09018817619178        0.66459928201942
H           -0.74317618971158       -2.61293897787638        0.95798910017438
H           -0.78495961322959       -2.66792511344725       -0.84097674752587
H           -2.28671335626978       -2.57247595254901        0.09145501453910
H            1.25012397296717       -2.21729190650203        0.00426057118657
25
 energy: -42.171620422525 gnorm: 0.042120760699 xtb: 6.6.1 (8d0f1dd)
C            4.82293827901470        0.33926076367672        0.08502695843929
N            3.96746957922659       -0.54085788688618       -0.16854658122195
C            3.13701257796237       -1.49957516446864       -0.00959249158030
N            1.80873817449431       -1.36401826005495       -0.00853675220418
C            1.15141612020928       -0.14958340913078       -0.03623083494448
C           -0.18595819546222        0.03960964803430       -0.02453278745988
C           -0.75387300252884        1.42348840336687       -0.05481365437007
O           -0.15136585683052        2.46436249410949       -0.08114042231869
N           -2.11357302039035        1.24517483051602       -0.03604541780217
C           -3.09097752238767        2.30510156199767       -0.06051204536022
C           -2.45041139788145       -0.09696014365302        0.00802700106165
O           -3.54581329934271       -0.57507627613874        0.04189377728680
N           -1.24940004425472       -0.81637572525252        0.01365226955747
C           -1.25241057266110       -2.25594949151194        0.05724111436814
H            5.07012896496685        0.62729626270197        1.10414544713120
H            5.29985766780025        0.86527212212591       -0.73518370011891
H            1.76577925928486        0.68747374301441       -0.07667123186263
H            3.53179333978179       -2.51154223784016        0.00302145168238
H           -2.58594410467268        3.23769006978954        0.18337499674220
H           -3.54197423601324        2.38056849077264       -1.05138866831246
H           -3.87362144192342        2.08996481472282        0.66609148749653
H           -0.75591346283389       -2.62377054050350        0.95796280803471
H           -0.79505377873433       -2.67826726056616       -0.84044009227058
H           -2.29743846202227       -2.56845529875494        0.08909022582330
H            1.24902594929927       -2.20659296845608        0.00527876009922
25
 energy: -42.172252084282 gnorm: 0.024799124184 xtb: 6.6.1 (8d0f1dd)
C            4.83015208885336        0.34286307275598        0.08444229153737
N            3.96736523324455       -0.52961057653188       -0.16746489752273
C            3.13936415192811       -1.49156284920107       -0.00594113748928
N            1.81205654317572       -1.35360757757629       -0.00873187693796
C            1.14755400823966       -0.14835507671815       -0.03859931516021
C           -0.18760654087860        0.03013779674902       -0.02644182969035
C           -0.75345416152413        1.41714205579239       -0.05803790701313
O           -0.14606040625568        2.45482079541631       -0.08609483676474
N           -2.11196311651582        1.24132474713895       -0.03690635745955
C           -3.08552030791124        2.30400016076057       -0.05919950510355
C           -2.44977515714826       -0.10022930953830        0.00840502773132
O           -3.54472973332707       -0.57863325396007        0.04429264817539
N           -1.24893190775699       -0.82292289060475        0.01257557792823
C           -1.26682078589044       -2.26416233002838        0.05596829864046
H            5.08978329408926        0.62243242501834        1.10346982159583
H            5.30162593073903        0.87296650053738       -0.73572498645691
H            1.76648205052585        0.70536217883808       -0.07849710276730
H            3.53722867650492       -2.50166260935430        0.00957859683225
H           -2.57527073024850        3.23380524647967        0.18480506806397
H           -3.53672325080502        2.38221622124896       -1.04953306802062
H           -3.86719353048757        2.09122089759067        0.66876975851830
H           -0.77822897046268       -2.64010903827414        0.95779841023247
H           -0.81175386344193       -2.69343854721267       -0.83961645133918
H           -2.31664884391013       -2.56202840572800        0.08419872755346
H            1.24950084336444       -2.19373109198760        0.00765666281284
25
 energy: -42.172606801890 gnorm: 0.013989205461 xtb: 6.6.1 (8d0f1dd)
C            4.83226341366487        0.34851006005563        0.08387165138363
N            3.96643532885406       -0.52074628620497       -0.16731747413942
C            3.14299711085444       -1.48712462812248       -0.00383596412199
N            1.81539682500074       -1.35242792821471       -0.00894151081719
C            1.14672119056088       -0.14933241814946       -0.04027422480503
C           -0.18992590630871        0.02523639564066       -0.02816930313871
C           -0.75462650920809        1.41296926496591       -0.06013730072412
O           -0.14409093090633        2.44875020921906       -0.08980273320216
N           -2.11289857419539        1.23874095628971       -0.03743385761046
C           -3.08399244371555        2.30416926784692       -0.05816916182266
C           -2.45232158018737       -0.10207657827504        0.00876326062778
O           -3.54754143650443       -0.57994066938865        0.04621007294986
N           -1.25178383854705       -0.82691090479366        0.01178823270079
C           -1.27570788977612       -2.26787422689073        0.05483566898728
H            5.10611299111310        0.61583589037089        1.10178456047593
H            5.30686880271030        0.87507840296769       -0.73492180013090
H            1.76988374634410        0.71819081403117       -0.07971176164346
H            3.54453274913598       -2.49555967551963        0.01551169558802
H           -2.57073300863590        3.23238568894981        0.18584184616256
H           -3.53612011831202        2.38491489448931       -1.04788427842216
H           -3.86571262870086        2.09386429708769        0.67046753993927
H           -0.79086397115973       -2.64604725788196        0.95753625782687
H           -0.81987189886134       -2.69865941808585       -0.83939261264409
H           -2.32713191210882       -2.56031320161937        0.08036142961087
H            1.25254200299005       -2.19339440715720        0.01019138486586
25
 energy: -42.172790457862 gnorm: 0.006848013225 xtb: 6.6.1 (8d0f1dd)
C            4.83311313248146        0.35152482894737        0.08350875026509
N            3.96401719386383       -0.51471795746616       -0.16759479603421
C            3.14607628117067       -1.48548481074656       -0.00240959700195
N            1.81740154669178       -1.35812274443922       -0.00865327415632
C            1.14614777797758       -0.15434633433058       -0.04068824275638
C           -0.19242783833350        0.02561005123312       -0.02947113080986
C           -0.75678577923198        1.41219041062102       -0.06143341098021
O           -0.14569133564131        2.44772333443128       -0.09209717821020
N           -2.11554864445517        1.23820095317208       -0.03781271969098
C           -3.08585688688939        2.30528035837441       -0.05764197597401
C           -2.45644135605259       -0.10198475296094        0.00883803536036
O           -3.55214243418425       -0.57916501664507        0.04721578187946
N           -1.25627404589687       -0.82733710515494        0.01120698836731
C           -1.27754336176142       -2.26701605431097        0.05394465432448
H            5.11930132568112        0.60700146694476        1.10006535996789
H            5.31078291875945        0.87513439292773       -0.73439857476254
H            1.77265092535457        0.72253444291833       -0.07976209665100
H            3.55110163371684       -2.49266013682555        0.01971561902781
H           -2.57194412708212        3.23315421004301        0.18622744781094
H           -3.53912683525482        2.38725416346730       -1.04685244040013
H           -3.86791336794306        2.09630611715112        0.67120183053298
H           -0.79276075869926       -2.64296243085321        0.95736144566400
H           -0.81860661529544       -2.69539926546611       -0.83966026771685
H           -2.32784552259365       -2.56256713381399        0.07779509408467
H            1.25674768771830       -2.20191244560750        0.01256631575601
