      -----------------------------------------------------------      
     |                   =====================                   |     
     |                           x T B                           |     
     |                   =====================                   |     
     |                         S. Grimme                         |     
     |          Mulliken Center for Theoretical Chemistry        |     
     |                    University of Bonn                     |     
      -----------------------------------------------------------      

   * xtb version 6.6.1 (8d0f1dd) compiled by 'conda@1efc2f54142f' on 2023-08-01

   xtb is free software: you can redistribute it and/or modify it under
   the terms of the GNU Lesser General Public License as published by
   the Free Software Foundation, either version 3 of the License, or
   (at your option) any later version.
   
   xtb is distributed in the hope that it will be useful,
   but WITHOUT ANY WARRANTY; without even the implied warranty of
   MERCHANTABILITY or FITNESS FOR A PARTICULAR PURPOSE.  See the
   GNU Lesser General Public License for more details.
   
   Cite this work as:
   * C. Bannwarth, E. Caldeweyher, S. Ehlert, A. Hansen, P. Pracht,
     J. Seibert, S. Spicher, S. Grimme, WIREs Comput. Mol. Sci., 2020, 11,
     e01493. DOI: 10.1002/wcms.1493
   
   for GFN2-xTB:
   * C. Bannwarth, S. Ehlert and S. Grimme., J. Chem. Theory Comput., 2019,
     15, 1652-1671. DOI: 10.1021/acs.jctc.8b01176
   for GFN1-xTB:
   * S. Grimme, C. Bannwarth, P. Shushkov, J. Chem. Theory Comput., 2017,
     13, 1989-2009. DOI: 10.1021/acs.jctc.7b00118
   for GFN0-xTB:
   * P. Pracht, E. Caldeweyher, S. Ehlert, S. Grimme, ChemRxiv, 2019, preprint.
     DOI: 10.26434/chemrxiv.8326202.v1
   for GFN-FF:
   * S. Spicher and S. Grimme, Angew. Chem. Int. Ed., 2020, 59, 15665-15673.
     DOI: 10.1002/anie.202004239
   
   for ALPB and GBSA implicit solvation:
   * S. Ehlert, M. Stahn, S. Spicher, S. Grimme, J. Chem. Theory Comput.,
     2021, 17, 4250-4261. DOI: 10.1021/acs.jctc.1c00471
   
   for DFT-D4:
   * E. Caldeweyher, C. Bannwarth and S. Grimme, J. Chem. Phys., 2017,
     147, 034112. DOI: 10.1063/1.4993215
   * E. Caldeweyher, S. Ehlert, A. Hansen, H. Neugebauer, S. Spicher,
     C. Bannwarth and S. Grimme, J. Chem. Phys., 2019, 150, 154122.
     DOI: 10.1063/1.5090222
   * E. Caldeweyher, J.-M. Mewes, S. Ehlert and S. Grimme, Phys. Chem. Chem. Phys.
     2020, 22, 8499-8512. DOI: 10.1039/D0CP00502A
   
   for sTDA-xTB:
   * S. Grimme and C. Bannwarth, J. Chem. Phys., 2016, 145, 054103.
     DOI: 10.1063/1.4959605
   
   in the mass-spec context:
   * V. Asgeirsson, C. Bauer and S. Grimme, Chem. Sci., 2017, 8, 4879.
     DOI: 10.1039/c7sc00601b
   * J. Koopman and S. Grimme, ACS Omega 2019, 4, 12, 15120-15133.
     DOI: 10.1021/acsomega.9b02011
   
   for metadynamics refer to:
   * S. Grimme, J. Chem. Theory Comput., 2019, 155, 2847-2862
     DOI: 10.1021/acs.jctc.9b00143
   
   for SPH calculations refer to:
   * S. Spicher and S. Grimme, J. Chem. Theory Comput., 2021, 17, 1701-1714
     DOI: 10.1021/acs.jctc.0c01306
   
   with help from (in alphabetical order)
   P. Atkinson, C. Bannwarth, F. Bohle, G. Brandenburg, E. Caldeweyher
   M. Checinski, S. Dohm, S. Ehlert, S. Ehrlich, I. Gerasimov, C. Hölzer
   A. Katbashev, J. Koopman, C. Lavigne, S. Lehtola, F. März, M. Müller,
   F. Musil, H. Neugebauer, J. Pisarek, C. Plett, P. Pracht, F. Pultar,
   J. Seibert, P. Shushkov, S. Spicher, M. Stahn, M. Steiner, T. Strunk,
   J. Stückrath, T. Rose, and J. Unsleber
   
 * started run on 2024/06/05 at 19:58:51.410     

           -------------------------------------------------
          |                Calculation Setup                |
           -------------------------------------------------

          program call               : xtb struc.xyz --opt loose --input .xc1 --gfn2
          hostname                   : n-62-29-9
          coordinate file            : struc.xyz
          omp threads                :                     1

   ID    Z sym.   atoms
    1    6 C      1, 3, 5-7, 10, 11, 14
    2    7 N      2, 4, 9, 13
    3    8 O      8, 12
    4    1 H      15-25
constraining bond 11 12 to    3.7600000 Å, actual value:    1.1960413 Å

           -------------------------------------------------
          |                 G F N 2 - x T B                 |
           -------------------------------------------------

        Reference                      10.1021/acs.jctc.8b01176
      * Hamiltonian:
        H0-scaling (s, p, d)           1.850000    2.230000    2.230000
        zeta-weighting                 0.500000
      * Dispersion:
        s8                             2.700000
        a1                             0.520000
        a2                             5.000000
        s9                             5.000000
      * Repulsion:
        kExp                           1.500000    1.000000
        rExp                           1.000000
      * Coulomb:
        alpha                          2.000000
        third order                    shell-resolved
        anisotropic                    true
        a3                             3.000000
        a5                             4.000000
        cn-shift                       1.200000
        cn-exp                         4.000000
        max-rad                        5.000000


          ...................................................
          :                      SETUP                      :
          :.................................................:
          :  # basis functions                  67          :
          :  # atomic orbitals                  67          :
          :  # shells                           39          :
          :  # electrons                        74          :
          :  max. iterations                   250          :
          :  Hamiltonian                  GFN2-xTB          :
          :  restarted?                      false          :
          :  GBSA solvation                  false          :
          :  PC potential                    false          :
          :  electronic temp.         7500.0000000     K    :
          :  accuracy                    1.0000000          :
          :  -> integral cutoff          0.2500000E+02      :
          :  -> integral neglect         0.1000000E-07      :
          :  -> SCF convergence          0.1000000E-05 Eh   :
          :  -> wf. convergence          0.1000000E-03 e    :
          :  Broyden damping             0.4000000          :
          ...................................................

 iter      E             dE          RMSdq      gap      omega  full diag
   1    -42.5960780 -0.425961E+02  0.440E+00    3.52       0.0  T
   2    -42.7780033 -0.181925E+00  0.248E+00    3.37       1.0  T
   3    -42.7871777 -0.917437E-02  0.149E+00    3.50       1.0  T
   4    -42.7817164  0.546128E-02  0.642E-01    3.42       1.0  T
   5    -42.7911189 -0.940247E-02  0.115E-01    3.49       1.0  T
   6    -42.7912109 -0.920486E-04  0.685E-02    3.46       1.0  T
   7    -42.7912647 -0.537856E-04  0.265E-02    3.48       1.0  T
   8    -42.7912686 -0.385526E-05  0.113E-02    3.47       1.8  T
   9    -42.7912697 -0.111307E-05  0.441E-03    3.47       4.5  T
  10    -42.7912698 -0.733569E-07  0.139E-03    3.47      14.4  T
  11    -42.7912698 -0.243437E-08  0.602E-04    3.47      33.2  T
  12    -42.7912698 -0.222032E-08  0.181E-04    3.47     110.6  T

   *** convergence criteria satisfied after 12 iterations ***

         #    Occupation            Energy/Eh            Energy/eV
      -------------------------------------------------------------
         1        2.0000           -0.9116047             -24.8060
       ...           ...                  ...                  ...
        31        1.9942           -0.6212459             -16.9050
        32        1.9930           -0.6166804             -16.7807
        33        1.9876           -0.6031136             -16.4116
        34        1.9710           -0.5827317             -15.8569
        35        1.9403           -0.5651917             -15.3796
        36        1.9387           -0.5645672             -15.3627
        37        1.9155           -0.5566412             -15.1470 (HOMO)
        38        0.1907           -0.4290919             -11.6762 (LUMO)
        39        0.0640           -0.4015676             -10.9272
        40        0.0206           -0.3740689             -10.1789
        41        0.0006           -0.2879107              -7.8344
        42        0.0000           -0.2065811              -5.6214
       ...           ...                  ...                  ...
        67                          0.5613577              15.2753
      -------------------------------------------------------------
                  HL-Gap            0.1275493 Eh            3.4708 eV
             Fermi-level           -0.4825284 Eh          -13.1303 eV

 SCC (total)                   0 d,  0 h,  0 min,  0.035 sec
 SCC setup                      ...        0 min,  0.000 sec (  1.212%)
 Dispersion                     ...        0 min,  0.001 sec (  1.553%)
 classical contributions        ...        0 min,  0.000 sec (  0.419%)
 integral evaluation            ...        0 min,  0.005 sec ( 14.264%)
 iterations                     ...        0 min,  0.018 sec ( 49.594%)
 molecular gradient             ...        0 min,  0.011 sec ( 32.515%)
 printout                       ...        0 min,  0.000 sec (  0.397%)

         :::::::::::::::::::::::::::::::::::::::::::::::::::::
         ::                     SUMMARY                     ::
         :::::::::::::::::::::::::::::::::::::::::::::::::::::
         :: total energy             -30.522169221049 Eh    ::
         :: gradient norm              6.864457200011 Eh/a0 ::
         :: HOMO-LUMO gap              3.470793873671 eV    ::
         ::.................................................::
         :: SCC energy               -42.791269777655 Eh    ::
         :: -> isotropic ES            0.136760385929 Eh    ::
         :: -> anisotropic ES         -0.005341405309 Eh    ::
         :: -> anisotropic XC          0.011501049227 Eh    ::
         :: -> dispersion             -0.022650340738 Eh    ::
         :: repulsion energy           0.531105277918 Eh    ::
         :: add. restraining          11.737881119679 Eh    ::
         :: total charge               1.000000000010 e     ::
         :::::::::::::::::::::::::::::::::::::::::::::::::::::

      ----------------------------------------------------------- 
     |                   =====================                   |
     |                        A N C O P T                        |
     |                   =====================                   |
     |               Approximate Normal Coordinate               |
     |                Rational Function Optimizer                |
      ----------------------------------------------------------- 

          ...................................................
          :                      SETUP                      :
          :.................................................:
          :   optimization level             loose          :
          :   max. optcycles                   200          :
          :   ANC micro-cycles                  20          :
          :   degrees of freedom                69          :
          :.................................................:
          :   RF solver                   davidson          :
          :   write xtbopt.log                true          :
          :   linear?                        false          :
          :   energy convergence         0.5000000E-04 Eh   :
          :   grad. convergence          0.4000000E-02 Eh/α :
          :   maxmium RF displ.          1.0000000          :
          :   Hlow (freq-cutoff)         0.1000000E-01      :
          :   Hmax (freq-cutoff)         5.0000000          :
          :   S6 in model hess.         20.0000000          :
          ...................................................

generating ANC from model Hessian ...
Using Lindh-Hessian (1995)
 Shifting diagonal of input Hessian by    4.1198850655685639     
 Lowest  eigenvalues of input Hessian
    0.010000    0.727076    0.000000    0.000000    0.000000    0.000000
    0.000000    0.000000    4.122679    4.124530    4.126264    4.128620
    4.129679    4.131463    4.131693    4.134735    4.139859    4.143083
 Highest eigenvalues
    6.210051    6.273036    6.340480    6.460448    6.554777    8.455363


........................................................................
.............................. CYCLE    1 ..............................
........................................................................

 iter      E             dE          RMSdq      gap      omega  full diag
   1    -42.7912698 -0.427913E+02  0.838E-05    3.47       0.0  T
   2    -42.7912698 -0.247127E-10  0.452E-05    3.47     442.9  T
   3    -42.7912698 -0.149214E-11  0.279E-05    3.47     715.8  T
     SCC iter.                  ...        0 min,  0.005 sec
     gradient                   ...        0 min,  0.011 sec
 * total energy  :   -30.5221692 Eh     change       -0.2401990E-09 Eh
   gradient norm :     6.8644585 Eh/α   predicted     0.0000000E+00 (-100.00%)
   displ. norm   :     0.7001527 α      lambda       -0.4805924E+01
   maximum displ.:     0.6917417 α      in ANC's #50, #61, #63, ...

........................................................................
.............................. CYCLE    2 ..............................
........................................................................

 iter      E             dE          RMSdq      gap      omega  full diag
   1    -42.6043654 -0.426044E+02  0.164E+00    3.31       0.0  T
   2    -42.5231343  0.812311E-01  0.200E+00    1.22       1.0  T
   3    -42.6399396 -0.116805E+00  0.818E-01    3.08       1.0  T
   4    -42.6578365 -0.178969E-01  0.433E-01    2.39       1.0  T
   5    -42.6569629  0.873585E-03  0.270E-01    2.27       1.0  T
   6    -42.6590868 -0.212387E-02  0.110E-01    2.40       1.0  T
   7    -42.6594424 -0.355688E-03  0.377E-02    2.44       1.0  T
   8    -42.6594823 -0.398602E-04  0.123E-02    2.47       1.6  T
   9    -42.6594819  0.405780E-06  0.796E-03    2.47       2.5  T
  10    -42.6594833 -0.136653E-05  0.227E-03    2.47       8.8  T
  11    -42.6594833 -0.981085E-08  0.140E-03    2.47      14.2  T
  12    -42.6594833 -0.566749E-07  0.348E-04    2.47      57.5  T
  13    -42.6594833 -0.226104E-08  0.138E-04    2.47     144.8  T
     SCC iter.                  ...        0 min,  0.019 sec
     gradient                   ...        0 min,  0.011 sec
 * total energy  :   -34.6934119 Eh     change       -0.4171243E+01 Eh
   gradient norm :     5.1961024 Eh/α   predicted    -0.3581090E+01 ( -14.15%)
   displ. norm   :     0.7970621 α      lambda       -0.4140377E+01
   maximum displ.:     0.7846621 α      in ANC's #50, #61, #63, ...

........................................................................
.............................. CYCLE    3 ..............................
........................................................................

 iter      E             dE          RMSdq      gap      omega  full diag
   1    -42.5236320 -0.425236E+02  0.102E+00    1.43       0.0  T
   2    -42.5164384  0.719368E-02  0.915E-01    1.80       1.0  T
   3    -42.5108671  0.557125E-02  0.811E-01    1.29       1.0  T
   4    -42.5056233  0.524381E-02  0.781E-01    1.76       1.0  T
   5    -42.5312551 -0.256318E-01  0.203E-01    1.55       1.0  T
   6    -42.5324513 -0.119618E-02  0.477E-02    1.54       1.0  T
   7    -42.5324860 -0.347433E-04  0.196E-02    1.54       1.0  T
   8    -42.5324867 -0.678071E-06  0.118E-02    1.54       1.7  T
   9    -42.5324889 -0.216580E-05  0.373E-03    1.54       5.4  T
  10    -42.5324887  0.152851E-06  0.340E-03    1.54       5.9  T
  11    -42.5324890 -0.321210E-06  0.107E-03    1.54      18.8  T
  12    -42.5324891 -0.282434E-07  0.169E-04    1.54     118.6  T
  13    -42.5324891 -0.491717E-09  0.657E-05    1.54     304.3  T
     SCC iter.                  ...        0 min,  0.018 sec
     gradient                   ...        0 min,  0.011 sec
 * total energy  :   -38.2224356 Eh     change       -0.3529024E+01 Eh
   gradient norm :     3.6722578 Eh/α   predicted    -0.3386134E+01 (  -4.05%)
   displ. norm   :     0.7743002 α      lambda       -0.2842052E+01
   maximum displ.:     0.7570338 α      in ANC's #50, #61, #51, ...

........................................................................
.............................. CYCLE    4 ..............................
........................................................................

 iter      E             dE          RMSdq      gap      omega  full diag
   1    -42.4162194 -0.424162E+02  0.804E-01    1.29       0.0  T
   2    -42.3964705  0.197489E-01  0.936E-01    0.80       1.0  T
   3    -42.3936908  0.277962E-02  0.798E-01    1.51       1.0  T
   4    -42.3838745  0.981638E-02  0.910E-01    0.87       1.0  T
   5    -42.4220021 -0.381276E-01  0.705E-02    1.13       1.0  T
   6    -42.4220983 -0.962098E-04  0.266E-02    1.13       1.0  T
   7    -42.4221175 -0.191427E-04  0.154E-02    1.13       1.3  T
   8    -42.4221223 -0.481275E-05  0.743E-03    1.13       2.7  T
   9    -42.4221240 -0.172093E-05  0.189E-03    1.13      10.6  T
  10    -42.4221241 -0.805810E-07  0.930E-04    1.13      21.5  T
  11    -42.4221241 -0.852733E-08  0.537E-04    1.13      37.2  T
     SCC iter.                  ...        0 min,  0.015 sec
     gradient                   ...        0 min,  0.011 sec
 * total energy  :   -40.4910909 Eh     change       -0.2268655E+01 Eh
   gradient norm :     2.1843773 Eh/α   predicted    -0.2273678E+01 (   0.22%)
   displ. norm   :     0.6537650 α      lambda       -0.1426776E+01
   maximum displ.:     0.6365120 α      in ANC's #50, #61, #51, ...

........................................................................
.............................. CYCLE    5 ..............................
........................................................................

 iter      E             dE          RMSdq      gap      omega  full diag
   1    -42.3104915 -0.423105E+02  0.115E+00    0.96       0.0  T
   2    -42.1631265  0.147365E+00  0.174E+00    2.12       1.0  T
   3    -42.1318349  0.312916E-01  0.205E+00    0.42       1.0  T
   4    -42.3242943 -0.192459E+00  0.230E-01    1.21       1.0  T
   5    -42.3234399  0.854446E-03  0.220E-01    1.12       1.0  T
   6    -42.3242344 -0.794528E-03  0.132E-01    1.12       1.0  T
   7    -42.3250242 -0.789792E-03  0.501E-02    1.16       1.0  T
   8    -42.3251344 -0.110199E-03  0.723E-03    1.18       2.8  T
   9    -42.3251332  0.116854E-05  0.594E-03    1.18       3.4  T
  10    -42.3251350 -0.175095E-05  0.737E-04    1.18      27.1  T
  11    -42.3251350  0.268598E-08  0.673E-04    1.18      29.7  T
  12    -42.3251350 -0.182215E-07  0.130E-04    1.18     153.7  T
     SCC iter.                  ...        0 min,  0.017 sec
     gradient                   ...        0 min,  0.011 sec
 * total energy  :   -41.5026454 Eh     change       -0.1011555E+01 Eh
   gradient norm :     0.9115357 Eh/α   predicted    -0.1019121E+01 (   0.75%)
   displ. norm   :     0.3956776 α      lambda       -0.3604866E+00
   maximum displ.:     0.3786090 α      in ANC's #50, #61, #41, ...

........................................................................
.............................. CYCLE    6 ..............................
........................................................................

 iter      E             dE          RMSdq      gap      omega  full diag
   1    -42.2460852 -0.422461E+02  0.114E+00    0.60       0.0  T
   2    -41.9576849  0.288400E+00  0.252E+00    2.35       1.0  T
   3    -42.2159818 -0.258297E+00  0.111E+00    0.50       1.0  T
   4    -42.2709725 -0.549907E-01  0.348E-01    1.02       1.0  T
   5    -42.2738807 -0.290815E-02  0.168E-01    0.92       1.0  T
   6    -42.2740220 -0.141353E-03  0.105E-01    0.90       1.0  T
   7    -42.2745425 -0.520470E-03  0.198E-02    0.93       1.0  T
   8    -42.2745583 -0.158360E-04  0.522E-03    0.94       3.8  T
   9    -42.2745585 -0.192755E-06  0.226E-03    0.94       8.9  T
  10    -42.2745585 -0.180920E-07  0.149E-03    0.94      13.4  T
  11    -42.2745586 -0.692774E-07  0.708E-04    0.94      28.2  T
  12    -42.2745586 -0.149050E-07  0.209E-04    0.94      95.9  T
     SCC iter.                  ...        0 min,  0.017 sec
     gradient                   ...        0 min,  0.011 sec
 * total energy  :   -41.7103279 Eh     change       -0.2076824E+00 Eh
   gradient norm :     0.2277327 Eh/α   predicted    -0.2084626E+00 (   0.38%)
   displ. norm   :     0.0956721 α      lambda       -0.1847837E-01
   maximum displ.:     0.0631784 α      in ANC's #50, #1, #39, ...

........................................................................
.............................. CYCLE    7 ..............................
........................................................................

 iter      E             dE          RMSdq      gap      omega  full diag
   1    -42.2706158 -0.422706E+02  0.197E-01    0.82       0.0  T
   2    -42.2413640  0.292518E-01  0.784E-01    1.26       1.0  T
   3    -42.2719760 -0.306120E-01  0.803E-02    0.88       1.0  T
   4    -42.2720713 -0.952687E-04  0.532E-02    0.92       1.0  T
   5    -42.2721483 -0.769864E-04  0.315E-02    0.90       1.0  T
   6    -42.2721656 -0.173065E-04  0.794E-03    0.90       2.5  T
   7    -42.2721679 -0.231339E-05  0.200E-03    0.90      10.0  T
   8    -42.2721679  0.316819E-07  0.173E-03    0.90      11.6  T
   9    -42.2721680 -0.850798E-07  0.499E-04    0.90      40.1  T
  10    -42.2721680 -0.651136E-08  0.123E-04    0.90     162.1  T
     SCC iter.                  ...        0 min,  0.014 sec
     gradient                   ...        0 min,  0.011 sec
 * total energy  :   -41.7242298 Eh     change       -0.1390197E-01 Eh
   gradient norm :     0.1925339 Eh/α   predicted    -0.9546840E-02 ( -31.33%)
   displ. norm   :     0.2638598 α      lambda       -0.2245419E-01
   maximum displ.:     0.2254742 α      in ANC's #1, #39, #41, ...

........................................................................
.............................. CYCLE    8 ..............................
........................................................................

 iter      E             dE          RMSdq      gap      omega  full diag
   1    -42.2747535 -0.422748E+02  0.433E-01    0.73       0.0  T
   2    -42.1759862  0.987672E-01  0.145E+00    1.57       1.0  T
   3    -42.2800220 -0.104036E+00  0.203E-01    0.86       1.0  T
   4    -42.2786314  0.139063E-02  0.216E-01    0.93       1.0  T
   5    -42.2802573 -0.162586E-02  0.509E-02    0.85       1.0  T
   6    -42.2803467 -0.894280E-04  0.123E-02    0.86       1.6  T
   7    -42.2803516 -0.489589E-05  0.454E-03    0.87       4.4  T
   8    -42.2803520 -0.409085E-06  0.241E-03    0.87       8.3  T
   9    -42.2803521 -0.122439E-06  0.543E-04    0.87      36.8  T
  10    -42.2803521 -0.515799E-08  0.260E-04    0.87      77.1  T
     SCC iter.                  ...        0 min,  0.014 sec
     gradient                   ...        0 min,  0.011 sec
 * total energy  :   -41.7437062 Eh     change       -0.1947637E-01 Eh
   gradient norm :     0.2171230 Eh/α   predicted    -0.1200878E-01 ( -38.34%)
   displ. norm   :     0.7356334 α      lambda       -0.5233392E-01
   maximum displ.:     0.6654640 α      in ANC's #1, #39, #41, ...

........................................................................
.............................. CYCLE    9 ..............................
........................................................................

 iter      E             dE          RMSdq      gap      omega  full diag
   1    -42.1598561 -0.421599E+02  0.193E+00    0.02       0.0  T
   2    -41.3649706  0.794886E+00  0.444E+00    2.84       1.0  T
   3    -42.2734198 -0.908449E+00  0.103E+00    1.05       1.0  T
   4    -42.2926633 -0.192434E-01  0.677E-01    0.39       1.0  T
   5    -42.2803420  0.123213E-01  0.736E-01    0.32       1.0  T
   6    -42.2997659 -0.194239E-01  0.403E-01    0.82       1.0  T
   7    -42.3080049 -0.823899E-02  0.469E-02    0.67       1.0  T
   8    -42.3081132 -0.108290E-03  0.801E-03    0.65       2.5  T
   9    -42.3081059  0.725774E-05  0.124E-02    0.66       1.6  T
  10    -42.3081126 -0.672060E-05  0.473E-03    0.65       4.2  T
  11    -42.3081133 -0.688602E-06  0.285E-03    0.65       7.0  T
  12    -42.3081137 -0.411138E-06  0.514E-04    0.65      38.9  T
  13    -42.3081137 -0.380108E-08  0.368E-04    0.65      54.4  T
     SCC iter.                  ...        0 min,  0.018 sec
     gradient                   ...        0 min,  0.011 sec
 * total energy  :   -41.7745895 Eh     change       -0.3088329E-01 Eh
   gradient norm :     0.4293483 Eh/α   predicted    -0.4032755E-01 (  30.58%)
   displ. norm   :     0.5477074 α      lambda       -0.7937412E-01
   maximum displ.:     0.3153862 α      in ANC's #1, #39, #41, ...

........................................................................
.............................. CYCLE   10 ..............................
........................................................................

 iter      E             dE          RMSdq      gap      omega  full diag
   1    -42.3270491 -0.423270E+02  0.109E+00    0.80       0.0  T
   2    -42.2353042  0.917449E-01  0.155E+00    1.52       1.0  T
   3    -42.2595116 -0.242074E-01  0.123E+00    0.40       1.0  T
   4    -42.3111629 -0.516513E-01  0.896E-01    1.19       1.0  T
   5    -42.3339464 -0.227835E-01  0.335E-01    1.02       1.0  T
   6    -42.3385007 -0.455430E-02  0.111E-01    0.93       1.0  T
   7    -42.3389478 -0.447068E-03  0.286E-02    0.91       1.0  T
   8    -42.3389698 -0.220625E-04  0.125E-02    0.90       1.6  T
   9    -42.3389726 -0.279180E-05  0.442E-03    0.90       4.5  T
  10    -42.3389732 -0.540488E-06  0.142E-03    0.90      14.0  T
  11    -42.3389732 -0.436008E-07  0.574E-04    0.90      34.9  T
  12    -42.3389732 -0.129301E-08  0.311E-04    0.90      64.3  T
     SCC iter.                  ...        0 min,  0.017 sec
     gradient                   ...        0 min,  0.011 sec
 * total energy  :   -41.8192661 Eh     change       -0.4467662E-01 Eh
   gradient norm :     0.2232345 Eh/α   predicted    -0.5159463E-01 (  15.48%)
   displ. norm   :     0.3695844 α      lambda       -0.2625312E-01
   maximum displ.:     0.2539309 α      in ANC's #1, #39, #41, ...

........................................................................
.............................. CYCLE   11 ..............................
........................................................................

 iter      E             dE          RMSdq      gap      omega  full diag
   1    -42.2668031 -0.422668E+02  0.123E+00    0.36       0.0  T
   2    -41.4959034  0.770900E+00  0.411E+00    2.69       1.0  T
   3    -42.3114394 -0.815536E+00  0.886E-01    1.17       1.0  T
   4    -42.3324805 -0.210411E-01  0.468E-01    1.02       1.0  T
   5    -42.3058349  0.266456E-01  0.817E-01    0.53       1.0  T
   6    -42.3353786 -0.295437E-01  0.334E-01    0.72       1.0  T
   7    -42.3412346 -0.585600E-02  0.531E-02    0.84       1.0  T
   8    -42.3413434 -0.108739E-03  0.239E-02    0.85       1.0  T
   9    -42.3413574 -0.139985E-04  0.161E-02    0.85       1.2  T
  10    -42.3413694 -0.119804E-04  0.346E-03    0.86       5.8  T
  11    -42.3413699 -0.524411E-06  0.829E-04    0.86      24.1  T
  12    -42.3413698  0.751838E-07  0.137E-03    0.86      14.6  T
  13    -42.3413699 -0.967087E-07  0.123E-04    0.86     162.5  T
     SCC iter.                  ...        0 min,  0.018 sec
     gradient                   ...        0 min,  0.011 sec
 * total energy  :   -41.8400793 Eh     change       -0.2081315E-01 Eh
   gradient norm :     0.2250593 Eh/α   predicted    -0.1491975E-01 ( -28.32%)
   displ. norm   :     0.4022738 α      lambda       -0.3303649E-01
   maximum displ.:     0.3111341 α      in ANC's #1, #39, #41, ...

........................................................................
.............................. CYCLE   12 ..............................
........................................................................

 iter      E             dE          RMSdq      gap      omega  full diag
   1    -42.2473908 -0.422474E+02  0.138E+00    0.38       0.0  T
   2    -41.3491083  0.898283E+00  0.444E+00    2.70       1.0  T
   3    -42.3092299 -0.960122E+00  0.811E-01    1.20       1.0  T
   4    -42.3291099 -0.198799E-01  0.348E-01    1.00       1.0  T
   5    -42.3006025  0.285074E-01  0.778E-01    0.61       1.0  T
   6    -42.3303988 -0.297963E-01  0.225E-01    0.82       1.0  T
   7    -42.3330619 -0.266307E-02  0.161E-02    0.91       1.2  T
   8    -42.3330638 -0.191010E-05  0.108E-02    0.92       1.9  T
   9    -42.3330610  0.275137E-05  0.117E-02    0.91       1.7  T
  10    -42.3330664 -0.539766E-05  0.402E-03    0.91       5.0  T
  11    -42.3330670 -0.597976E-06  0.164E-03    0.91      12.2  T
  12    -42.3330671 -0.125302E-06  0.320E-04    0.91      62.6  T
  13    -42.3330671 -0.137399E-08  0.221E-04    0.91      90.5  T
     SCC iter.                  ...        0 min,  0.018 sec
     gradient                   ...        0 min,  0.011 sec
 * total energy  :   -41.8646234 Eh     change       -0.2454410E-01 Eh
   gradient norm :     0.1892797 Eh/α   predicted    -0.1919148E-01 ( -21.81%)
   displ. norm   :     0.2714435 α      lambda       -0.3116230E-01
   maximum displ.:     0.1850518 α      in ANC's #1, #50, #67, ...

........................................................................
.............................. CYCLE   13 ..............................
........................................................................

 iter      E             dE          RMSdq      gap      omega  full diag
   1    -42.3113016 -0.423113E+02  0.797E-01    0.46       0.0  T
   2    -41.8632286  0.448073E+00  0.304E+00    2.24       1.0  T
   3    -42.3320139 -0.468785E+00  0.316E-01    0.69       1.0  T
   4    -42.3279330  0.408094E-02  0.382E-01    0.83       1.0  T
   5    -42.3332748 -0.534182E-02  0.141E-01    0.69       1.0  T
   6    -42.3339092 -0.634416E-03  0.439E-02    0.70       1.0  T
   7    -42.3339931 -0.838816E-04  0.943E-03    0.72       2.1  T
   8    -42.3339921  0.100198E-05  0.779E-03    0.72       2.6  T
   9    -42.3339943 -0.223431E-05  0.181E-03    0.72      11.0  T
  10    -42.3339944 -0.352029E-07  0.982E-04    0.72      20.4  T
  11    -42.3339944 -0.152051E-07  0.604E-04    0.72      33.1  T
     SCC iter.                  ...        0 min,  0.016 sec
     gradient                   ...        0 min,  0.011 sec
 * total energy  :   -41.8868124 Eh     change       -0.2218906E-01 Eh
   gradient norm :     0.1557839 Eh/α   predicted    -0.1673106E-01 ( -24.60%)
   displ. norm   :     0.3514152 α      lambda       -0.2281998E-01
   maximum displ.:     0.2984308 α      in ANC's #1, #65, #67, ...

........................................................................
.............................. CYCLE   14 ..............................
........................................................................

 iter      E             dE          RMSdq      gap      omega  full diag
   1    -42.3188734 -0.423189E+02  0.750E-01    0.29       0.0  T
   2    -41.9343796  0.384494E+00  0.279E+00    1.82       1.0  T
   3    -42.3350620 -0.400682E+00  0.341E-01    0.45       1.0  T
   4    -42.3322724  0.278962E-02  0.338E-01    0.62       1.0  T
   5    -42.3357583 -0.348591E-02  0.192E-01    0.48       1.0  T
   6    -42.3368825 -0.112419E-02  0.438E-02    0.49       1.0  T
   7    -42.3369624 -0.798708E-04  0.156E-02    0.51       1.3  T
   8    -42.3369598  0.259585E-05  0.125E-02    0.51       1.6  T
   9    -42.3369660 -0.627499E-05  0.127E-03    0.51      15.7  T
  10    -42.3369660 -0.864826E-08  0.840E-04    0.50      23.8  T
  11    -42.3369661 -0.207727E-07  0.213E-04    0.51      93.9  T
     SCC iter.                  ...        0 min,  0.016 sec
     gradient                   ...        0 min,  0.011 sec
 * total energy  :   -41.9012127 Eh     change       -0.1440023E-01 Eh
   gradient norm :     0.1637299 Eh/α   predicted    -0.1281910E-01 ( -10.98%)
   displ. norm   :     0.2384334 α      lambda       -0.2038857E-01
   maximum displ.:     0.0915992 α      in ANC's #65, #47, #46, ...

........................................................................
.............................. CYCLE   15 ..............................
........................................................................

 iter      E             dE          RMSdq      gap      omega  full diag
   1    -42.3546028 -0.423546E+02  0.472E-01    0.62       0.0  T
   2    -42.1172170  0.237386E+00  0.225E+00    0.02       1.0  T
   3    -42.3615009 -0.244284E+00  0.259E-01    0.44       1.0  T
   4    -42.3601332  0.136772E-02  0.240E-01    0.40       1.0  T
   5    -42.3615451 -0.141195E-02  0.152E-01    0.47       1.0  T
   6    -42.3621618 -0.616654E-03  0.462E-02    0.46       1.0  T
   7    -42.3622416 -0.798666E-04  0.206E-02    0.47       1.0  T
   8    -42.3622509 -0.927264E-05  0.112E-02    0.48       1.8  T
   9    -42.3622547 -0.383187E-05  0.182E-03    0.48      11.0  T
  10    -42.3622548 -0.985440E-07  0.622E-04    0.48      32.1  T
  11    -42.3622548 -0.699751E-08  0.317E-04    0.48      63.1  T
     SCC iter.                  ...        0 min,  0.016 sec
     gradient                   ...        0 min,  0.011 sec
 * total energy  :   -41.9064761 Eh     change       -0.5263441E-02 Eh
   gradient norm :     0.1904737 Eh/α   predicted    -0.1077397E-01 ( 104.69%)
   displ. norm   :     0.1162469 α      lambda       -0.1154489E-01
   maximum displ.:     0.1066283 α      in ANC's #1, #67, #68, ...

........................................................................
.............................. CYCLE   16 ..............................
........................................................................

 iter      E             dE          RMSdq      gap      omega  full diag
   1    -42.3574391 -0.423574E+02  0.251E-01    0.36       0.0  T
   2    -42.2882097  0.692294E-01  0.119E+00    0.95       1.0  T
   3    -42.3598764 -0.716666E-01  0.118E-01    0.47       1.0  T
   4    -42.3594520  0.424314E-03  0.122E-01    0.49       1.0  T
   5    -42.3598963 -0.444243E-03  0.786E-02    0.45       1.0  T
   6    -42.3600578 -0.161490E-03  0.105E-02    0.45       1.9  T
   7    -42.3600605 -0.273066E-05  0.492E-03    0.45       4.1  T
   8    -42.3600606 -0.116088E-06  0.310E-03    0.45       6.5  T
   9    -42.3600608 -0.197551E-06  0.115E-03    0.45      17.4  T
  10    -42.3600609 -0.598871E-07  0.237E-04    0.45      84.6  T
  11    -42.3600609 -0.877066E-09  0.111E-04    0.45     179.7  T
     SCC iter.                  ...        0 min,  0.016 sec
     gradient                   ...        0 min,  0.011 sec
 * total energy  :   -41.9150917 Eh     change       -0.8615588E-02 Eh
   gradient norm :     0.1383322 Eh/α   predicted    -0.5851357E-02 ( -32.08%)
   displ. norm   :     0.1308077 α      lambda       -0.1423960E-01
   maximum displ.:     0.0684169 α      in ANC's #1, #67, #68, ...

........................................................................
.............................. CYCLE   17 ..............................
........................................................................

 iter      E             dE          RMSdq      gap      omega  full diag
   1    -42.3642570 -0.423643E+02  0.248E-01    0.34       0.0  T
   2    -42.3341483  0.301087E-01  0.799E-01    0.73       1.0  T
   3    -42.3648314 -0.306832E-01  0.169E-01    0.35       1.0  T
   4    -42.3654731 -0.641652E-03  0.105E-01    0.44       1.0  T
   5    -42.3656599 -0.186813E-03  0.795E-02    0.40       1.0  T
   6    -42.3658511 -0.191227E-03  0.180E-02    0.41       1.1  T
   7    -42.3658613 -0.101513E-04  0.872E-03    0.41       2.3  T
   8    -42.3658630 -0.169627E-05  0.402E-03    0.41       5.0  T
   9    -42.3658633 -0.321652E-06  0.154E-03    0.41      13.0  T
  10    -42.3658634 -0.982453E-07  0.269E-04    0.41      74.4  T
  11    -42.3658634 -0.601602E-09  0.127E-04    0.41     157.3  T
     SCC iter.                  ...        0 min,  0.016 sec
     gradient                   ...        0 min,  0.011 sec
 * total energy  :   -41.9255490 Eh     change       -0.1045731E-01 Eh
   gradient norm :     0.1068093 Eh/α   predicted    -0.7243651E-02 ( -30.73%)
   displ. norm   :     0.1783282 α      lambda       -0.1392601E-01
   maximum displ.:     0.0616473 α      in ANC's #31, #38, #67, ...

........................................................................
.............................. CYCLE   18 ..............................
........................................................................

 iter      E             dE          RMSdq      gap      omega  full diag
   1    -42.3788180 -0.423788E+02  0.321E-01    0.26       0.0  T
   2    -42.3698245  0.899353E-02  0.467E-01    0.48       1.0  T
   3    -42.3659364  0.388804E-02  0.537E-01    0.09       1.0  T
   4    -42.3793674 -0.134310E-01  0.103E-01    0.32       1.0  T
   5    -42.3795602 -0.192764E-03  0.417E-02    0.30       1.0  T
   6    -42.3796079 -0.476820E-04  0.140E-02    0.30       1.4  T
   7    -42.3796145 -0.667223E-05  0.795E-03    0.30       2.5  T
   8    -42.3796159 -0.141484E-05  0.364E-03    0.30       5.5  T
   9    -42.3796163 -0.359198E-06  0.588E-04    0.30      34.0  T
  10    -42.3796163 -0.670986E-08  0.305E-04    0.30      65.5  T
     SCC iter.                  ...        0 min,  0.014 sec
     gradient                   ...        0 min,  0.011 sec
 * total energy  :   -41.9353453 Eh     change       -0.9796310E-02 Eh
   gradient norm :     0.1063513 Eh/α   predicted    -0.7184709E-02 ( -26.66%)
   displ. norm   :     0.1769825 α      lambda       -0.9432865E-02
   maximum displ.:     0.0688236 α      in ANC's #38, #31, #33, ...

........................................................................
.............................. CYCLE   19 ..............................
........................................................................

 iter      E             dE          RMSdq      gap      omega  full diag
   1    -42.3927986 -0.423928E+02  0.320E-01    0.13       0.0  T
   2    -42.3873879  0.541063E-02  0.366E-01    0.31       1.0  T
   3    -42.3758003  0.115877E-01  0.607E-01    0.02       1.0  T
   4    -42.3928237 -0.170234E-01  0.874E-02    0.18       1.0  T
   5    -42.3930210 -0.197313E-03  0.358E-02    0.17       1.0  T
   6    -42.3930747 -0.536450E-04  0.114E-02    0.17       1.8  T
   7    -42.3930769 -0.224416E-05  0.637E-03    0.17       3.1  T
   8    -42.3930779 -0.101746E-05  0.244E-03    0.17       8.2  T
   9    -42.3930781 -0.146928E-06  0.452E-04    0.17      44.3  T
  10    -42.3930781 -0.456981E-08  0.209E-04    0.17      95.9  T
     SCC iter.                  ...        0 min,  0.014 sec
     gradient                   ...        0 min,  0.011 sec
 * total energy  :   -41.9421469 Eh     change       -0.6801587E-02 Eh
   gradient norm :     0.1266052 Eh/α   predicted    -0.4865156E-02 ( -28.47%)
   displ. norm   :     0.1826099 α      lambda       -0.8865871E-02
   maximum displ.:     0.0729372 α      in ANC's #31, #38, #33, ...

........................................................................
.............................. CYCLE   20 ..............................
........................................................................

 iter      E             dE          RMSdq      gap      omega  full diag
   1    -42.4077322 -0.424077E+02  0.334E-01    0.03       0.0  T
   2    -42.4066116  0.112051E-02  0.236E-01    0.11       1.0  T
   3    -42.3801966  0.264150E-01  0.753E-01    0.02       1.0  T
   4    -42.4071953 -0.269986E-01  0.129E-01    0.08       1.0  T
   5    -42.4078247 -0.629416E-03  0.477E-02    0.05       1.0  T
   6    -42.4079135 -0.887579E-04  0.590E-03    0.05       3.4  T
   7    -42.4079138 -0.336407E-06  0.369E-03    0.05       5.4  T
   8    -42.4079141 -0.302382E-06  0.122E-03    0.05      16.4  T
   9    -42.4079141 -0.275582E-07  0.359E-04    0.05      55.7  T
  10    -42.4079141 -0.281766E-08  0.167E-04    0.05     119.5  T
     SCC iter.                  ...        0 min,  0.014 sec
     gradient                   ...        0 min,  0.011 sec
 * total energy  :   -41.9490537 Eh     change       -0.6906815E-02 Eh
   gradient norm :     0.1543000 Eh/α   predicted    -0.4580789E-02 ( -33.68%)
   displ. norm   :     0.2712075 α      lambda       -0.1477173E-01
   maximum displ.:     0.1106640 α      in ANC's #31, #38, #33, ...
 * RMSD in coord.:     0.8168117 α      energy gain  -0.1142688E+02 Eh

generating ANC from model Hessian ...
Using Lindh-Hessian (1995)
 Shifting diagonal of input Hessian by    2.7837370243314431E-002
 Lowest  eigenvalues of input Hessian
    0.010000    0.011243    0.000000    0.000000    0.000000    0.000000
    0.000000    0.000000    0.030158    0.031239    0.033593    0.035872
    0.036470    0.037159    0.039274    0.042096    0.046340    0.048649
 Highest eigenvalues
    2.029190    2.086165    2.133184    2.207212    2.267248    2.454266


........................................................................
.............................. CYCLE   21 ..............................
........................................................................

 iter      E             dE          RMSdq      gap      omega  full diag
   1    -42.4309975 -0.424310E+02  0.481E-01    0.02       0.0  T
   2    -42.4305690  0.428504E-03  0.303E-01    0.01       1.0  T
   3    -42.4065001  0.240689E-01  0.722E-01    0.02       1.0  T
   4    -42.4287396 -0.222395E-01  0.249E-01    0.04       1.0  T
   5    -42.4312611 -0.252152E-02  0.112E-01    0.02       1.0  T
   6    -42.4317099 -0.448729E-03  0.120E-02    0.02       1.7  T
   7    -42.4317136 -0.376454E-05  0.487E-03    0.02       4.1  T
   8    -42.4317137 -0.118454E-06  0.258E-03    0.02       7.8  T
   9    -42.4317139 -0.107889E-06  0.677E-04    0.02      29.5  T
  10    -42.4317139 -0.151960E-07  0.249E-04    0.02      80.4  T
     SCC iter.                  ...        0 min,  0.014 sec
     gradient                   ...        0 min,  0.011 sec
 * total energy  :   -41.9602798 Eh     change       -0.1122612E-01 Eh
   gradient norm :     0.1771410 Eh/α   predicted     0.0000000E+00 (-100.00%)
   displ. norm   :     0.4047954 α      lambda       -0.3579541E-01
   maximum displ.:     0.2803782 α      in ANC's #19, #18, #23, ...

........................................................................
.............................. CYCLE   22 ..............................
........................................................................

 iter      E             dE          RMSdq      gap      omega  full diag
   1    -42.4641993 -0.424642E+02  0.471E-01    0.02       0.0  T
   2    -42.4433307  0.208686E-01  0.678E-01    0.19       1.0  T
   3    -42.4475702 -0.423951E-02  0.647E-01    0.02       1.0  T
   4    -42.4649738 -0.174036E-01  0.142E-01    0.02       1.0  T
   5    -42.4653561 -0.382355E-03  0.619E-02    0.02       1.0  T
   6    -42.4655210 -0.164826E-03  0.149E-02    0.02       1.3  T
   7    -42.4655263 -0.529543E-05  0.780E-03    0.02       2.6  T
   8    -42.4655271 -0.815202E-06  0.225E-03    0.02       8.9  T
   9    -42.4655272 -0.838889E-07  0.676E-04    0.02      29.6  T
  10    -42.4655272 -0.121557E-07  0.259E-04    0.02      77.3  T
     SCC iter.                  ...        0 min,  0.014 sec
     gradient                   ...        0 min,  0.011 sec
 * total energy  :   -41.9868208 Eh     change       -0.2654093E-01 Eh
   gradient norm :     0.0719425 Eh/α   predicted    -0.2084757E-01 ( -21.45%)
   displ. norm   :     0.4718083 α      lambda       -0.2093276E-01
   maximum displ.:     0.3223468 α      in ANC's #19, #18, #23, ...

........................................................................
.............................. CYCLE   23 ..............................
........................................................................

 iter      E             dE          RMSdq      gap      omega  full diag
   1    -42.4918107 -0.424918E+02  0.608E-01    0.02       0.0  T
   2    -42.4536343  0.381764E-01  0.908E-01    0.23       1.0  T
   3    -42.4700725 -0.164382E-01  0.759E-01    0.02       1.0  T
   4    -42.4930632 -0.229908E-01  0.192E-01    0.02       1.0  T
   5    -42.4941143 -0.105110E-02  0.571E-02    0.02       1.0  T
   6    -42.4942361 -0.121740E-03  0.186E-02    0.02       1.1  T
   7    -42.4942406 -0.459561E-05  0.119E-02    0.02       1.7  T
   8    -42.4942426 -0.190517E-05  0.313E-03    0.02       6.4  T
   9    -42.4942427 -0.171410E-06  0.773E-04    0.02      25.9  T
  10    -42.4942427 -0.113266E-07  0.356E-04    0.02      56.1  T
     SCC iter.                  ...        0 min,  0.014 sec
     gradient                   ...        0 min,  0.011 sec
 * total energy  :   -42.0006325 Eh     change       -0.1381175E-01 Eh
   gradient norm :     0.0511176 Eh/α   predicted    -0.1279625E-01 (  -7.35%)
   displ. norm   :     0.2905907 α      lambda       -0.5986484E-02
   maximum displ.:     0.1734876 α      in ANC's #19, #12, #18, ...

........................................................................
.............................. CYCLE   24 ..............................
........................................................................

 iter      E             dE          RMSdq      gap      omega  full diag
   1    -42.5015373 -0.425015E+02  0.346E-01    0.01       0.0  T
   2    -42.4907360  0.108013E-01  0.487E-01    0.01       1.0  T
   3    -42.4946373 -0.390130E-02  0.425E-01    0.01       1.0  T
   4    -42.5020743 -0.743700E-02  0.707E-02    0.01       1.0  T
   5    -42.5022090 -0.134718E-03  0.199E-02    0.01       1.0  T
   6    -42.5022225 -0.135086E-04  0.762E-03    0.01       2.6  T
   7    -42.5022236 -0.107110E-05  0.456E-03    0.01       4.4  T
   8    -42.5022239 -0.296829E-06  0.133E-03    0.01      15.0  T
   9    -42.5022239 -0.261837E-07  0.329E-04    0.01      60.9  T
  10    -42.5022239 -0.189923E-08  0.155E-04    0.01     128.9  T
     SCC iter.                  ...        0 min,  0.014 sec
     gradient                   ...        0 min,  0.011 sec
 * total energy  :   -42.0047636 Eh     change       -0.4131051E-02 Eh
   gradient norm :     0.0403944 Eh/α   predicted    -0.3246053E-02 ( -21.42%)
   displ. norm   :     0.2400337 α      lambda       -0.3294329E-02
   maximum displ.:     0.1060163 α      in ANC's #12, #19, #5, ...

........................................................................
.............................. CYCLE   25 ..............................
........................................................................

 iter      E             dE          RMSdq      gap      omega  full diag
   1    -42.5056180 -0.425056E+02  0.206E-01    0.01       0.0  T
   2    -42.5049230  0.695033E-03  0.163E-01    0.01       1.0  T
   3    -42.4992335  0.568947E-02  0.365E-01    0.01       1.0  T
   4    -42.5055583 -0.632483E-02  0.522E-02    0.01       1.0  T
   5    -42.5056804 -0.122070E-03  0.110E-02    0.01       1.8  T
   6    -42.5056845 -0.406881E-05  0.316E-03    0.01       6.3  T
   7    -42.5056845 -0.988282E-07  0.185E-03    0.01      10.8  T
   8    -42.5056846 -0.366578E-07  0.651E-04    0.01      30.7  T
   9    -42.5056846 -0.836480E-08  0.177E-04    0.01     113.3  T
     SCC iter.                  ...        0 min,  0.013 sec
     gradient                   ...        0 min,  0.011 sec
 * total energy  :   -42.0071023 Eh     change       -0.2338686E-02 Eh
   gradient norm :     0.0260883 Eh/α   predicted    -0.1742100E-02 ( -25.51%)
   displ. norm   :     0.2327473 α      lambda       -0.1980718E-02
   maximum displ.:     0.1058947 α      in ANC's #5, #2, #12, ...

........................................................................
.............................. CYCLE   26 ..............................
........................................................................

 iter      E             dE          RMSdq      gap      omega  full diag
   1    -42.5073094 -0.425073E+02  0.164E-01    0.01       0.0  T
   2    -42.5071950  0.114488E-03  0.113E-01    0.01       1.0  T
   3    -42.5047397  0.245529E-02  0.233E-01    0.01       1.0  T
   4    -42.5067787 -0.203903E-02  0.106E-01    0.01       1.0  T
   5    -42.5073455 -0.566756E-03  0.107E-02    0.01       1.9  T
   6    -42.5073496 -0.411199E-05  0.333E-03    0.01       6.0  T
   7    -42.5073497 -0.933700E-07  0.211E-03    0.01       9.5  T
   8    -42.5073497 -0.654445E-07  0.489E-04    0.01      40.9  T
   9    -42.5073497 -0.545763E-08  0.164E-04    0.01     122.1  T
     SCC iter.                  ...        0 min,  0.013 sec
     gradient                   ...        0 min,  0.011 sec
 * total energy  :   -42.0084586 Eh     change       -0.1356294E-02 Eh
   gradient norm :     0.0138121 Eh/α   predicted    -0.1044017E-02 ( -23.02%)
   displ. norm   :     0.2075168 α      lambda       -0.8835450E-03
   maximum displ.:     0.1256009 α      in ANC's #2, #5, #11, ...

........................................................................
.............................. CYCLE   27 ..............................
........................................................................

 iter      E             dE          RMSdq      gap      omega  full diag
   1    -42.5081032 -0.425081E+02  0.126E-01    0.01       0.0  T
   2    -42.5077383  0.364842E-03  0.113E-01    0.01       1.0  T
   3    -42.5064057  0.133261E-02  0.193E-01    0.01       1.0  T
   4    -42.5080535 -0.164778E-02  0.472E-02    0.01       1.0  T
   5    -42.5081392 -0.857311E-04  0.109E-02    0.01       1.8  T
   6    -42.5081440 -0.479715E-05  0.259E-03    0.01       7.7  T
   7    -42.5081441 -0.107459E-06  0.158E-03    0.01      12.7  T
   8    -42.5081442 -0.299499E-07  0.390E-04    0.01      51.3  T
   9    -42.5081442 -0.384122E-08  0.109E-04    0.01     183.1  T
     SCC iter.                  ...        0 min,  0.013 sec
     gradient                   ...        0 min,  0.011 sec
 * total energy  :   -42.0090644 Eh     change       -0.6058770E-03 Eh
   gradient norm :     0.0075751 Eh/α   predicted    -0.4607983E-03 ( -23.95%)
   displ. norm   :     0.1932367 α      lambda       -0.4365102E-03
   maximum displ.:     0.1466017 α      in ANC's #2, #5, #13, ...

........................................................................
.............................. CYCLE   28 ..............................
........................................................................

 iter      E             dE          RMSdq      gap      omega  full diag
   1    -42.5094316 -0.425094E+02  0.893E-02    0.01       0.0  T
   2    -42.5083856  0.104599E-02  0.153E-01    0.01       1.0  T
   3    -42.5092272 -0.841585E-03  0.846E-02    0.01       1.0  T
   4    -42.5094741 -0.246883E-03  0.265E-02    0.01       1.0  T
   5    -42.5094985 -0.244772E-04  0.618E-03    0.01       3.2  T
   6    -42.5094999 -0.135131E-05  0.180E-03    0.01      11.1  T
   7    -42.5094999 -0.458551E-07  0.113E-03    0.01      17.7  T
   8    -42.5095000 -0.178915E-07  0.300E-04    0.01      66.7  T
   9    -42.5095000 -0.200814E-08  0.971E-05    0.01     206.0  T
     SCC iter.                  ...        0 min,  0.013 sec
     gradient                   ...        0 min,  0.011 sec
 * total energy  :   -42.0093726 Eh     change       -0.3081284E-03 Eh
   gradient norm :     0.0080126 Eh/α   predicted    -0.2264108E-03 ( -26.52%)
   displ. norm   :     0.2073084 α      lambda       -0.2843678E-03
   maximum displ.:     0.1709386 α      in ANC's #2, #5, #1, ...

........................................................................
.............................. CYCLE   29 ..............................
........................................................................

 iter      E             dE          RMSdq      gap      omega  full diag
   1    -42.5103836 -0.425104E+02  0.584E-02    0.01       0.0  T
   2    -42.5097477  0.635925E-03  0.118E-01    0.01       1.0  T
   3    -42.5103517 -0.604032E-03  0.465E-02    0.01       1.0  T
   4    -42.5104217 -0.700523E-04  0.734E-03    0.01       2.7  T
   5    -42.5104227 -0.970867E-06  0.410E-03    0.01       4.9  T
   6    -42.5104233 -0.620260E-06  0.129E-03    0.01      15.5  T
   7    -42.5104234 -0.422623E-07  0.665E-04    0.01      30.1  T
   8    -42.5104234 -0.537553E-08  0.155E-04    0.01     129.0  T
     SCC iter.                  ...        0 min,  0.012 sec
     gradient                   ...        0 min,  0.011 sec
 * total energy  :   -42.0095883 Eh     change       -0.2157195E-03 Eh
   gradient norm :     0.0110549 Eh/α   predicted    -0.1483028E-03 ( -31.25%)
   displ. norm   :     0.2292854 α      lambda       -0.2778457E-03
   maximum displ.:     0.1736986 α      in ANC's #2, #1, #5, ...

........................................................................
.............................. CYCLE   30 ..............................
........................................................................

 iter      E             dE          RMSdq      gap      omega  full diag
   1    -42.5112854 -0.425113E+02  0.483E-02    0.01       0.0  T
   2    -42.5105563  0.729105E-03  0.125E-01    0.01       1.0  T
   3    -42.5113175 -0.761199E-03  0.275E-02    0.01       1.0  T
   4    -42.5113327 -0.151418E-04  0.961E-03    0.01       2.1  T
   5    -42.5113338 -0.109606E-05  0.377E-03    0.01       5.3  T
   6    -42.5113341 -0.360720E-06  0.134E-03    0.01      15.0  T
   7    -42.5113342 -0.438708E-07  0.667E-04    0.01      30.0  T
   8    -42.5113342 -0.968315E-08  0.303E-04    0.01      66.0  T
     SCC iter.                  ...        0 min,  0.012 sec
     gradient                   ...        0 min,  0.011 sec
 * total energy  :   -42.0098088 Eh     change       -0.2205130E-03 Eh
   gradient norm :     0.0104708 Eh/α   predicted    -0.1462306E-03 ( -33.69%)
   displ. norm   :     0.3127250 α      lambda       -0.3339755E-03
   maximum displ.:     0.2468882 α      in ANC's #2, #1, #5, ...

........................................................................
.............................. CYCLE   31 ..............................
........................................................................

 iter      E             dE          RMSdq      gap      omega  full diag
   1    -42.5112745 -0.425113E+02  0.493E-02    0.01       0.0  T
   2    -42.5109624  0.312049E-03  0.859E-02    0.01       1.0  T
   3    -42.5112449 -0.282510E-03  0.401E-02    0.01       1.0  T
   4    -42.5112905 -0.455889E-04  0.192E-02    0.01       1.0  T
   5    -42.5112990 -0.847960E-05  0.720E-03    0.01       2.8  T
   6    -42.5113010 -0.204144E-05  0.161E-03    0.01      12.4  T
   7    -42.5113011 -0.692985E-07  0.768E-04    0.01      26.0  T
   8    -42.5113011 -0.484287E-08  0.335E-04    0.01      59.7  T
     SCC iter.                  ...        0 min,  0.012 sec
     gradient                   ...        0 min,  0.011 sec
 * total energy  :   -42.0100409 Eh     change       -0.2320793E-03 Eh
   gradient norm :     0.0215541 Eh/α   predicted    -0.1833245E-03 ( -21.01%)
   displ. norm   :     0.2978286 α      lambda       -0.4362221E-03
   maximum displ.:     0.1999782 α      in ANC's #1, #2, #5, ...

........................................................................
.............................. CYCLE   32 ..............................
........................................................................

 iter      E             dE          RMSdq      gap      omega  full diag
   1    -42.5110571 -0.425111E+02  0.608E-02    0.01       0.0  T
   2    -42.5107811  0.276003E-03  0.852E-02    0.01       1.0  T
   3    -42.5109382 -0.157073E-03  0.597E-02    0.01       1.0  T
   4    -42.5110677 -0.129521E-03  0.257E-02    0.01       1.0  T
   5    -42.5110839 -0.161934E-04  0.902E-03    0.01       2.2  T
   6    -42.5110871 -0.323094E-05  0.205E-03    0.01       9.7  T
   7    -42.5110872 -0.122749E-06  0.933E-04    0.01      21.4  T
   8    -42.5110872 -0.723209E-08  0.397E-04    0.01      50.3  T
     SCC iter.                  ...        0 min,  0.012 sec
     gradient                   ...        0 min,  0.011 sec
 * total energy  :   -42.0103411 Eh     change       -0.3002448E-03 Eh
   gradient norm :     0.0176013 Eh/α   predicted    -0.2375462E-03 ( -20.88%)
   displ. norm   :     0.1848492 α      lambda       -0.3732113E-03
   maximum displ.:     0.1268957 α      in ANC's #1, #2, #9, ...

........................................................................
.............................. CYCLE   33 ..............................
........................................................................

 iter      E             dE          RMSdq      gap      omega  full diag
   1    -42.5108772 -0.425109E+02  0.420E-02    0.01       0.0  T
   2    -42.5105452  0.332005E-03  0.864E-02    0.01       1.0  T
   3    -42.5108836 -0.338430E-03  0.256E-02    0.01       1.0  T
   4    -42.5108905 -0.692896E-05  0.153E-02    0.01       1.3  T
   5    -42.5108986 -0.808764E-05  0.329E-03    0.01       6.1  T
   6    -42.5108990 -0.359115E-06  0.965E-04    0.01      20.7  T
   7    -42.5108990 -0.133407E-07  0.538E-04    0.01      37.1  T
     SCC iter.                  ...        0 min,  0.011 sec
     gradient                   ...        0 min,  0.011 sec
 * total energy  :   -42.0106233 Eh     change       -0.2822111E-03 Eh
   gradient norm :     0.0078800 Eh/α   predicted    -0.1929862E-03 ( -31.62%)
   displ. norm   :     0.6098564 α      lambda       -0.6906914E-03
   maximum displ.:     0.4366078 α      in ANC's #2, #1, #9, ...

........................................................................
.............................. CYCLE   34 ..............................
........................................................................

 iter      E             dE          RMSdq      gap      omega  full diag
   1    -42.5100730 -0.425101E+02  0.103E-01    0.01       0.0  T
   2    -42.5059672  0.410580E-02  0.295E-01    0.01       1.0  T
   3    -42.5102974 -0.433028E-02  0.477E-02    0.01       1.0  T
   4    -42.5102961  0.131864E-05  0.311E-02    0.01       1.0  T
   5    -42.5103257 -0.295766E-04  0.828E-03    0.01       2.4  T
   6    -42.5103284 -0.266903E-05  0.230E-03    0.01       8.7  T
   7    -42.5103285 -0.996064E-07  0.108E-03    0.01      18.6  T
   8    -42.5103285  0.113611E-08  0.569E-04    0.01      35.2  T
   9    -42.5103285 -0.984139E-08  0.221E-04    0.01      90.6  T
     SCC iter.                  ...        0 min,  0.013 sec
     gradient                   ...        0 min,  0.011 sec
 * total energy  :   -42.0103263 Eh     change        0.2970652E-03 Eh
   gradient norm :     0.0617399 Eh/α   predicted    -0.4737884E-03 (-259.49%)
   displ. norm   :     0.2277826 α      lambda       -0.2002715E-02
   maximum displ.:     0.1507349 α      in ANC's #1, #2, #5, ...

........................................................................
.............................. CYCLE   35 ..............................
........................................................................

 iter      E             dE          RMSdq      gap      omega  full diag
   1    -42.5109952 -0.425110E+02  0.499E-02    0.01       0.0  T
   2    -42.5109143  0.808992E-04  0.493E-02    0.01       1.0  T
   3    -42.5107607  0.153592E-03  0.737E-02    0.01       1.0  T
   4    -42.5109997 -0.239012E-03  0.164E-02    0.01       1.2  T
   5    -42.5110055 -0.577697E-05  0.644E-03    0.01       3.1  T
   6    -42.5110071 -0.162170E-05  0.165E-03    0.01      12.1  T
   7    -42.5110072 -0.910076E-07  0.684E-04    0.01      29.2  T
   8    -42.5110072 -0.280257E-08  0.287E-04    0.01      69.6  T
     SCC iter.                  ...        0 min,  0.012 sec
     gradient                   ...        0 min,  0.011 sec
 * total energy  :   -42.0111653 Eh     change       -0.8390511E-03 Eh
   gradient norm :     0.0066853 Eh/α   predicted    -0.1053316E-02 (  25.54%)
   displ. norm   :     0.1535615 α      lambda       -0.2618614E-03
   maximum displ.:     0.1254389 α      in ANC's #2, #1, #9, ...

........................................................................
.............................. CYCLE   36 ..............................
........................................................................

 iter      E             dE          RMSdq      gap      omega  full diag
   1    -42.5112093 -0.425112E+02  0.464E-02    0.01       0.0  T
   2    -42.5097717  0.143753E-02  0.171E-01    0.01       1.0  T
   3    -42.5112912 -0.151943E-02  0.144E-02    0.01       1.4  T
   4    -42.5112922 -0.102069E-05  0.942E-03    0.01       2.1  T
   5    -42.5112952 -0.297229E-05  0.257E-03    0.01       7.8  T
   6    -42.5112954 -0.232807E-06  0.760E-04    0.01      26.3  T
   7    -42.5112954 -0.104394E-07  0.373E-04    0.01      53.6  T
     SCC iter.                  ...        0 min,  0.010 sec
     gradient                   ...        0 min,  0.011 sec
 * total energy  :   -42.0114268 Eh     change       -0.2614779E-03 Eh
   gradient norm :     0.0066957 Eh/α   predicted    -0.1340251E-03 ( -48.74%)
   displ. norm   :     0.9353607 α      lambda       -0.1762736E-02
   maximum displ.:     0.7862384 α      in ANC's #2, #1, #6, ...

........................................................................
.............................. CYCLE   37 ..............................
........................................................................

 iter      E             dE          RMSdq      gap      omega  full diag
   1    -42.5087890 -0.425088E+02  0.296E-01    0.01       0.0  T
   2    -42.4503486  0.584405E-01  0.109E+00    0.01       1.0  T
   3    -42.5119840 -0.616354E-01  0.995E-02    0.01       1.0  T
   4    -42.5122154 -0.231421E-03  0.361E-02    0.01       1.0  T
   5    -42.5122275 -0.120617E-04  0.188E-02    0.01       1.1  T
   6    -42.5122418 -0.143795E-04  0.722E-03    0.01       2.8  T
   7    -42.5122432 -0.138595E-05  0.263E-03    0.01       7.6  T
   8    -42.5122433 -0.915541E-07  0.911E-04    0.01      21.9  T
   9    -42.5122433 -0.231137E-08  0.478E-04    0.01      41.9  T
     SCC iter.                  ...        0 min,  0.013 sec
     gradient                   ...        0 min,  0.011 sec
 * total energy  :   -42.0105505 Eh     change        0.8763132E-03 Eh
   gradient norm :     0.1079363 Eh/α   predicted    -0.1652464E-02 (-288.57%)
   displ. norm   :     0.4389393 α      lambda       -0.5027076E-02
   maximum displ.:     0.3475879 α      in ANC's #2, #1, #9, ...

........................................................................
.............................. CYCLE   38 ..............................
........................................................................

 iter      E             dE          RMSdq      gap      omega  full diag
   1    -42.5137279 -0.425137E+02  0.759E-02    0.01       0.0  T
   2    -42.5122208  0.150712E-02  0.180E-01    0.01       1.0  T
   3    -42.5137816 -0.156078E-02  0.456E-02    0.01       1.0  T
   4    -42.5137871 -0.554052E-05  0.372E-02    0.01       1.0  T
   5    -42.5138342 -0.470943E-04  0.518E-03    0.01       3.9  T
   6    -42.5138348 -0.586634E-06  0.187E-03    0.01      10.7  T
   7    -42.5138348 -0.493243E-07  0.962E-04    0.01      20.8  T
   8    -42.5138348 -0.122374E-08  0.471E-04    0.01      42.5  T
     SCC iter.                  ...        0 min,  0.012 sec
     gradient                   ...        0 min,  0.011 sec
 * total energy  :   -42.0124512 Eh     change       -0.1900738E-02 Eh
   gradient norm :     0.0185249 Eh/α   predicted    -0.2997847E-02 (  57.72%)
   displ. norm   :     0.1206976 α      lambda       -0.2803312E-03
   maximum displ.:     0.0943512 α      in ANC's #2, #6, #9, ...

........................................................................
.............................. CYCLE   39 ..............................
........................................................................

 iter      E             dE          RMSdq      gap      omega  full diag
   1    -42.5130587 -0.425131E+02  0.415E-02    0.01       0.0  T
   2    -42.5122444  0.814306E-03  0.130E-01    0.01       1.0  T
   3    -42.5131007 -0.856249E-03  0.193E-02    0.01       1.0  T
   4    -42.5131025 -0.178082E-05  0.127E-02    0.01       1.6  T
   5    -42.5131083 -0.578800E-05  0.337E-03    0.01       5.9  T
   6    -42.5131086 -0.350163E-06  0.702E-04    0.01      28.5  T
   7    -42.5131086 -0.515206E-08  0.362E-04    0.01      55.2  T
     SCC iter.                  ...        0 min,  0.010 sec
     gradient                   ...        0 min,  0.011 sec
 * total energy  :   -42.0127112 Eh     change       -0.2599413E-03 Eh
   gradient norm :     0.0196521 Eh/α   predicted    -0.1422097E-03 ( -45.29%)
   displ. norm   :     0.7382735 α      lambda       -0.1555014E-02
   maximum displ.:     0.5681771 α      in ANC's #2, #6, #5, ...

........................................................................
.............................. CYCLE   40 ..............................
........................................................................

 iter      E             dE          RMSdq      gap      omega  full diag
   1    -42.5074313 -0.425074E+02  0.271E-01    0.01       0.0  T
   2    -42.4663202  0.411111E-01  0.918E-01    0.01       1.0  T
   3    -42.5095457 -0.432255E-01  0.116E-01    0.01       1.0  T
   4    -42.5098401 -0.294388E-03  0.425E-02    0.00       1.0  T
   5    -42.5098688 -0.286971E-04  0.220E-02    0.00       1.0  T
   6    -42.5098890 -0.202759E-04  0.652E-03    0.00       3.1  T
   7    -42.5098901 -0.106773E-05  0.240E-03    0.00       8.3  T
   8    -42.5098902 -0.620936E-07  0.878E-04    0.00      22.8  T
   9    -42.5098902  0.254022E-08  0.594E-04    0.00      33.7  T
     SCC iter.                  ...        0 min,  0.013 sec
     gradient                   ...        0 min,  0.011 sec
 * total energy  :   -42.0131911 Eh     change       -0.4799459E-03 Eh
   gradient norm :     0.0763919 Eh/α   predicted    -0.1201264E-02 ( 150.29%)
   displ. norm   :     0.1719672 α      lambda       -0.1541495E-02
   maximum displ.:     0.1411476 α      in ANC's #2, #1, #5, ...

........................................................................
.............................. CYCLE   41 ..............................
........................................................................

 iter      E             dE          RMSdq      gap      omega  full diag
   1    -42.5110588 -0.425111E+02  0.597E-02    0.01       0.0  T
   2    -42.5099391  0.111970E-02  0.151E-01    0.00       1.0  T
   3    -42.5110614 -0.112228E-02  0.450E-02    0.01       1.0  T
   4    -42.5111194 -0.580252E-04  0.164E-02    0.00       1.2  T
   5    -42.5111279 -0.846927E-05  0.627E-03    0.00       3.2  T
   6    -42.5111294 -0.155877E-05  0.128E-03    0.00      15.7  T
   7    -42.5111295 -0.269575E-07  0.627E-04    0.00      31.9  T
   8    -42.5111295 -0.122628E-08  0.290E-04    0.00      69.0  T
     SCC iter.                  ...        0 min,  0.012 sec
     gradient                   ...        0 min,  0.011 sec
 * total energy  :   -42.0139810 Eh     change       -0.7899052E-03 Eh
   gradient norm :     0.0285236 Eh/α   predicted    -0.7935780E-03 (   0.46%)
   displ. norm   :     0.2285934 α      lambda       -0.8296425E-03
   maximum displ.:     0.1441678 α      in ANC's #2, #6, #7, ...

........................................................................
.............................. CYCLE   42 ..............................
........................................................................

 iter      E             dE          RMSdq      gap      omega  full diag
   1    -42.5106990 -0.425107E+02  0.957E-02    0.02       0.0  T
   2    -42.5057910  0.490797E-02  0.318E-01    0.01       1.0  T
   3    -42.5109598 -0.516879E-02  0.405E-02    0.01       1.0  T
   4    -42.5109889 -0.291148E-04  0.188E-02    0.01       1.1  T
   5    -42.5109965 -0.757779E-05  0.790E-03    0.01       2.5  T
   6    -42.5109990 -0.251302E-05  0.227E-03    0.01       8.8  T
   7    -42.5109991 -0.809074E-07  0.124E-03    0.01      16.1  T
   8    -42.5109991 -0.364923E-07  0.391E-04    0.01      51.1  T
   9    -42.5109991 -0.250782E-08  0.220E-04    0.01      90.7  T
     SCC iter.                  ...        0 min,  0.013 sec
     gradient                   ...        0 min,  0.011 sec
 * total energy  :   -42.0147596 Eh     change       -0.7785895E-03 Eh
   gradient norm :     0.0205747 Eh/α   predicted    -0.4364507E-03 ( -43.94%)
   displ. norm   :     0.7292016 α      lambda       -0.3009300E-02
   maximum displ.:     0.5038434 α      in ANC's #2, #6, #7, ...
 * RMSD in coord.:     0.7937243 α      energy gain  -0.6570588E-01 Eh

generating ANC from model Hessian ...
Using Lindh-Hessian (1995)
 Shifting diagonal of input Hessian by    7.6359085055605833E-003
 Lowest  eigenvalues of input Hessian
    0.000000    0.000000    0.000000    0.000000    0.000000    0.000000
    0.010000    0.010208    0.011524    0.015045    0.016000    0.016989
    0.017458    0.019342    0.022112    0.022370    0.027657    0.030206
 Highest eigenvalues
    2.019935    2.116821    2.179617    2.305711    2.367383    2.805920


........................................................................
.............................. CYCLE   43 ..............................
........................................................................

 iter      E             dE          RMSdq      gap      omega  full diag
   1    -42.5088690 -0.425089E+02  0.288E-01    0.16       0.0  T
   2    -42.4729215  0.359476E-01  0.863E-01    0.08       1.0  T
   3    -42.5104339 -0.375125E-01  0.159E-01    0.13       1.0  T
   4    -42.5112030 -0.769116E-03  0.543E-02    0.13       1.0  T
   5    -42.5112277 -0.247169E-04  0.273E-02    0.12       1.0  T
   6    -42.5112542 -0.264426E-04  0.109E-02    0.12       1.8  T
   7    -42.5112565 -0.228595E-05  0.589E-03    0.13       3.4  T
   8    -42.5112576 -0.113158E-05  0.125E-03    0.13      16.0  T
   9    -42.5112576 -0.262018E-07  0.707E-04    0.13      28.3  T
  10    -42.5112576 -0.143199E-08  0.403E-04    0.13      49.7  T
     SCC iter.                  ...        0 min,  0.014 sec
     gradient                   ...        0 min,  0.011 sec
 * total energy  :   -42.0171749 Eh     change       -0.2415289E-02 Eh
   gradient norm :     0.0374065 Eh/α   predicted     0.0000000E+00 (-100.00%)
   displ. norm   :     0.2589814 α      lambda       -0.2072727E-02
   maximum displ.:     0.1525216 α      in ANC's #4, #7, #5, ...

........................................................................
.............................. CYCLE   44 ..............................
........................................................................

 iter      E             dE          RMSdq      gap      omega  full diag
   1    -42.5147913 -0.425148E+02  0.937E-02    0.18       0.0  T
   2    -42.5119948  0.279654E-02  0.244E-01    0.16       1.0  T
   3    -42.5149150 -0.292027E-02  0.513E-02    0.17       1.0  T
   4    -42.5149579 -0.428413E-04  0.236E-02    0.17       1.0  T
   5    -42.5149739 -0.159853E-04  0.922E-03    0.17       2.2  T
   6    -42.5149770 -0.314806E-05  0.314E-03    0.17       6.4  T
   7    -42.5149773 -0.247781E-06  0.104E-03    0.17      19.2  T
   8    -42.5149773 -0.144182E-07  0.333E-04    0.17      60.0  T
   9    -42.5149773  0.102698E-08  0.246E-04    0.17      81.2  T
     SCC iter.                  ...        0 min,  0.013 sec
     gradient                   ...        0 min,  0.011 sec
 * total energy  :   -42.0187988 Eh     change       -0.1623922E-02 Eh
   gradient norm :     0.0112927 Eh/α   predicted    -0.1107126E-02 ( -31.82%)
   displ. norm   :     0.5322808 α      lambda       -0.2505891E-02
   maximum displ.:     0.3233810 α      in ANC's #4, #7, #5, ...

........................................................................
.............................. CYCLE   45 ..............................
........................................................................

 iter      E             dE          RMSdq      gap      omega  full diag
   1    -42.5166775 -0.425167E+02  0.180E-01    0.31       0.0  T
   2    -42.5092715  0.740601E-02  0.398E-01    0.25       1.0  T
   3    -42.5165810 -0.730944E-02  0.137E-01    0.29       1.0  T
   4    -42.5172067 -0.625780E-03  0.451E-02    0.29       1.0  T
   5    -42.5172350 -0.282432E-04  0.217E-02    0.28       1.0  T
   6    -42.5172531 -0.181602E-04  0.758E-03    0.28       2.6  T
   7    -42.5172544 -0.122085E-05  0.337E-03    0.28       5.9  T
   8    -42.5172547 -0.289940E-06  0.733E-04    0.28      27.3  T
   9    -42.5172547 -0.525122E-08  0.415E-04    0.28      48.2  T
     SCC iter.                  ...        0 min,  0.013 sec
     gradient                   ...        0 min,  0.011 sec
 * total energy  :   -42.0208322 Eh     change       -0.2033345E-02 Eh
   gradient norm :     0.0248639 Eh/α   predicted    -0.1607933E-02 ( -20.92%)
   displ. norm   :     0.5684346 α      lambda       -0.2158791E-02
   maximum displ.:     0.3587926 α      in ANC's #4, #7, #5, ...

........................................................................
.............................. CYCLE   46 ..............................
........................................................................

 iter      E             dE          RMSdq      gap      omega  full diag
   1    -42.5144117 -0.425144E+02  0.250E-01    0.52       0.0  T
   2    -42.5047831  0.962850E-02  0.458E-01    0.40       1.0  T
   3    -42.5127505 -0.796731E-02  0.251E-01    0.45       1.0  T
   4    -42.5153857 -0.263524E-02  0.656E-02    0.47       1.0  T
   5    -42.5154265 -0.408238E-04  0.250E-02    0.46       1.0  T
   6    -42.5154449 -0.183706E-04  0.125E-02    0.46       1.6  T
   7    -42.5154477 -0.276786E-05  0.684E-03    0.46       2.9  T
   8    -42.5154492 -0.158546E-05  0.926E-04    0.46      21.6  T
   9    -42.5154493 -0.511545E-08  0.599E-04    0.46      33.4  T
  10    -42.5154493 -0.487579E-08  0.267E-04    0.46      74.8  T
     SCC iter.                  ...        0 min,  0.014 sec
     gradient                   ...        0 min,  0.011 sec
 * total energy  :   -42.0222022 Eh     change       -0.1370003E-02 Eh
   gradient norm :     0.0545677 Eh/α   predicted    -0.1428179E-02 (   4.25%)
   displ. norm   :     0.3142801 α      lambda       -0.2232287E-02
   maximum displ.:     0.1868749 α      in ANC's #4, #6, #7, ...

........................................................................
.............................. CYCLE   47 ..............................
........................................................................

 iter      E             dE          RMSdq      gap      omega  full diag
   1    -42.5124933 -0.425125E+02  0.242E-01    0.66       0.0  T
   2    -42.5036665  0.882680E-02  0.441E-01    0.52       1.0  T
   3    -42.5109053 -0.723883E-02  0.244E-01    0.56       1.0  T
   4    -42.5135010 -0.259575E-02  0.657E-02    0.62       1.0  T
   5    -42.5135580 -0.569662E-04  0.167E-02    0.60       1.2  T
   6    -42.5135620 -0.398457E-05  0.108E-02    0.60       1.9  T
   7    -42.5135636 -0.156303E-05  0.650E-03    0.60       3.1  T
   8    -42.5135651 -0.155224E-05  0.131E-03    0.60      15.2  T
   9    -42.5135651 -0.130891E-07  0.814E-04    0.60      24.6  T
  10    -42.5135651 -0.826031E-08  0.420E-04    0.60      47.6  T
     SCC iter.                  ...        0 min,  0.014 sec
     gradient                   ...        0 min,  0.011 sec
 * total energy  :   -42.0239897 Eh     change       -0.1787578E-02 Eh
   gradient norm :     0.0256833 Eh/α   predicted    -0.1226388E-02 ( -31.39%)
   displ. norm   :     0.6751603 α      lambda       -0.4044499E-02
   maximum displ.:     0.3384832 α      in ANC's #4, #7, #6, ...

........................................................................
.............................. CYCLE   48 ..............................
........................................................................

 iter      E             dE          RMSdq      gap      omega  full diag
   1    -42.5058967 -0.425059E+02  0.875E-01    1.12       0.0  T
   2    -42.4691210  0.367756E-01  0.101E+00    0.61       1.0  T
   3    -42.4786555 -0.953448E-02  0.940E-01    0.60       1.0  T
   4    -42.5154808 -0.368253E-01  0.338E-01    1.06       1.0  T
   5    -42.5172980 -0.181719E-02  0.994E-02    0.98       1.0  T
   6    -42.5175696 -0.271548E-03  0.480E-02    0.99       1.0  T
   7    -42.5175892 -0.196614E-04  0.258E-02    0.98       1.0  T
   8    -42.5176045 -0.152287E-04  0.835E-03    0.98       2.4  T
   9    -42.5176051 -0.618083E-06  0.399E-03    0.98       5.0  T
  10    -42.5176051  0.540894E-08  0.261E-03    0.97       7.7  T
  11    -42.5176053 -0.208604E-06  0.626E-04    0.98      31.9  T
  12    -42.5176053 -0.295039E-08  0.196E-04    0.98     101.8  T
     SCC iter.                  ...        0 min,  0.017 sec
     gradient                   ...        0 min,  0.011 sec
 * total energy  :   -42.0291692 Eh     change       -0.5179487E-02 Eh
   gradient norm :     0.0416468 Eh/α   predicted    -0.2944079E-02 ( -43.16%)
   displ. norm   :     0.6217029 α      lambda       -0.7033898E-02
   maximum displ.:     0.2827767 α      in ANC's #4, #6, #7, ...

........................................................................
.............................. CYCLE   49 ..............................
........................................................................

 iter      E             dE          RMSdq      gap      omega  full diag
   1    -42.5150985 -0.425151E+02  0.107E+00    1.30       0.0  T
   2    -42.4248324  0.902661E-01  0.152E+00    0.51       1.0  T
   3    -42.4941297 -0.692973E-01  0.997E-01    0.82       1.0  T
   4    -42.5276466 -0.335169E-01  0.530E-01    1.25       1.0  T
   5    -42.5335479 -0.590133E-02  0.108E-01    1.14       1.0  T
   6    -42.5338736 -0.325734E-03  0.485E-02    1.15       1.0  T
   7    -42.5338970 -0.233366E-04  0.261E-02    1.15       1.0  T
   8    -42.5339101 -0.131082E-04  0.108E-02    1.15       1.9  T
   9    -42.5339132 -0.310927E-05  0.369E-03    1.15       5.4  T
  10    -42.5339132 -0.684004E-08  0.226E-03    1.15       8.8  T
  11    -42.5339133 -0.137252E-06  0.717E-04    1.15      27.9  T
  12    -42.5339133 -0.920294E-08  0.192E-04    1.15     104.0  T
     SCC iter.                  ...        0 min,  0.017 sec
     gradient                   ...        0 min,  0.011 sec
 * total energy  :   -42.0211966 Eh     change        0.7972615E-02 Eh
   gradient norm :     0.1421198 Eh/α   predicted    -0.4876319E-02 (-161.16%)
   displ. norm   :     0.3424643 α      lambda       -0.3835352E-01
   maximum displ.:     0.1410204 α      in ANC's #7, #21, #4, ...

........................................................................
[...]
H            2.79643352960276        1.95851362287430        0.46125903650147
H            3.17812985631225       -1.86508034132718        0.67025552462747
H           -1.40241324537568        3.16505358156461       -1.38444416367655
H           -2.93041619021872        2.27934968719833       -1.07296223869194
H           -2.07687184429280        3.12053304139245        0.24812470688827
H           -1.74686202632851       -2.61693867593694       -1.31865652996443
H           -2.88083736154667       -2.20918733528593       -0.01021478262382
H           -1.62316169308200       -3.47709781153907        1.33998990316040
H            0.82583859004558       -2.89004450198235        0.37340823592072

 Bond Distances (Angstroems)
 ---------------------------
C1-N2=1.4372         C1-H15=1.0894        C1-H16=1.0919        C1-H17=1.0896        N2-C1=1.4372         N2-C3=1.3400         
N2-C6=1.3766         C3-N2=1.3400         C3-N4=1.3546         C3-H18=1.0704        N4-C3=1.3546         N4-C5=1.3620         
N4-H25=1.0144        C5-N4=1.3620         C5-C6=1.3915         C5-N13=1.3601        C6-N2=1.3766         C6-C5=1.3915         
C6-C7=1.4369         C7-C6=1.4369         C7-O8=1.2134         C7-N9=1.4238         O8-C7=1.2134         N9-C7=1.4238         
N9-C10=1.4524        N9-C11=1.3201        C10-N9=1.4524        C10-H19=1.0915       C10-H20=1.0869       C10-H21=1.0926       
C11-N9=1.3201        C11-N13=1.3895       O12-C14=1.4157       O12-H24=0.9661       N13-C5=1.3601        N13-C11=1.3895       
N13-C14=1.4955       C14-O12=1.4157       C14-N13=1.4955       C14-H22=1.0980       C14-H23=1.0928       H15-C1=1.0894        
H16-C1=1.0919        H17-C1=1.0896        H18-C3=1.0704        H19-C10=1.0915       H20-C10=1.0869       H21-C10=1.0926       
H22-C14=1.0980       H23-C14=1.0928       H24-O12=0.9661       H25-N4=1.0144        
 C  H  Rav=1.0892 sigma=0.0073  Rmin=1.0704  Rmax=1.0980     9
 C  C  Rav=1.4142 sigma=0.0227  Rmin=1.3915  Rmax=1.4369     2
 N  H  Rav=1.0144 sigma=0.0000  Rmin=1.0144  Rmax=1.0144     1
 N  C  Rav=1.3920 sigma=0.0512  Rmin=1.3201  Rmax=1.4955    11
 O  H  Rav=0.9661 sigma=0.0000  Rmin=0.9661  Rmax=0.9661     1
 O  C  Rav=1.3145 sigma=0.1012  Rmin=1.2134  Rmax=1.4157     2

 selected bond angles (degree)
 --------------------
H15-C1-N2=110.38               H16-C1-N2=110.42               H16-C1-H15=108.77              H17-C1-N2=108.74               
H17-C1-H15=109.88              H17-C1-H16=108.62              C3-N2-C1=127.13                C6-N2-C1=125.06                
C6-N2-C3=107.79                N4-C3-N2=109.67                H18-C3-N2=125.41               H18-C3-N4=124.93               
C5-N4-C3=108.08                H25-N4-C3=127.30               H25-N4-C5=124.62               C6-C5-N4=107.23                
N13-C5-N4=129.92               N13-C5-C6=122.85               C5-C6-N2=107.23                C7-C6-N2=131.21                
C7-C6-C5=121.56                O8-C7-C6=127.81                N9-C7-C6=110.48                N9-C7-O8=121.71                
C10-N9-C7=114.53               C11-N9-C7=128.08               C11-N9-C10=117.39              H19-C10-N9=109.33              
H20-C10-N9=109.12              H20-C10-H19=110.82             H21-C10-N9=109.71              H21-C10-H19=108.00             
H21-C10-H20=109.84             

 selected dihedral angles (degree)
 ---------------------------------
C3-N2-C1-H15=312.88           C3-N2-C1-H16= 73.20           C3-N2-C1-H17=192.28           C6-N2-C1-H15=134.61           
C6-N2-C1-H16=254.93           C6-N2-C1-H17= 14.01           N4-C3-N2-C1=181.33            N4-C3-N2-C6=359.84            
H18-C3-N2-C1=  1.53           H18-C3-N2-C6=180.04           C5-N4-C3-N2=  0.16            C5-N4-C3-H18=179.97           
H25-N4-C3-N2=179.69           H25-N4-C3-H18=359.49          C6-C5-N4-C3=359.90            C6-C5-N4-H25=180.36           
N13-C5-N4-C3=180.43           N13-C5-N4-H25=  0.88          C5-C6-N2-C1=178.64            C5-C6-N2-C3=  0.09            
C7-C6-N2-C1=359.31            C7-C6-N2-C3=180.76            N2-C6-C5-N4=  0.00            N2-C6-C5-N13=179.53           
C7-C6-C5-N4=179.42            C7-C6-C5-N13=358.94           O8-C7-C6-N2=358.45            O8-C7-C6-C5=179.20            
N9-C7-C6-N2=177.91            N9-C7-C6-C5=358.66            C10-N9-C7-C6=180.83           C10-N9-C7-O8=  0.33           
C11-N9-C7-C6=  1.09           C11-N9-C7-O8=180.59           H19-C10-N9-C7= 45.85          H19-C10-N9-C11=225.62         
H20-C10-N9-C7=167.21          H20-C10-N9-C11=346.98         H21-C10-N9-C7=287.59          H21-C10-N9-C11=107.37         
           -------------------------------------------------
          |                Final Singlepoint                |
           -------------------------------------------------

          ...................................................
          :                      SETUP                      :
          :.................................................:
          :  # basis functions                  67          :
          :  # atomic orbitals                  67          :
          :  # shells                           39          :
          :  # electrons                        74          :
          :  max. iterations                   250          :
          :  Hamiltonian                  GFN2-xTB          :
          :  restarted?                      false          :
          :  GBSA solvation                  false          :
          :  PC potential                    false          :
          :  electronic temp.         7500.0000000     K    :
          :  accuracy                    1.0000000          :
          :  -> integral cutoff          0.2500000E+02      :
          :  -> integral neglect         0.1000000E-07      :
          :  -> SCF convergence          0.1000000E-05 Eh   :
          :  -> wf. convergence          0.1000000E-03 e    :
          :  Broyden damping             0.4000000          :
          ...................................................

 iter      E             dE          RMSdq      gap      omega  full diag
   1    -42.6784344 -0.426784E+02  0.163E-04    2.41       0.0  T
   2    -42.6784344  0.726374E-09  0.198E-04    2.41     101.1  T
   3    -42.6784344 -0.159075E-08  0.490E-05    2.41     408.2  T

   *** convergence criteria satisfied after 3 iterations ***

         #    Occupation            Energy/Eh            Energy/eV
      -------------------------------------------------------------
         1        2.0000           -0.8948990             -24.3514
       ...           ...                  ...                  ...
        31        1.9935           -0.6060858             -16.4924
        32        1.9928           -0.6037580             -16.4291
        33        1.9903           -0.5965271             -16.2323
        34        1.9804           -0.5798008             -15.7772
        35        1.9686           -0.5684709             -15.4689
        36        1.9370           -0.5515479             -15.0084
        37        1.7327           -0.5145850             -14.0026 (HOMO)
        38        0.2686           -0.4259352             -11.5903 (LUMO)
        39        0.0956           -0.3991422             -10.8612
        40        0.0532           -0.3846762             -10.4676
        41        0.0007           -0.2827075              -7.6929
        42        0.0000           -0.2141797              -5.8281
       ...           ...                  ...                  ...
        67                          0.5328247              14.4989
      -------------------------------------------------------------
                  HL-Gap            0.0886498 Eh            2.4123 eV
             Fermi-level           -0.4701918 Eh          -12.7946 eV

 SCC (total)                   0 d,  0 h,  0 min,  0.021 sec
 SCC setup                      ...        0 min,  0.000 sec (  0.873%)
 Dispersion                     ...        0 min,  0.000 sec (  0.909%)
 classical contributions        ...        0 min,  0.000 sec (  0.317%)
 integral evaluation            ...        0 min,  0.004 sec ( 20.791%)
 iterations                     ...        0 min,  0.005 sec ( 22.733%)
 molecular gradient             ...        0 min,  0.011 sec ( 53.752%)
 printout                       ...        0 min,  0.000 sec (  0.564%)

         :::::::::::::::::::::::::::::::::::::::::::::::::::::
         ::                     SUMMARY                     ::
         :::::::::::::::::::::::::::::::::::::::::::::::::::::
         :: total energy             -42.185998816175 Eh    ::
         :: gradient norm              0.003912310207 Eh/a0 ::
         :: HOMO-LUMO gap              2.412282817028 eV    ::
         ::.................................................::
         :: SCC energy               -42.678434427199 Eh    ::
         :: -> isotropic ES            0.123220025712 Eh    ::
         :: -> anisotropic ES         -0.006319266059 Eh    ::
         :: -> anisotropic XC          0.012100750739 Eh    ::
         :: -> dispersion             -0.022332829153 Eh    ::
         :: repulsion energy           0.491960028776 Eh    ::
         :: add. restraining           0.000370217946 Eh    ::
         :: total charge               1.000000000000 e     ::
         :::::::::::::::::::::::::::::::::::::::::::::::::::::

           -------------------------------------------------
          |                Property Printout                |
           -------------------------------------------------

    * Orbital Energies and Occupations

         #    Occupation            Energy/Eh            Energy/eV
      -------------------------------------------------------------
         1        2.0000           -0.8948990             -24.3514
       ...           ...                  ...                  ...
        25        1.9994           -0.6642735             -18.0758
        26        1.9991           -0.6535265             -17.7834
        27        1.9988           -0.6464564             -17.5910
        28        1.9984           -0.6402238             -17.4214
        29        1.9973           -0.6266630             -17.0524
        30        1.9949           -0.6120414             -16.6545
        31        1.9935           -0.6060858             -16.4924
        32        1.9928           -0.6037580             -16.4291
        33        1.9903           -0.5965271             -16.2323
        34        1.9804           -0.5798008             -15.7772
        35        1.9686           -0.5684709             -15.4689
        36        1.9370           -0.5515479             -15.0084
        37        1.7327           -0.5145850             -14.0026 (HOMO)
        38        0.2686           -0.4259352             -11.5903 (LUMO)
        39        0.0956           -0.3991422             -10.8612
        40        0.0532           -0.3846762             -10.4676
        41        0.0007           -0.2827075              -7.6929
        42        0.0000           -0.2141797              -5.8281
        43        0.0000           -0.1840471              -5.0082
        44        0.0000           -0.1485533              -4.0423
        45        0.0000           -0.1285152              -3.4971
        46        0.0000           -0.1046764              -2.8484
        47                         -0.0675910              -1.8392
        48                         -0.0242984              -0.6612
       ...                                ...                  ...
        67                          0.5328247              14.4989
      -------------------------------------------------------------
                  HL-Gap            0.0886498 Eh            2.4123 eV
             Fermi-level           -0.4701918 Eh          -12.7946 eV

     #   Z          covCN         q      C6AA      α(0)
     1   6 C        3.690    -0.086    22.341     6.764
     2   7 N        2.826     0.061    20.182     6.672
     3   6 C        3.042     0.044    26.963     8.517
     4   7 N        2.785    -0.068    22.565     7.055
     5   6 C        3.045     0.111    25.507     8.283
     6   6 C        3.104    -0.012    28.182     8.699
     7   6 C        2.769     0.252    22.770     7.815
     8   8 O        0.857    -0.365    20.985     6.142
     9   7 N        2.746     0.012    21.048     6.814
    10   6 C        3.718    -0.068    21.932     6.690
    11   6 C        1.884    -0.072    33.080     9.289
    12   8 O        1.654    -0.413    21.111     6.203
    13   7 N        2.735    -0.031    21.849     6.942
    14   6 C        3.611     0.116    19.149     6.318
    15   1 H        0.925     0.100     1.784     2.089
    16   1 H        0.924     0.104     1.750     2.069
    17   1 H        0.925     0.129     1.543     1.942
    18   1 H        0.926     0.116     1.647     2.007
    19   1 H        0.924     0.107     1.720     2.051
    20   1 H        0.925     0.104     1.752     2.070
    21   1 H        0.924     0.101     1.772     2.082
    22   1 H        0.923     0.097     1.809     2.104
    23   1 H        0.924     0.093     1.853     2.129
    24   1 H        0.805     0.323     0.655     1.271
    25   1 H        0.860     0.245     0.903     1.489

 Mol. C6AA /au·bohr⁶  :       6557.889749
 Mol. C8AA /au·bohr⁸  :     151349.605445
 Mol. α(0) /au        :        123.504960


Wiberg/Mayer (AO) data.
largest (>0.10) Wiberg bond orders for each atom

 ---------------------------------------------------------------------------
     #   Z sym  total        # sym  WBO       # sym  WBO       # sym  WBO
 ---------------------------------------------------------------------------
     1   6 C    3.916 --     2 N    0.990    15 H    0.964    17 H    0.961
                            16 H    0.955
     2   7 N    3.605 --     3 C    1.334     6 C    1.150     1 C    0.990
     3   6 C    3.743 --     2 N    1.334     4 N    1.263    18 H    0.955
     4   7 N    3.547 --     3 C    1.263     5 C    1.194    25 H    0.899
     5   6 C    3.881 --     6 C    1.328     4 N    1.194    13 N    1.176
     6   6 C    3.867 --     5 C    1.328     2 N    1.150     7 C    1.105
     7   6 C    3.866 --     8 O    1.657     6 C    1.105     9 N    1.014
     8   8 O    1.934 --     7 C    1.657     9 N    0.107
     9   7 N    3.601 --    11 C    1.417     7 C    1.014    10 C    0.980
                             8 O    0.107
    10   6 C    3.907 --     9 N    0.980    20 H    0.970    19 H    0.959
                            21 H    0.954
    11   6 C    2.797 --     9 N    1.417    13 N    1.200
    12   8 O    2.009 --    14 C    1.032    24 H    0.883
    13   7 N    3.529 --    11 C    1.200     5 C    1.176    14 C    0.936
    14   6 C    3.918 --    12 O    1.032    23 H    0.962    22 H    0.951
                            13 N    0.936
    15   1 H    0.984 --     1 C    0.964
    16   1 H    0.980 --     1 C    0.955
    17   1 H    0.981 --     1 C    0.961
    18   1 H    0.985 --     3 C    0.955
    19   1 H    0.979 --    10 C    0.959
    20   1 H    0.983 --    10 C    0.970
    21   1 H    0.978 --    10 C    0.954
    22   1 H    0.982 --    14 C    0.951
    23   1 H    0.987 --    14 C    0.962
    24   1 H    0.895 --    12 O    0.883
    25   1 H    0.939 --     4 N    0.899
 ---------------------------------------------------------------------------

Topologies differ in total number of bonds
Writing topology from bond orders to xtbtopo.mol

molecular dipole:
                 x           y           z       tot (Debye)
 q only:        0.683      -1.698       0.445
   full:        0.958      -2.097       0.687       6.115
molecular quadrupole (traceless):
                xx          xy          yy          xz          yz          zz
 q only:       17.170      -3.390      -1.146       4.898      -6.161     -16.024
  q+dip:       15.312      -3.682      -2.461       2.490      -6.838     -12.851
   full:       14.487      -3.826      -3.184       2.260      -6.899     -11.303

           -------------------------------------------------
          |                Geometry Summary                 |
           -------------------------------------------------

      molecular mass/u    :      195.1988581
   center of mass at/Å    :        0.0875089      -0.1171972       0.0067235
  moments of inertia/u·Å² :        0.5583930E+03   0.7006532E+03   0.1242516E+04
rotational constants/cm⁻¹ :        0.3018955E-01   0.2405988E-01   0.1356734E-01

 * 24 selected distances

     #   Z          #   Z                                           value/Å
     1   6 C        2   7 N                                       1.4372420
     2   7 N        3   6 C                                       1.3399669
     3   6 C        4   7 N                                       1.3545766
     4   7 N        5   6 C                                       1.3619595
     2   7 N        6   6 C                                       1.3766144
     5   6 C        6   6 C                                       1.3915087
     6   6 C        7   6 C                                       1.4368755
     7   6 C        8   8 O                                       1.2133616
     7   6 C        9   7 N                                       1.4238341
     9   7 N       10   6 C                                       1.4523962 (max)
     9   7 N       11   6 C                                       1.3201495
     5   6 C       13   7 N                                       1.3600567
    12   8 O       14   6 C                                       1.4157189
     1   6 C       15   1 H                                       1.0894219
     1   6 C       16   1 H                                       1.0919487
     1   6 C       17   1 H                                       1.0896050
     3   6 C       18   1 H                                       1.0703703
    10   6 C       19   1 H                                       1.0914983
    10   6 C       20   1 H                                       1.0869295
    10   6 C       21   1 H                                       1.0926125
    14   6 C       22   1 H                                       1.0980105
    14   6 C       23   1 H                                       1.0927805
    12   8 O       24   1 H                                       0.9660602 (min)
     4   7 N       25   1 H                                       1.0144112

 * 6 distinct bonds (by element types)

   Z      Z             #   av. dist./Å        max./Å        min./Å
   1 H    6 C           9     1.0892419     1.0980105     1.0703703
   6 C    6 C           2     1.4141921     1.4368755     1.3915087
   1 H    7 N           1     1.0144112     1.0144112     1.0144112
   6 C    7 N           9     1.3807551     1.4523962     1.3201495
   1 H    8 O           1     0.9660602     0.9660602     0.9660602
   6 C    8 O           2     1.3145403     1.4157189     1.2133616


optimized geometry written to: xtbopt.xyz


           -------------------------------------------------
          | TOTAL ENERGY              -42.185998816175 Eh   |
          | GRADIENT NORM               0.003912310207 Eh/α |
          | HOMO-LUMO GAP               2.412282817028 eV   |
           -------------------------------------------------

------------------------------------------------------------------------
 * finished run on 2024/06/05 at 19:58:54.812     
------------------------------------------------------------------------
 total:
 * wall-time:     0 d,  0 h,  0 min,  3.402 sec
 *  cpu-time:     0 d,  0 h,  0 min,  3.383 sec
 * ratio c/w:     0.994 speedup
 SCF:
 * wall-time:     0 d,  0 h,  0 min,  0.035 sec
 *  cpu-time:     0 d,  0 h,  0 min,  0.035 sec
 * ratio c/w:     1.000 speedup
 ANC optimizer:
 * wall-time:     0 d,  0 h,  0 min,  3.337 sec
 *  cpu-time:     0 d,  0 h,  0 min,  3.334 sec
 * ratio c/w:     0.999 speedup

