72
 energy: -99.333673957448 gnorm: 0.011911278534 xtb: 6.6.1 (8d0f1dd)
N           -1.86769655115764        2.79652497903686        2.22206532289776
C           -1.83591517610332        2.08588475590450        1.19465481249775
C           -2.99616298159666        1.87583314522473        0.26116575910151
C           -3.49295141723608        0.43962957046322        0.38077290915286
C           -4.47525419127577       -0.00458765859593       -0.55530102763948
C           -4.94258137190210       -1.30254652821637       -0.54965424476332
O           -5.83243929658757       -1.82370950699921       -1.42423940456056
C           -6.48733700058631       -0.96109143789219       -2.32460980620704
C           -4.45873528991488       -2.20824791897097        0.41938720226203
O           -4.69909040901991       -3.49866991513931        0.29146203837987
C           -4.33377300748468       -4.37885691006479        1.18176052321649
C           -3.57292975179378       -1.77098498265565        1.53232750593298
C           -3.04403441568668       -0.39074908126274        1.34889714416591
C           -2.44895892624052        2.12868276939587       -1.16772097646045
C           -1.52797837887305        1.01930856304544       -1.70589926545216
C           -0.18825258234205        1.01053062777154       -1.07568856046460
N            0.47292923241700       -0.07639904728244       -0.68197506698619
C            1.85169130475327        0.01763960812944       -0.26545270656659
C            2.82519037110369       -0.39642823650946       -1.38605357742351
C            4.24229561538860       -0.18202005230825       -0.93251056289264
C            4.86917214539702        1.03651209821814       -1.13213661433114
C            6.16576161448734        1.24944043049341       -0.68925734837259
C            6.86031081389443        0.24575276220454       -0.03062567756988
O            8.11971600608172        0.33841785678607        0.43834422359130
C            8.83878236163611        1.53395148296966        0.24180775351909
C            6.22297176366236       -1.00661854677051        0.18489179788798
O            6.96984047263601       -1.92509545965008        0.83227910070610
C            6.43675620845551       -3.20646379091252        1.06399343571942
C            4.92671479333582       -1.19618770820895       -0.26620367736049
C           -0.12755950077776       -1.38749898354645       -0.72373310397469
C           -4.19107868958478        2.83465006395708        0.54386240154130
C           -4.83798330232968        2.54494801711018        1.89618618768389
C           -3.80519560318148        4.30956214398238        0.46448622207688
H           -4.84413201066815        0.68849277906944       -1.28910167810636
H           -7.00827927074278       -0.15799565158112       -1.79650982553175
H           -7.21403445557229       -1.58111316664805       -2.84563335717457
H           -5.79213643405816       -0.53227068886067       -3.05200719631760
H           -4.00726242953285       -4.13252305226852        2.17408455198970
H           -4.36392444276686       -5.39266574157999        0.86402835466115
H           -2.79195069380237       -2.55695312835001        1.59630852780870
H           -4.10144857078548       -1.81236552736243        2.49992588705005
H           -2.34355134018224       -0.05222366691110        2.09610763941883
H           -3.28973512498710        2.23136225253975       -1.85267729602686
H           -1.90505838832607        3.07383817315666       -1.17204787250069
H           -2.02512319205825        0.05520046569228       -1.61451625305730
H           -1.38671595276183        1.21955400342496       -2.77628344023237
H           -0.92892519996115        1.56192717742341        0.83626305564732
H            0.36396330086352        1.93807013350635       -1.06716696582720
H            2.00784068602482       -0.62352621870624        0.60640343601299
H            2.06997702461824        1.04728573882388        0.02603119887300
H            2.62130420317988        0.21175812129160       -2.26905121324023
H            2.66443182638931       -1.44426019627414       -1.64303405203293
H            4.35354500703184        1.83152460043916       -1.64927369692687
H            6.62971696737556        2.20559142299349       -0.86728331177683
H            8.35789134641586        2.37862756826877        0.74465879286801
H            8.95637409525094        1.76031756195787       -0.82219831466049
H            9.81801760086701        1.36139345500545        0.68419900235453
H            7.22162234867265       -3.76125171740650        1.57439759798464
H            5.55036363106391       -3.16314035700027        1.70532634074879
H            6.18686786464760       -3.71323536796486        0.12660761162654
H            4.43772785350650       -2.14601736568863       -0.11562864328592
H           -0.28821503633823       -1.71712488234021       -1.75310426493377
H           -1.08852804629405       -1.37759459780694       -0.20399850494489
H            0.52918449371126       -2.09960007020587       -0.23017243329063
H           -4.93861795680334        2.64263755836704       -0.23379106335672
H           -4.12907892790634        2.73449367693759        2.69542724359843
H           -5.17546352668359        1.51331722036526        1.95832897714892
H           -5.69844701455325        3.19485767478951        2.03333982476981
H           -3.04645557388027        4.54177891236995        1.20504230532647
H           -3.43988878837250        4.58190410524733       -0.52208573339079
H           -4.68096549909649        4.91814392173159        0.67370316462060
H           -1.01059963605719        2.88481128633689        2.75936372739932
72
 energy: -99.335583093954 gnorm: 0.007391963310 xtb: 6.6.1 (8d0f1dd)
N           -1.86919887388413        2.79902482853992        2.22177356774342
C           -1.83749255163636        2.08881428735919        1.19408903118672
C           -2.99734951392851        1.88164132881415        0.25905432834373
C           -3.49581584525328        0.44732786465108        0.38119127981511
C           -4.47337678217272       -0.00649670902151       -0.55388886390915
C           -4.93416375495240       -1.30771771223587       -0.54425332314540
O           -5.82609663248590       -1.82877743066567       -1.41739841705052
C           -6.48015322105065       -0.96642542904079       -2.32109074602689
C           -4.43905305925334       -2.21521264937573        0.42026218310848
O           -4.69470002210542       -3.50548789340391        0.28859816385767
C           -4.34559792863980       -4.40818562692250        1.16487106429933
C           -3.55955501421143       -1.75880756240050        1.53582636226180
C           -3.04752919717712       -0.37455877717743        1.35501066595324
C           -2.44851591028051        2.13147662565957       -1.16934955904460
C           -1.52799146412433        1.02066443989912       -1.70584028186520
C           -0.18818639400596        1.01129257781312       -1.07575672197294
N            0.47264958282235       -0.07562658263541       -0.68170650426012
C            1.85165054866563        0.01822778040014       -0.26558286146715
C            2.82481071982279       -0.39673178830202       -1.38604103597090
C            4.24203981265100       -0.18238008800034       -0.93287437414317
C            4.86895858676090        1.03610337690770       -1.13271519705262
C            6.16556323949637        1.24903748463770       -0.68988826980121
C            6.86012246647855        0.24543067760673       -0.03113703911101
O            8.11944343443412        0.33828863613833        0.43803170990940
C            8.83828948229865        1.53399398085376        0.24172585423969
C            6.22285964806914       -1.00697597885717        0.18436273582325
O            6.96975697189712       -1.92551697255755        0.83162975606302
C            6.43652008569991       -3.20681543264909        1.06343616393706
C            4.92654787325640       -1.19652455481227       -0.26661409453904
C           -0.12765948652845       -1.38655795815472       -0.72296717537706
C           -4.19303280384736        2.83798498086353        0.54315158728618
C           -4.83823585193515        2.54565387278062        1.89581586548828
C           -3.80726603576794        4.31259687529927        0.46446762301620
H           -4.84656012215559        0.68299239671892       -1.28917635356712
H           -7.00211395355646       -0.16123394766183       -1.79623888603841
H           -7.20693228622880       -1.58615907663667       -2.84256286892555
H           -5.78386099717127       -0.53923074221995       -3.04914683637086
H           -4.00994159686333       -4.17896066486522        2.15942719404123
H           -4.46610500833433       -5.42839877237624        0.85217117549817
H           -2.73476280989118       -2.49512597498874        1.61553537105206
H           -4.08874996927749       -1.81045094204684        2.50235955429966
H           -2.34652178884993       -0.03212575722501        2.09961830039830
H           -3.28894530373034        2.23399291044035       -1.85474059950122
H           -1.90375027803683        3.07606907343712       -1.17402019911247
H           -2.02558986902950        0.05680654968648       -1.61378536130525
H           -1.38657924224031        1.21984985743544       -2.77642662753306
H           -0.93077585183798        1.56334551378652        0.83657124321781
H            0.36433081204780        1.93877001951314       -1.06703179784722
H            2.00790325018710       -0.62245486823065        0.60653188114416
H            2.07033302975780        1.04784037640481        0.02530129222307
H            2.62082674947080        0.21090250668723       -2.26931357739203
H            2.66379301964918       -1.44460519927517       -1.64229777825982
H            4.35331588010451        1.83105487696860       -1.64992115346970
H            6.62954323146760        2.20516049608791       -0.86802327736505
H            8.35707227722493        2.37852954628754        0.74449806982629
H            8.95609048009961        1.76044517891675       -0.82223285544446
H            9.81744504323203        1.36163852072096        0.68435488479018
H            7.22138409883849       -3.76173626219345        1.57370919113989
H            5.55023515181894       -3.16333164214952        1.70492187264858
H            6.18639156014134       -3.71354887497604        0.12608161935092
H            4.43754434680736       -2.14633071977308       -0.11594596005740
H           -0.28822547269762       -1.71673215723284       -1.75192819630475
H           -1.08868580342771       -1.37666069606434       -0.20329189087666
H            0.52941514989895       -2.09813789057061       -0.22935515977745
H           -4.94067911833347        2.64519394013417       -0.23417812387513
H           -4.12869594031740        2.73419676670480        2.69461458753846
H           -5.17501771519376        1.51380434439155        1.95685934585028
H           -5.69882316608751        3.19460220294310        2.03505507587011
H           -3.04833472480790        4.54424887815167        1.20504098754729
H           -3.44193431534867        4.58471225407367       -0.52215548219108
H           -4.68317754028192        4.92074744481636        0.67398991258857
H           -1.01258771915694        2.88569958465695        2.76020279119480
72
 energy: -99.336613733164 gnorm: 0.016623015332 xtb: 6.6.1 (8d0f1dd)
N           -1.87039877893246        2.80693029668018        2.22068558394635
C           -1.83814378515821        2.09755648208823        1.19245031859996
C           -2.99830559009378        1.88890293546759        0.25774224444764
C           -3.49406060449776        0.45422493430359        0.38190516601184
C           -4.46399102861733       -0.01075629332102       -0.55423204658109
C           -4.91411552800489       -1.31610931118877       -0.54077203827896
O           -5.81214536734071       -1.83677063558037       -1.40836133931505
C           -6.46605065529195       -0.97619567719763       -2.31574226519059
C           -4.40986029482386       -2.22526511752473        0.42008814636103
O           -4.70659286393342       -3.50917246972920        0.29321172501508
C           -4.37645261224119       -4.44002787045240        1.14656564327012
C           -3.54210371992383       -1.75417778242950        1.54285849699200
C           -3.05033357422785       -0.36076736318894        1.36303134184097
C           -2.44891626827177        2.13678145007639       -1.17055652969965
C           -1.52885908571763        1.02400639758412       -1.70472947435999
C           -0.18863625960226        1.01373175849596       -1.07531094595060
N            0.47194483799930       -0.07344836834985       -0.68107502191276
C            1.85142530801169        0.01986773181557       -0.26583236114452
C            2.82391605617806       -0.39708740442253       -1.38608460677122
C            4.24141279678623       -0.18298582848929       -0.93355903337251
C            4.86846016498869        1.03535300189777       -1.13378869516275
C            6.16510982303642        1.24823859625057       -0.69106947003637
C            6.85964707755462        0.24475674287205       -0.03212630292025
O            8.11887156715838        0.33789721466712        0.43738161118968
C            8.83731164173490        1.53392728408592        0.24155344376638
C            6.22248257766168       -1.00766702154530        0.18332142167018
O            6.96946996681310       -1.92636063003740        0.83036275534096
C            6.43599514925133       -3.20753958006752        1.06231411536107
C            4.92606237212178       -1.19712882055805       -0.26740624396852
C           -0.12786342458344       -1.38439242165703       -0.72221687821477
C           -4.19483492400778        2.84347983823488        0.54195036448618
C           -4.83886291606952        2.54851222063398        1.89475174898437
C           -3.81154403365689        4.31857848626555        0.46427374821648
H           -4.84685455599195        0.67537250726988       -1.28800277290330
H           -6.98849604194985       -0.16866752309522       -1.79434497709081
H           -7.19286914322680       -1.59722939306646       -2.83573506540058
H           -5.76845850970727       -0.55224628756114       -3.04487536539626
H           -3.96354502922299       -4.22934424641981        2.12069577839253
H           -4.61856256276732       -5.45885790782199        0.84124166866334
H           -2.68211593640524       -2.44407335493728        1.64409621147775
H           -4.08205874174516       -1.81770849672097        2.50259793670164
H           -2.35459920624522       -0.01269018043981        2.10955263801619
H           -3.28896105740162        2.23823671774523       -1.85666502460507
H           -1.90323673708867        3.08085882233871       -1.17690712479783
H           -2.02712966293931        0.06056008062179       -1.61126175177834
H           -1.38754073094420        1.22117031140974       -2.77576996877579
H           -0.93200477460549        1.56974932174782        0.83651777404747
H            0.36440060483340        1.94097575616157       -1.06649578604286
H            2.00773030811870       -0.62006510368701        0.60679673274298
H            2.07094356766482        1.04949907055775        0.02397511276663
H            2.61996004220408        0.20952128994439       -2.27000656096786
H            2.66233915311059       -1.44515330620919       -1.64096334801596
H            4.35283304412867        1.83022098450749       -1.65112902822852
H            6.62916446269977        2.20429144195941       -0.86940531716387
H            8.35548447721647        2.37820021503422        0.74419202085425
H            8.95554081857905        1.76056980166748       -0.82231295454183
H            9.81631775155281        1.36194283207932        0.68464378091187
H            7.22087285409209       -3.76268744354205        1.57232470492175
H            5.54992380018887       -3.16382182147318        1.70409219811766
H            6.18542532910064       -3.71420257793920        0.12502899705631
H            4.43703596804268       -2.14690709799852       -0.11660966348428
H           -0.28805604107314       -1.71538412207003       -1.75078323907351
H           -1.08926882950157       -1.37473044921727       -0.20354040148108
H            0.52931232718333       -2.09548372641803       -0.22811635479734
H           -4.94254496020822        2.64930747942496       -0.23505755643877
H           -4.12851304634881        2.73530887864198        2.69314268317582
H           -5.17528734233377        1.51651612638777        1.95415651412262
H           -5.69942770374942        3.19669709294161        2.03645281077531
H           -3.05271086298430        4.55000066806961        1.20500018453777
H           -3.44586539150616        4.59065411754772       -0.52221466718403
H           -4.68773617300674        4.92623315372019        0.67386050568271
H           -1.01496389505968        2.89061311564653        2.76150889518318
72
 energy: -99.337083568624 gnorm: 0.009456616485 xtb: 6.6.1 (8d0f1dd)
N           -1.87120150883804        2.81309519865758        2.22092046045269
C           -1.83875725819779        2.10285601739701        1.19330715212136
C           -2.99883661436022        1.89280403904813        0.25873555728355
C           -3.49185419579908        0.45708843238308        0.38459727259069
C           -4.45610215904084       -0.01382223492840       -0.55427870293496
C           -4.90084786924031       -1.32072913492381       -0.53860799114342
O           -5.80028089949357       -1.84297538323454       -1.40370544634153
C           -6.45384464870223       -0.98471104696829       -2.31355418147965
C           -4.39606135518226       -2.23064783184045        0.42218433124189
O           -4.72134291198014       -3.50824673737613        0.29908970526537
C           -4.41524972925197       -4.45465261655191        1.14237684907693
C           -3.53140455155099       -1.75564275251201        1.54679922137631
C           -3.05113049671478       -0.35568398237305        1.36885030248248
C           -2.44968995915890        2.13984396546351       -1.16998584824905
C           -1.52952438429916        1.02680857239974       -1.70383463429848
C           -0.18915524481446        1.01629507465714       -1.07468583903628
N            0.47126168283370       -0.07115925551664       -0.68055449661841
C            1.85110164378205        0.02153161007803       -0.26610949706468
C            2.82291395525936       -0.39739148662277       -1.38623697760686
C            4.24069114556931       -0.18371721336432       -0.93430926521031
C            4.86796919970748        1.03443248183783       -1.13488999314119
C            6.16469376426931        1.24715891481315       -0.69231887973027
C            6.85913221235379        0.24369488930810       -0.03326552924008
O            8.11831609669406        0.33691685043578        0.43644906499256
C            8.83650185306628        1.53317442057004        0.24108220002669
C            6.22192155992817       -1.00868058716489        0.18215069409832
O            6.96895061920016       -1.92755906889135        0.82896709499550
C            6.43526920164866       -3.20862788000770        1.06102609748979
C            4.92537140624602       -1.19794705124617       -0.26829649956400
C           -0.12841226765231       -1.38211106925431       -0.72193310180034
C           -4.19617728273872        2.84675763679597        0.54166747905909
C           -4.84005330617802        2.55138240033202        1.89447526679381
C           -3.81433462527305        4.32231270426873        0.46387132142718
H           -4.84312605721361        0.67007506156750       -1.28790775325708
H           -6.97704518981283       -0.17644439941365       -1.79408757756280
H           -7.17990343409655       -1.60768763888740       -2.83215967054002
H           -5.75542076190574       -0.56240589174878       -3.04273124895841
H           -3.94724497073155       -4.25872051708834        2.09794566080844
H           -4.66687961251198       -5.45729668631474        0.82817611508405
H           -2.66178089782161       -2.42773307616065        1.65571382584624
H           -4.07801362218955       -1.82637910165263        2.50224083403041
H           -2.36013970910284       -0.00395040228362        2.11817221387061
H           -3.28959822861675        2.24081179621298       -1.85640325455731
H           -1.90396793316852        3.08392980988499       -1.17735169082271
H           -2.02803842339635        0.06355830279798       -1.60959943725098
H           -1.38840202381957        1.22306602897878       -2.77510494903679
H           -0.93218722988514        1.57619761331365        0.83679164421409
H            0.36424643197335        1.94332065980898       -1.06590690468534
H            2.00728007735252       -0.61771785640469        0.60706534352251
H            2.07151250281880        1.05124221104995        0.02265122406410
H            2.61911745449776        0.20833137688367       -2.27079860341962
H            2.66062977439327       -1.44565267390112       -1.63987049504610
H            4.35241611730732        1.82929881411367       -1.65230333764297
H            6.62888211220129        2.20311463972903       -0.87082829728588
H            8.35422245118756        2.37723993138519        0.74364648652366
H            8.95511369005763        1.76001698112204       -0.82269872190831
H            9.81537390321481        1.36141694399968        0.68455623080598
H            7.22017387802845       -3.76398333392257        1.57077145188996
H            5.54940814698989       -3.16473126835811        1.70308590623648
H            6.18429072492220       -3.71521049956865        0.12380390722322
H            4.43624962845256       -2.14766049600436       -0.11737308300695
H           -0.28789181566365       -1.71351788194287       -1.75049407389129
H           -1.09026301869027       -1.37253641925123       -0.20423104714338
H            0.52852247233796       -2.09302181806754       -0.22720335972675
H           -4.94354298743558        2.65167006090336       -0.23556873705753
H           -4.12915516093864        2.73722500739015        2.69260506296417
H           -5.17672395685743        1.51943140130625        1.95311188792040
H           -5.70025521218132        3.19979456963007        2.03710284700454
H           -3.05614444906408        4.55471098612046        1.20495889413787
H           -3.44840630760296        4.59478043579650       -0.52244612639652
H           -4.69113741172239        4.92924560233989        0.67296429234965
H           -1.01548842639504        2.89846337345365        2.76098619598607
