25
 energy: 0.000000000000 xtb: 6.6.1 (8d0f1dd)
C            3.23720132972391        1.16630909158653        0.08434468864950
N            2.29877796055224        0.07527476373246        0.03981602671198
C            2.58028186251803       -1.21425391179017        0.03006175752192
N            1.43813944744728       -1.93419254010258        0.00098261751768
C            0.39035684826767       -1.05887462812143       -0.00790371763344
C            0.93510047688824        0.21347817468824        0.01709077332874
C            0.09450143016486        1.40504290868848       -0.00410946993748
O            0.49712746915594        2.54126690785742       -0.00342325656480
N           -1.25076628431515        1.06271869620815       -0.03085477937476
C           -2.21907191394203        2.15522079838987       -0.05001256521996
C           -1.81739470187490       -0.20012724136556       -0.04692818139228
O           -2.99983858926755       -0.37846413507442       -0.07008877579474
N           -0.92618577614240       -1.30210203518959       -0.03682761236648
C           -1.46982251276835       -2.64643077634382       -0.06029819901142
H            3.71247229913541        1.21471443890471        1.06488839270555
H            4.00791460421487        1.03430799217987       -0.67357688121503
H            2.69909982127087        2.09770098766290       -0.09130154035862
H            3.56654087521359       -1.63682977417947        0.04233139674524
H           -1.67107945562430        3.09322822573871       -0.02552706696334
H           -2.82428927394145        2.09428605349656       -0.95318074103337
H           -2.87644002486466        2.07745706351925        0.81450059976605
H           -1.17061985538665       -3.19584861009707        0.83242224714061
H           -1.14560246782873       -3.17511580834413       -0.95688266944647
H           -2.55549768731684       -2.55659960601237       -0.07459039105944
H            1.38130842369251       -2.94313824728853       -0.01389874052104
25
 energy: -5.910748744674 xtb: 6.6.1 (8d0f1dd)
C            3.24263003488592        1.17920223578840        0.08642200167468
N            2.30705965342694        0.10713228123250        0.02983967008823
C            2.60774262930908       -1.23379980507617        0.02267860352768
N            1.42859766497001       -1.93472823329854       -0.00869540804892
C            0.40321397335669       -1.06195512919421       -0.00751972929515
C            0.92162042840784        0.22753877884945        0.01154775106843
C            0.11831370909974        1.38761946807065       -0.00715018431836
O            0.49504773791026        2.56297374617810       -0.00372521493376
N           -1.26506890062356        1.04767153432259       -0.03554462313513
C           -2.21508551635166        2.14993157935628       -0.04848717436462
C           -1.81159441054688       -0.20020781021662       -0.04845270851131
O           -3.01157172333077       -0.38365871119680       -0.07510366264545
N           -0.93556367796730       -1.31332776124402       -0.01150342904955
C           -1.48259552319049       -2.65659102639177       -0.03980332721678
H            3.71917805231383        1.22355480354092        1.06992262294731
H            4.01424761984437        1.04620125528356       -0.67433292778452
H            2.69974140908898        2.10651055957987       -0.08915323132671
H            3.58522728064177       -1.64342434872086        0.03333595884162
H           -1.65411468581974        3.08307589474844       -0.02417716764234
H           -2.82327846439880        2.09979706716487       -0.95116095647726
H           -2.87137988637353        2.08182731138307        0.81890607169902
H           -1.26789168428169       -3.25104691153676        0.85535867846422
H           -1.10902825511771       -3.19946308641456       -0.91038847968374
H           -2.56184039633179       -2.54277690408667       -0.12255632145186
H            1.37791201816973       -2.93843309836179       -0.02665488133358
25
 energy: -4.825454880763 xtb: 6.6.1 (8d0f1dd)
C            3.24460210073425        1.18656138216786        0.08550514010592
N            2.31134604304340        0.11149299499265        0.02527503040023
C            2.61557531571382       -1.23010843259757        0.01445215415863
N            1.43651629869185       -1.93182247027019       -0.01645024868215
C            0.40722291223629       -1.06430002880985       -0.00542990572651
C            0.92413969903527        0.22849938228479        0.00943777660958
C            0.12273366195537        1.38831699022827       -0.00818874289049
O            0.49720281309597        2.56483020308282       -0.00376060368948
N           -1.26148346308918        1.04406758303898       -0.03895107381502
C           -2.20983667903701        2.15029656175272       -0.04736731113721
C           -1.80649845764987       -0.20514277399999       -0.04552873813626
O           -3.00737117428510       -0.38346674554968       -0.08561461400685
N           -0.93354591420652       -1.32704878856582        0.01368729776885
C           -1.49692273417678       -2.67269695594087       -0.02058811072634
H            3.72252054342851        1.22951659963692        1.06884072325128
H            4.01642565360384        1.05984693153280       -0.67656446882299
H            2.70005737354508        2.11422671481335       -0.08600287863243
H            3.59389133108549       -1.64026968108183        0.02562731951649
H           -1.64570568789060        3.08213857870698       -0.02236415004029
H           -2.82299065596121        2.10814717323261       -0.94727431827798
H           -2.86365671977651        2.08508500032613        0.82236771489706
H           -1.36785453756723       -3.30192738452981        0.87430507673539
H           -1.07702555856782       -3.22588805350366       -0.86342886652809
H           -2.56701441834603       -2.53641849556271       -0.16981855460932
H            1.38407969968063       -2.93517711029252       -0.03875352601182
25
 energy: -2.989690167364 xtb: 6.6.1 (8d0f1dd)
C            3.24652152849965        1.19354898191451        0.08559829833353
N            2.31475164486074        0.11673321728470        0.01979923307206
C            2.62249936245460       -1.22534630531939        0.00456554608459
N            1.44391462471975       -1.92798038416855       -0.02532321693036
C            0.41050858512537       -1.06633803591570       -0.00615916049560
C            0.92570498764351        0.22996354348717        0.00545659237587
C            0.12698019682073        1.38948487236627       -0.01035156584201
O            0.49911843069964        2.56743016812653       -0.00423833932081
N           -1.25738874742303        1.04263040428090       -0.04284717589066
C           -2.20460670973261        2.15111428327009       -0.04601180447990
C           -1.80051366706132       -0.20880283741152       -0.04256085110864
O           -3.00204283976354       -0.38227406115104       -0.09222123214330
N           -0.93214864504361       -1.33965492534978        0.03703209049170
C           -1.51269518337745       -2.68884092305782       -0.00225230786366
H            3.72447328409879        1.23490046975636        1.06943529270650
H            4.01965783840312        1.07100199424463       -0.67612744740735
H            2.70126353963602        2.12154456035578       -0.08342564172718
H            3.60149007852992       -1.63523968684253        0.01705171859802
H           -1.63665395304839        3.08126239125122       -0.02100108180808
H           -2.82152764507704        2.11440306721284       -0.94366213455735
H           -2.85631168899398        2.08854443523594        0.82588372068522
H           -1.47051501769512       -3.34888802926537        0.88935344604089
H           -1.04345792729021       -3.25079350305321       -0.81405765294523
H           -2.56926419036419       -2.52735532558797       -0.21753835657211
H            1.39112483040195       -2.93097770355408       -0.05078011037132
25
 energy: -0.416046166597 xtb: 6.6.1 (8d0f1dd)
C            3.24810410150862        1.20051667568693        0.08550152899404
N            2.31731123468792        0.12237718675866        0.01383785900206
C            2.62868928547545       -1.21967745908902       -0.00581652259106
N            1.45094360496596       -1.92384990022042       -0.03418891590416
C            0.41220865250962       -1.06928118901636       -0.00906123755106
C            0.92620847854702        0.23110501025711        0.00092627231389
C            0.13105802021055        1.39102245979774       -0.01200362446082
O            0.50131998612222        2.57023972884543       -0.00435461355617
N           -1.25357972228518        1.04294512315780       -0.04317805929901
C           -2.19967282198108        2.15295211350190       -0.04421152364381
C           -1.79530777617566       -0.21098554529485       -0.03902053886037
O           -2.99737881256980       -0.37982523953041       -0.09772416974010
N           -0.93295280049496       -1.35174494861774        0.05821586673390
C           -1.53071260337138       -2.70644551280918        0.01437327719903
H            3.72657881010829        1.24005922834217        1.06963372981862
H            4.02234194820731        1.08170577195156       -0.67600906012034
H            2.70260701593183        2.12904216018266       -0.08086499954983
H            3.60865972702553       -1.62854676358787        0.00880586227784
H           -1.62809224447001        3.08147340019249       -0.02033386142454
H           -2.81985768494546        2.12000792324306       -0.93986823996030
H           -2.84946583301652        2.09332530086152        0.82955570547718
H           -1.57361519414003       -3.39296433538550        0.90028967332492
H           -1.01222443733709       -3.27598203143628       -0.76340361569711
H           -2.56940737108838       -2.52351383947624       -0.26550869787441
H            1.39946898662476       -2.92660288038737       -0.06191419896650
25
 energy: 2.962336089911 xtb: 6.6.1 (8d0f1dd)
C            3.24973657861777        1.20744708720984        0.08495729385489
N            2.31929481379975        0.12847328049890        0.00755954954788
C            2.63370143045544       -1.21330863569118       -0.01654077170148
N            1.45671991844862       -1.91901770650060       -0.04227961037613
C            0.41196023175580       -1.07107246121108       -0.01323209456368
C            0.92615843091217        0.23289804289148       -0.00411773420134
C            0.13509217114528        1.39376188873855       -0.01380105082706
O            0.50327682781092        2.57410042502846       -0.00609588699135
N           -1.24998510221553        1.04431198001888       -0.04282897266474
C           -2.19483141907300        2.15562698997101       -0.04185753245306
C           -1.79142078217494       -0.21126534426181       -0.03594529717592
O           -2.99359126434428       -0.37627698991974       -0.10456530705273
N           -0.93520572456140       -1.36333025012341        0.07885803181043
C           -1.54863025588853       -2.72574730976057        0.02979180856559
H            3.72837275619915        1.24604389218481        1.06953230158115
H            4.02552193649719        1.09124856820955       -0.67571453255142
H            2.70471474407358        2.13662195491497       -0.08001365824748
H            3.61487442395897       -1.62075401693548       -0.00076958044229
H           -1.61934289754085        3.08219170692395       -0.01675608281305
H           -2.81701197704842        2.12752875363757       -0.93643194549321
H           -2.84361023386962        2.09716083891826        0.83290283809227
H           -1.67608614958562       -3.43659465135011        0.90885301534148
H           -0.98159262873789       -3.30023904335794       -0.71140125108064
H           -2.56497443502597       -2.52679337368573       -0.31652696574936
H            1.40784371262445       -2.92176616184800       -0.07182750015033
25
 energy: 6.692436769633 xtb: 6.6.1 (8d0f1dd)
C            3.25260733658704        1.21505427809539        0.08521770719248
N            2.32240496248082        0.13574056961928        0.00070224995613
C            2.63862330353776       -1.20616357680005       -0.02826932448942
N            1.46184901205954       -1.91312693428575       -0.05090909407506
C            0.41389737710054       -1.06814260763641       -0.01907150539844
C            0.92809814446365        0.23739296114462       -0.01055706720627
C            0.13984816106589        1.39887314868242       -0.01675181909703
O            0.50631744773116        2.57998615494460       -0.00921254566763
N           -1.24599234800258        1.04900663033823       -0.04252094711298
C           -2.18991440810309        2.16061341098475       -0.03970314672951
C           -1.78762298187898       -0.20655832185272       -0.03649631780562
O           -2.98943459295209       -0.37065118725025       -0.11034173732740
N           -0.93329653577250       -1.36321386409307        0.08217744535990
C           -1.55120824735202       -2.72647494606081        0.03603267775741
H            3.73123673459335        1.25141568860473        1.07030747352923
H            4.02986061125335        1.10221348357778       -0.67461812095527
H            2.70836677276400        2.14522046600832       -0.07692751179334
H            3.62069478451191       -1.61254086601126       -0.01133889331088
H           -1.61151892568387        3.08559631956936       -0.01525380663318
H           -2.81481299225759        2.13472254257205       -0.93252359704117
H           -2.83661367145357        2.10308291914177        0.83671583101567
H           -1.76692152231827       -3.47201354685486        0.90815790477751
H           -0.95105670235440       -3.32472171182859       -0.65867210391802
H           -2.55119684491616       -2.53100947117442       -0.36899278756384
H            1.41539916758833       -2.91611580421182       -0.08150250572733
25
 energy: 11.538201374616 xtb: 6.6.1 (8d0f1dd)
C            3.25564191281054        1.22290931674499        0.08517644572887
N            2.32627842029780        0.14316288135549       -0.00716147941499
C            2.64384161258334       -1.19894715154696       -0.03986196410033
N            1.46732656017612       -1.90675959890864       -0.06476074092472
C            0.41748529310388       -1.06308226256036       -0.02904995216853
C            0.93152767737211        0.24320994594544       -0.01733994435125
C            0.14389279362585        1.40462266825962       -0.01709597872462
O            0.50835834019957        2.58633094782493       -0.00196595214709
N           -1.24229423393785        1.05413409690715       -0.04389138702916
C           -2.18526867797792        2.16587755117907       -0.03885064161243
C           -1.78391822052532       -0.20124738585166       -0.04351058711921
O           -2.98516961154196       -0.36604582686466       -0.11951657813680
N           -0.92921936990155       -1.35887708672989        0.07287449073587
C           -1.54971096779558       -2.72564194760646        0.04234162935420
H            3.73450388479391        1.25535137591207        1.07055650413693
H            4.03352979498711        1.11531412476768       -0.67483690439745
H            2.71140900921821        2.15393079905593       -0.07199127642781
H            3.62633089237342       -1.60508996805108       -0.01556721823240
H           -1.60322880279026        3.08873972749864       -0.01670171669166
H           -2.81378581326190        2.14235377930705       -0.92923346796805
H           -2.82853699557782        2.10956908843204        0.84015829366302
H           -1.85948324387279       -3.50237420503462        0.91129567263515
H           -0.92233375180979       -3.34706322880922       -0.60428769625486
H           -2.53332674982577       -2.54197245497880       -0.40510260060680
H            1.42344206735922       -2.91013915624454       -0.09879103127260
25
 energy: 17.750876612743 xtb: 6.6.1 (8d0f1dd)
C            3.25821832720394        1.23066775302638        0.08181632717585
N            2.33037631205875        0.15022451346083       -0.01368680386817
C            2.64908138164487       -1.19191371366042       -0.04852048803628
N            1.47313308662233       -1.90065017840751       -0.06934676471057
C            0.42160798568392       -1.05767539599570       -0.03058610963778
C            0.93566977687609        0.24927223341295       -0.01634259406971
C            0.14778521529917        1.41059368615077       -0.01568939602797
O            0.51040412140366        2.59281355190097       -0.00196571667240
N           -1.23840228140813        1.05905392941316       -0.04169570760360
C           -2.18099829016313        2.17030583230074       -0.03749019692352
C           -1.78031023195692       -0.19577668890317       -0.04413083806643
O           -2.98073202000625       -0.36233747865682       -0.12379645577828
N           -0.92473700123127       -1.35384462963556        0.06807119568757
C           -1.54664995403054       -2.72182269667656        0.04330573310026
H            3.73704521235062        1.26405147851848        1.06740105523785
H            4.03615746724727        1.12477516146738       -0.67826680477190
H            2.71239773069141        2.16080464250189       -0.07495194247228
H            3.63213109578312       -1.59768592453240       -0.02187414994433
H           -1.59449041103097        3.09055520691266       -0.01551243487062
H           -2.81033918247536        2.14885629550083       -0.92744314746648
H           -2.82342325049782        2.11438467976322        0.84225429896402
H           -1.94784068483994       -3.54643295619956        0.90574130424039
H           -0.89462442158412       -3.36354386371518       -0.55382817643647
H           -2.50588428291026       -2.54616810712948       -0.44796505459301
H            1.43219546243633       -2.90459857458086       -0.10513843711324
25
 energy: 26.632358773281 xtb: 6.6.1 (8d0f1dd)
C            3.26077501365982        1.23825933243117        0.08367955863901
N            2.33454070851952        0.15747047069570       -0.02182024099662
C            2.65353193453581       -1.18396299500637       -0.06172704356305
N            1.47880263554851       -1.89370177252074       -0.07912846570287
C            0.42542502336891       -1.05133528489512       -0.03688089066685
C            0.94023582227527        0.25570294911917       -0.01848265943172
C            0.15219685605651        1.41725310176517       -0.01808800027921
O            0.51498006783451        2.59943993606072       -0.00600917803039
N           -1.23398653590766        1.06541315150901       -0.04221895110143
C           -2.17664173544309        2.17621962062287       -0.03661984800159
C           -1.77679028689058       -0.18871574807696       -0.04889397096375
O           -2.97635804961759       -0.35659174057664       -0.12788272955442
N           -0.92046877947211       -1.34744527969198        0.05735849920812
C           -1.54097732731621       -2.71189072831173        0.04186050296611
H            3.73765542067911        1.26887481994323        1.07060054281185
H            4.04013078773408        1.13630664701624       -0.67511741721900
H            2.71400828514801        2.16828343231179       -0.06992898570616
H            3.63734237079479       -1.58914546077028       -0.03311333788310
H           -1.58758097655092        3.09532492952137       -0.01569756661129
H           -2.80817169303090        2.15575842439834       -0.92506058429236
H           -2.81717968805501        2.11973826392502        0.84461069711632
H           -2.03724542607331       -3.60373047239407        0.91093815153032
H           -0.87067891355142       -3.38227317676650       -0.49349657043024
H           -2.47765375106553       -2.55137599322176       -0.48427688545434
H            1.44114208691035       -2.89824242965449       -0.11647337536082
25
 energy: 40.930137084537 xtb: 6.6.1 (8d0f1dd)
C            3.26394789234177        1.24553920170515        0.08673577531824
N            2.33929849926255        0.16388946778284       -0.03152884253991
C            2.65592044651907       -1.17423296501959       -0.07454375567111
N            1.48548963888103       -1.88554292126558       -0.09205601546633
C            0.42933344741860       -1.04358756685564       -0.04612182686503
C            0.94537277105720        0.26282714151682       -0.02296588204839
C            0.15557560461862        1.42376158551728       -0.02167053409674
O            0.52116403738455        2.60431746660978       -0.00756211850751
N           -1.22946791054909        1.07302333741477       -0.04481009580289
C           -2.17259604009408        2.18360652740966       -0.03654663254051
C           -1.77427880506171       -0.18023345815911       -0.05905893713677
O           -2.97231298511370       -0.35043930209417       -0.13346243526716
N           -0.91435901996080       -1.33838107799175        0.03717978176169
C           -1.52239356002021       -2.68475696741956        0.03036120622721
H            3.73601256762165        1.27172596588051        1.07597941931625
H            4.04614120785873        1.14839564320238       -0.66914807353058
H            2.71715911016135        2.17604283398734       -0.06347876787876
H            3.64102069788609       -1.57934701839394       -0.04247597665582
H           -1.58423372839686        3.10316096361362       -0.01446822278557
H           -2.80603233164758        2.16573136669531       -0.92360497723055
H           -2.81120717090171        2.12520821668632        0.84575946618646
H           -2.14214562500678       -3.70258916078229        0.93298751901968
H           -0.84300481546621       -3.39158533589327       -0.43206578576829
H           -2.44876225061269       -2.55924970848625       -0.50523550456129
H            1.45017881373983       -2.89095004871181       -0.13072095048412
25
 energy: 60.607794224056 xtb: 6.6.1 (8d0f1dd)
C            3.26756255559297        1.25253038524944        0.08642024521814
N            2.34565159748375        0.16585322420605       -0.03563081149041
C            2.65390353123375       -1.15915223819411       -0.07936833148395
N            1.49562928132760       -1.87484150164940       -0.09988544614702
C            0.43279339060467       -1.02873919977212       -0.05705030465213
C            0.95540102473002        0.27467141771477       -0.02428084215774
C            0.15702778998878        1.43501792587364       -0.02133599618835
O            0.52772086354128        2.61042147689571       -0.00534890153384
N           -1.21991650178670        1.08621388773630       -0.04333999634961
C           -2.16822348592893        2.19194700969353       -0.03501252911018
C           -1.76893670285994       -0.16964856728238       -0.06736238221225
O           -2.96379290782086       -0.34053380297450       -0.13406087611478
N           -0.89655672057210       -1.31475044829050       -0.00265139079426
C           -1.47670859237381       -2.61955311963995       -0.01540700484888
H            3.73502383754029        1.27880418796956        1.07686117496710
H            4.05023849247667        1.15905372585983       -0.66793147293180
H            2.71782002765295        2.18214345391267       -0.06235283762305
H            3.64240473000811       -1.56647789126864       -0.05311217132448
H           -1.58401101677318        3.11375771131568       -0.01302686800803
H           -2.80188366003298        2.17017506558066       -0.92197157346381
H           -2.80606780583327        2.13061934264284        0.84726625260214
H           -2.30592269218905       -3.89861978930618        0.98029330973119
H           -0.81315414415039       -3.39728704588114       -0.36004287641035
H           -2.41693960478698       -2.56545541865488       -0.52096000547378
H            1.45889499638636       -2.88216137400257       -0.13962579036211
25
 energy: 69.143859772361 xtb: 6.6.1 (8d0f1dd)
C            3.26975706977888        1.25966830944004        0.08488090724444
N            2.35022712237754        0.16941863353215       -0.04211811841492
C            2.65397805815896       -1.14685946481556       -0.08475583016625
N            1.50374015579366       -1.86670625558575       -0.10637501661385
C            0.43601796532244       -1.01724663978982       -0.06844135762342
C            0.96339041384498        0.28448749879264       -0.02757650902694
C            0.15942279732015        1.44454762054270       -0.02234175810156
O            0.53348404559865        2.61729659925735       -0.00243686689153
N           -1.21298743863605        1.09587588334382       -0.04455454493486
C           -2.16494916132704        2.19873306715755       -0.03272017325511
C           -1.76459666923139       -0.16191655811097       -0.07615662214774
O           -2.95760073158711       -0.33390256338036       -0.13536302956642
N           -0.88535376922467       -1.29849305566535       -0.02972656053484
C           -1.44705491855758       -2.58361331408649       -0.04140032606111
H            3.73482397302611        1.28544319097507        1.07513473924151
H            4.05359273232490        1.17025987218305       -0.66754093604744
H            2.71802329070326        2.18884335379468       -0.06037702936038
H            3.64434293197849       -1.55475006579609       -0.06089341507894
H           -1.58650979856909        3.12336948200148       -0.01147775476423
H           -2.79980416649432        2.17558881462992       -0.91854338044819
H           -2.80065307162465        2.13598306793173        0.85042298515660
H           -2.43468285000081       -4.03659394821333        0.99532220359419
H           -0.79077166589053       -3.39994685982858       -0.28860410012040
H           -2.39214943105365       -2.58737366941362       -0.53140384134871
H            1.46835107423362       -2.87475974725130       -0.14795412953204
25
 energy: 74.341087741850 xtb: 6.6.1 (8d0f1dd)
C            3.27101686203427        1.26476127982941        0.08557195985080
N            2.35354090051301        0.17013692107010       -0.04175827422638
C            2.65353629122236       -1.13749230787209       -0.08813175483461
N            1.51090450225789       -1.86048002421373       -0.11330467545596
C            0.43866495836257       -1.00712296635676       -0.08217725750861
C            0.97013082230899        0.29412484888488       -0.03231386584387
C            0.16224933907314        1.45322151935757       -0.02568700406921
O            0.53745112128651        2.62512760103135       -0.00058420573709
N           -1.20776136492051        1.10385482639692       -0.04824601131979
C           -2.16291800181829        2.20491182033242       -0.02998681531363
C           -1.76149679813633       -0.15312773218160       -0.08669473478211
O           -2.95404933423618       -0.32683911917062       -0.13298578373627
N           -0.87704283261324       -1.28545872258907       -0.05571969569664
C           -1.42512723981377       -2.55295537173447       -0.06333120295385
H            3.73450644697361        1.28801651667882        1.07444861181341
H            4.05564098229552        1.17899789782332       -0.66554875475928
H            2.71913577083535        2.19473143099313       -0.05647680403640
H            3.64560380400628       -1.54430236694660       -0.06973346358443
H           -1.58999086651365        3.13165234713243       -0.00873309197872
H           -2.80047473223252        2.18170324581068       -0.91332680940913
H           -2.79565894484081        2.14193722549671        0.85491364562570
H           -2.54637377271537       -4.16575664688131        1.00624253614670
H           -0.77879476160108       -3.39676726157954       -0.21783440749967
H           -2.38976111862310       -2.60132535604793       -0.50650077010458
H            1.47772317020344       -2.86860024020774       -0.15600646888119
25
 energy: 77.340283773219 xtb: 6.6.1 (8d0f1dd)
C            3.27250630427874        1.27042455177665        0.08367950437683
N            2.35544601707092        0.17190866847162       -0.03792475151181
C            2.65206562491646       -1.12758591271281       -0.08843610727368
N            1.51770167669952       -1.85363776432392       -0.11833221623294
C            0.44060694498228       -0.99697018800184       -0.09347992928941
C            0.97513633802715        0.30456701858056       -0.03491323683139
C            0.16494524818441        1.46130840582464       -0.02696324802834
O            0.54085730755431        2.63328538109051        0.00289977347461
N           -1.20311809888179        1.10963140256071       -0.05284888452456
C           -2.16098777646398        2.20869649334236       -0.02697405245026
C           -1.76020003512001       -0.14383098025020       -0.09705416046315
O           -2.95312048827346       -0.31979653667294       -0.13193773520574
N           -0.87076922827679       -1.27391793183132       -0.07939187869835
C           -1.40389472164055       -2.52599513992999       -0.09126596884162
H            3.73386783447253        1.28906631232349        1.07118061957586
H            4.05842804543668        1.18921410482913       -0.66649730741182
H            2.72219736561219        2.20220257020636       -0.05704903409821
H            3.64623346432445       -1.53249113827965       -0.07603711227181
H           -1.59458217221247        3.13812077970359       -0.00887317112087
H           -2.80166990392215        2.18229728142818       -0.90690234753775
H           -2.78885434921648        2.14215033672960        0.86089420878602
H           -2.65626198368563       -4.28714832405361        1.01521182466565
H           -0.76686718282726       -3.38869648230665       -0.14630480671094
H           -2.40143823767873       -2.60889220106729       -0.44191765186422
H            1.48729010327568       -2.86152530561351       -0.16537623847858
25