      -----------------------------------------------------------      
     |                   =====================                   |     
     |                           x T B                           |     
     |                   =====================                   |     
     |                         S. Grimme                         |     
     |          Mulliken Center for Theoretical Chemistry        |     
     |                    University of Bonn                     |     
      -----------------------------------------------------------      

   * xtb version 6.6.1 (8d0f1dd) compiled by 'conda@1efc2f54142f' on 2023-08-01

   xtb is free software: you can redistribute it and/or modify it under
   the terms of the GNU Lesser General Public License as published by
   the Free Software Foundation, either version 3 of the License, or
   (at your option) any later version.
   
   xtb is distributed in the hope that it will be useful,
   but WITHOUT ANY WARRANTY; without even the implied warranty of
   MERCHANTABILITY or FITNESS FOR A PARTICULAR PURPOSE.  See the
   GNU Lesser General Public License for more details.
   
   Cite this work as:
   * C. Bannwarth, E. Caldeweyher, S. Ehlert, A. Hansen, P. Pracht,
     J. Seibert, S. Spicher, S. Grimme, WIREs Comput. Mol. Sci., 2020, 11,
     e01493. DOI: 10.1002/wcms.1493
   
   for GFN2-xTB:
   * C. Bannwarth, S. Ehlert and S. Grimme., J. Chem. Theory Comput., 2019,
     15, 1652-1671. DOI: 10.1021/acs.jctc.8b01176
   for GFN1-xTB:
   * S. Grimme, C. Bannwarth, P. Shushkov, J. Chem. Theory Comput., 2017,
     13, 1989-2009. DOI: 10.1021/acs.jctc.7b00118
   for GFN0-xTB:
   * P. Pracht, E. Caldeweyher, S. Ehlert, S. Grimme, ChemRxiv, 2019, preprint.
     DOI: 10.26434/chemrxiv.8326202.v1
   for GFN-FF:
   * S. Spicher and S. Grimme, Angew. Chem. Int. Ed., 2020, 59, 15665-15673.
     DOI: 10.1002/anie.202004239
   
   for ALPB and GBSA implicit solvation:
   * S. Ehlert, M. Stahn, S. Spicher, S. Grimme, J. Chem. Theory Comput.,
     2021, 17, 4250-4261. DOI: 10.1021/acs.jctc.1c00471
   
   for DFT-D4:
   * E. Caldeweyher, C. Bannwarth and S. Grimme, J. Chem. Phys., 2017,
     147, 034112. DOI: 10.1063/1.4993215
   * E. Caldeweyher, S. Ehlert, A. Hansen, H. Neugebauer, S. Spicher,
     C. Bannwarth and S. Grimme, J. Chem. Phys., 2019, 150, 154122.
     DOI: 10.1063/1.5090222
   * E. Caldeweyher, J.-M. Mewes, S. Ehlert and S. Grimme, Phys. Chem. Chem. Phys.
     2020, 22, 8499-8512. DOI: 10.1039/D0CP00502A
   
   for sTDA-xTB:
   * S. Grimme and C. Bannwarth, J. Chem. Phys., 2016, 145, 054103.
     DOI: 10.1063/1.4959605
   
   in the mass-spec context:
   * V. Asgeirsson, C. Bauer and S. Grimme, Chem. Sci., 2017, 8, 4879.
     DOI: 10.1039/c7sc00601b
   * J. Koopman and S. Grimme, ACS Omega 2019, 4, 12, 15120-15133.
     DOI: 10.1021/acsomega.9b02011
   
   for metadynamics refer to:
   * S. Grimme, J. Chem. Theory Comput., 2019, 155, 2847-2862
     DOI: 10.1021/acs.jctc.9b00143
   
   for SPH calculations refer to:
   * S. Spicher and S. Grimme, J. Chem. Theory Comput., 2021, 17, 1701-1714
     DOI: 10.1021/acs.jctc.0c01306
   
   with help from (in alphabetical order)
   P. Atkinson, C. Bannwarth, F. Bohle, G. Brandenburg, E. Caldeweyher
   M. Checinski, S. Dohm, S. Ehlert, S. Ehrlich, I. Gerasimov, C. Hölzer
   A. Katbashev, J. Koopman, C. Lavigne, S. Lehtola, F. März, M. Müller,
   F. Musil, H. Neugebauer, J. Pisarek, C. Plett, P. Pracht, F. Pultar,
   J. Seibert, P. Shushkov, S. Spicher, M. Stahn, M. Steiner, T. Strunk,
   J. Stückrath, T. Rose, and J. Unsleber
   
 * started run on 2024/06/05 at 19:58:42.245     

           -------------------------------------------------
          |                Calculation Setup                |
           -------------------------------------------------

          program call               : xtb struc.xyz --opt loose --input .xc1 --gfn2
          hostname                   : n-62-29-9
          coordinate file            : struc.xyz
          omp threads                :                     1

   ID    Z sym.   atoms
    1    6 C      1, 3, 5-7, 10, 11, 14
    2    7 N      2, 4, 9, 13
    3    8 O      8, 12
    4    1 H      15-25
constraining bond 2 16 to    4.0600000 Å, actual value:    2.0856233 Å

           -------------------------------------------------
          |                 G F N 2 - x T B                 |
           -------------------------------------------------

        Reference                      10.1021/acs.jctc.8b01176
      * Hamiltonian:
        H0-scaling (s, p, d)           1.850000    2.230000    2.230000
        zeta-weighting                 0.500000
      * Dispersion:
        s8                             2.700000
        a1                             0.520000
        a2                             5.000000
        s9                             5.000000
      * Repulsion:
        kExp                           1.500000    1.000000
        rExp                           1.000000
      * Coulomb:
        alpha                          2.000000
        third order                    shell-resolved
        anisotropic                    true
        a3                             3.000000
        a5                             4.000000
        cn-shift                       1.200000
        cn-exp                         4.000000
        max-rad                        5.000000


          ...................................................
          :                      SETUP                      :
          :.................................................:
          :  # basis functions                  67          :
          :  # atomic orbitals                  67          :
          :  # shells                           39          :
          :  # electrons                        74          :
          :  max. iterations                   250          :
          :  Hamiltonian                  GFN2-xTB          :
          :  restarted?                      false          :
          :  GBSA solvation                  false          :
          :  PC potential                    false          :
          :  electronic temp.         7500.0000000     K    :
          :  accuracy                    1.0000000          :
          :  -> integral cutoff          0.2500000E+02      :
          :  -> integral neglect         0.1000000E-07      :
          :  -> SCF convergence          0.1000000E-05 Eh   :
          :  -> wf. convergence          0.1000000E-03 e    :
          :  Broyden damping             0.4000000          :
          ...................................................

 iter      E             dE          RMSdq      gap      omega  full diag
   1    -42.5960780 -0.425961E+02  0.440E+00    3.52       0.0  T
   2    -42.7780033 -0.181925E+00  0.248E+00    3.37       1.0  T
   3    -42.7871777 -0.917437E-02  0.149E+00    3.50       1.0  T
   4    -42.7817164  0.546128E-02  0.642E-01    3.42       1.0  T
   5    -42.7911189 -0.940247E-02  0.115E-01    3.49       1.0  T
   6    -42.7912109 -0.920486E-04  0.685E-02    3.46       1.0  T
   7    -42.7912647 -0.537856E-04  0.265E-02    3.48       1.0  T
   8    -42.7912686 -0.385526E-05  0.113E-02    3.47       1.8  T
   9    -42.7912697 -0.111307E-05  0.441E-03    3.47       4.5  T
  10    -42.7912698 -0.733569E-07  0.139E-03    3.47      14.4  T
  11    -42.7912698 -0.243437E-08  0.602E-04    3.47      33.2  T
  12    -42.7912698 -0.222032E-08  0.181E-04    3.47     110.6  T

   *** convergence criteria satisfied after 12 iterations ***

         #    Occupation            Energy/Eh            Energy/eV
      -------------------------------------------------------------
         1        2.0000           -0.9116047             -24.8060
       ...           ...                  ...                  ...
        31        1.9942           -0.6212459             -16.9050
        32        1.9930           -0.6166804             -16.7807
        33        1.9876           -0.6031136             -16.4116
        34        1.9710           -0.5827317             -15.8569
        35        1.9403           -0.5651917             -15.3796
        36        1.9387           -0.5645672             -15.3627
        37        1.9155           -0.5566412             -15.1470 (HOMO)
        38        0.1907           -0.4290919             -11.6762 (LUMO)
        39        0.0640           -0.4015676             -10.9272
        40        0.0206           -0.3740689             -10.1789
        41        0.0006           -0.2879107              -7.8344
        42        0.0000           -0.2065811              -5.6214
       ...           ...                  ...                  ...
        67                          0.5613577              15.2753
      -------------------------------------------------------------
                  HL-Gap            0.1275493 Eh            3.4708 eV
             Fermi-level           -0.4825284 Eh          -13.1303 eV

 SCC (total)                   0 d,  0 h,  0 min,  0.036 sec
 SCC setup                      ...        0 min,  0.000 sec (  0.904%)
 Dispersion                     ...        0 min,  0.000 sec (  1.023%)
 classical contributions        ...        0 min,  0.000 sec (  0.285%)
 integral evaluation            ...        0 min,  0.006 sec ( 17.645%)
 iterations                     ...        0 min,  0.017 sec ( 48.003%)
 molecular gradient             ...        0 min,  0.012 sec ( 31.615%)
 printout                       ...        0 min,  0.000 sec (  0.489%)

         :::::::::::::::::::::::::::::::::::::::::::::::::::::
         ::                     SUMMARY                     ::
         :::::::::::::::::::::::::::::::::::::::::::::::::::::
         :: total energy             -35.299754804181 Eh    ::
         :: gradient norm              5.270609477625 Eh/a0 ::
         :: HOMO-LUMO gap              3.470793873671 eV    ::
         ::.................................................::
         :: SCC energy               -42.791269777655 Eh    ::
         :: -> isotropic ES            0.136760385929 Eh    ::
         :: -> anisotropic ES         -0.005341405309 Eh    ::
         :: -> anisotropic XC          0.011501049227 Eh    ::
         :: -> dispersion             -0.022650340738 Eh    ::
         :: repulsion energy           0.531105277918 Eh    ::
         :: add. restraining           6.960295536548 Eh    ::
         :: total charge               1.000000000010 e     ::
         :::::::::::::::::::::::::::::::::::::::::::::::::::::

      ----------------------------------------------------------- 
     |                   =====================                   |
     |                        A N C O P T                        |
     |                   =====================                   |
     |               Approximate Normal Coordinate               |
     |                Rational Function Optimizer                |
      ----------------------------------------------------------- 

          ...................................................
          :                      SETUP                      :
          :.................................................:
          :   optimization level             loose          :
          :   max. optcycles                   200          :
          :   ANC micro-cycles                  20          :
          :   degrees of freedom                69          :
          :.................................................:
          :   RF solver                   davidson          :
          :   write xtbopt.log                true          :
          :   linear?                        false          :
          :   energy convergence         0.5000000E-04 Eh   :
          :   grad. convergence          0.4000000E-02 Eh/α :
          :   maxmium RF displ.          1.0000000          :
          :   Hlow (freq-cutoff)         0.1000000E-01      :
          :   Hmax (freq-cutoff)         5.0000000          :
          :   S6 in model hess.         20.0000000          :
          ...................................................

generating ANC from model Hessian ...
Using Lindh-Hessian (1995)
 Shifting diagonal of input Hessian by    1.6739664472952760     
 Lowest  eigenvalues of input Hessian
    0.010000    0.253463    0.000000    0.000000    0.000000    0.000000
    0.000000    0.000000    1.677581    1.679539    1.681388    1.684339
    1.685117    1.686377    1.688910    1.692258    1.696059    1.709265
 Highest eigenvalues
    3.695650    3.857819    3.948145    4.079554    4.213057    4.766339


........................................................................
.............................. CYCLE    1 ..............................
........................................................................

 iter      E             dE          RMSdq      gap      omega  full diag
   1    -42.7912698 -0.427913E+02  0.838E-05    3.47       0.0  T
   2    -42.7912698 -0.247127E-10  0.452E-05    3.47     442.9  T
   3    -42.7912698 -0.149214E-11  0.279E-05    3.47     715.8  T
     SCC iter.                  ...        0 min,  0.005 sec
     gradient                   ...        0 min,  0.011 sec
 * total energy  :   -35.2997548 Eh     change       -0.2401990E-09 Eh
   gradient norm :     5.2706098 Eh/α   predicted     0.0000000E+00 (-100.00%)
   displ. norm   :     0.6740411 α      lambda       -0.3529800E+01
   maximum displ.:     0.5685930 α      in ANC's #69, #60, #51, ...

........................................................................
.............................. CYCLE    2 ..............................
........................................................................

 iter      E             dE          RMSdq      gap      omega  full diag
   1    -42.7344943 -0.427345E+02  0.853E-01    3.61       0.0  T
   2    -42.7354911 -0.996877E-03  0.496E-01    3.61       1.0  T
   3    -42.7349312  0.559948E-03  0.261E-01    3.62       1.0  T
   4    -42.7359779 -0.104672E-02  0.436E-02    3.62       1.0  T
   5    -42.7360090 -0.311120E-04  0.231E-02    3.61       1.0  T
   6    -42.7360104 -0.137105E-05  0.791E-03    3.62       2.5  T
   7    -42.7360115 -0.113622E-05  0.177E-03    3.62      11.3  T
   8    -42.7360116 -0.440637E-07  0.886E-04    3.62      22.6  T
   9    -42.7360116 -0.159933E-08  0.223E-04    3.62      89.6  T
     SCC iter.                  ...        0 min,  0.013 sec
     gradient                   ...        0 min,  0.011 sec
 * total energy  :   -38.3041669 Eh     change       -0.3004412E+01 Eh
   gradient norm :     3.6953170 Eh/α   predicted    -0.2567318E+01 ( -14.55%)
   displ. norm   :     0.7428196 α      lambda       -0.2726286E+01
   maximum displ.:     0.6068878 α      in ANC's #69, #60, #45, ...

........................................................................
.............................. CYCLE    3 ..............................
........................................................................

 iter      E             dE          RMSdq      gap      omega  full diag
   1    -42.5910366 -0.425910E+02  0.759E-01    3.17       0.0  T
   2    -42.5915556 -0.518960E-03  0.652E-01    3.40       1.0  T
   3    -42.5964534 -0.489779E-02  0.311E-01    3.31       1.0  T
   4    -42.5970194 -0.566000E-03  0.802E-02    3.35       1.0  T
   5    -42.5970664 -0.470726E-04  0.323E-02    3.33       1.0  T
   6    -42.5970831 -0.167109E-04  0.205E-02    3.34       1.0  T
   7    -42.5970868 -0.363863E-05  0.867E-03    3.34       2.3  T
   8    -42.5970879 -0.113153E-05  0.263E-03    3.34       7.6  T
   9    -42.5970880 -0.107178E-06  0.805E-04    3.34      24.8  T
  10    -42.5970880  0.996465E-10  0.399E-04    3.34      50.1  T
     SCC iter.                  ...        0 min,  0.014 sec
     gradient                   ...        0 min,  0.011 sec
 * total energy  :   -40.4521244 Eh     change       -0.2147957E+01 Eh
   gradient norm :     2.1413580 Eh/α   predicted    -0.2115301E+01 (  -1.52%)
   displ. norm   :     0.6813846 α      lambda       -0.1420248E+01
   maximum displ.:     0.4669892 α      in ANC's #69, #60, #1, ...

........................................................................
.............................. CYCLE    4 ..............................
........................................................................

 iter      E             dE          RMSdq      gap      omega  full diag
   1    -42.4597717 -0.424598E+02  0.798E-01    2.46       0.0  T
   2    -42.4540568  0.571485E-02  0.680E-01    2.40       1.0  T
   3    -42.4606907 -0.663390E-02  0.474E-01    2.53       1.0  T
   4    -42.4673225 -0.663182E-02  0.219E-01    2.46       1.0  T
   5    -42.4679752 -0.652677E-03  0.441E-02    2.48       1.0  T
   6    -42.4680081 -0.328420E-04  0.224E-02    2.47       1.0  T
   7    -42.4680145 -0.646977E-05  0.890E-03    2.47       2.2  T
   8    -42.4680156 -0.103640E-05  0.284E-03    2.47       7.0  T
   9    -42.4680158 -0.194731E-06  0.127E-03    2.47      15.7  T
  10    -42.4680158 -0.202076E-07  0.545E-04    2.47      36.7  T
  11    -42.4680158 -0.130711E-08  0.101E-04    2.47     198.4  T
     SCC iter.                  ...        0 min,  0.015 sec
     gradient                   ...        0 min,  0.011 sec
 * total energy  :   -41.5031200 Eh     change       -0.1050996E+01 Eh
   gradient norm :     1.0067252 Eh/α   predicted    -0.1039844E+01 (  -1.06%)
   displ. norm   :     0.5871064 α      lambda       -0.5238734E+00
   maximum displ.:     0.3583981 α      in ANC's #1, #69, #60, ...

........................................................................
.............................. CYCLE    5 ..............................
........................................................................

 iter      E             dE          RMSdq      gap      omega  full diag
   1    -42.3774395 -0.423774E+02  0.105E+00    1.63       0.0  T
   2    -42.3221049  0.553346E-01  0.149E+00    1.78       1.0  T
   3    -42.3955849 -0.734800E-01  0.550E-01    1.68       1.0  T
   4    -42.4015034 -0.591846E-02  0.372E-01    1.76       1.0  T
   5    -42.4050983 -0.359496E-02  0.138E-01    1.72       1.0  T
   6    -42.4056627 -0.564412E-03  0.323E-02    1.72       1.0  T
   7    -42.4056709 -0.818351E-05  0.189E-02    1.72       1.1  T
   8    -42.4056815 -0.106224E-04  0.768E-03    1.72       2.6  T
   9    -42.4056822 -0.647916E-06  0.323E-03    1.72       6.2  T
  10    -42.4056825 -0.264214E-06  0.117E-03    1.72      17.1  T
  11    -42.4056825 -0.199817E-07  0.585E-04    1.72      34.2  T
  12    -42.4056825 -0.523117E-08  0.185E-04    1.72     108.4  T
     SCC iter.                  ...        0 min,  0.017 sec
     gradient                   ...        0 min,  0.011 sec
 * total energy  :   -41.8415667 Eh     change       -0.3384467E+00 Eh
   gradient norm :     0.2980143 Eh/α   predicted    -0.3522248E+00 (   4.07%)
   displ. norm   :     0.6804136 α      lambda       -0.1076506E+00
   maximum displ.:     0.6617044 α      in ANC's #1, #2, #37, ...

........................................................................
.............................. CYCLE    6 ..............................
........................................................................

 iter      E             dE          RMSdq      gap      omega  full diag
   1    -42.3235528 -0.423236E+02  0.121E+00    1.21       0.0  T
   2    -42.1125289  0.211024E+00  0.260E+00    1.12       1.0  T
   3    -42.3779557 -0.265427E+00  0.557E-01    1.47       1.0  T
   4    -42.3740363  0.391941E-02  0.547E-01    1.43       1.0  T
   5    -42.3814122 -0.737599E-02  0.213E-01    1.45       1.0  T
   6    -42.3827069 -0.129469E-02  0.691E-02    1.50       1.0  T
   7    -42.3828058 -0.989063E-04  0.245E-02    1.51       1.0  T
   8    -42.3828207 -0.148914E-04  0.133E-02    1.50       1.5  T
   9    -42.3828245 -0.381087E-05  0.457E-03    1.50       4.4  T
  10    -42.3828251 -0.546915E-06  0.144E-03    1.50      13.9  T
  11    -42.3828251 -0.375888E-07  0.815E-04    1.50      24.6  T
  12    -42.3828251 -0.119394E-07  0.309E-04    1.50      64.6  T
     SCC iter.                  ...        0 min,  0.017 sec
     gradient                   ...        0 min,  0.011 sec
 * total energy  :   -41.8942326 Eh     change       -0.5266591E-01 Eh
   gradient norm :     0.2389788 Eh/α   predicted    -0.7875546E-01 (  49.54%)
   displ. norm   :     0.2623659 α      lambda       -0.2315175E-01
   maximum displ.:     0.2230533 α      in ANC's #1, #37, #45, ...

........................................................................
.............................. CYCLE    7 ..............................
........................................................................

 iter      E             dE          RMSdq      gap      omega  full diag
   1    -42.4077272 -0.424077E+02  0.308E-01    1.52       0.0  T
   2    -42.4027651  0.496218E-02  0.445E-01    1.47       1.0  T
   3    -42.4091462 -0.638117E-02  0.176E-01    1.52       1.0  T
   4    -42.4090455  0.100722E-03  0.169E-01    1.51       1.0  T
   5    -42.4098631 -0.817607E-03  0.575E-02    1.51       1.0  T
   6    -42.4099690 -0.105846E-03  0.119E-02    1.52       1.7  T
   7    -42.4099707 -0.178290E-05  0.626E-03    1.51       3.2  T
   8    -42.4099717 -0.955199E-06  0.320E-03    1.51       6.2  T
   9    -42.4099719 -0.226011E-06  0.906E-04    1.51      22.1  T
  10    -42.4099719 -0.235979E-07  0.370E-04    1.51      54.0  T
     SCC iter.                  ...        0 min,  0.014 sec
     gradient                   ...        0 min,  0.011 sec
 * total energy  :   -41.9148295 Eh     change       -0.2059687E-01 Eh
   gradient norm :     0.2085157 Eh/α   predicted    -0.1237296E-01 ( -39.93%)
   displ. norm   :     0.5484024 α      lambda       -0.9620165E-01
   maximum displ.:     0.2710132 α      in ANC's #37, #39, #69, ...

........................................................................
.............................. CYCLE    8 ..............................
........................................................................

 iter      E             dE          RMSdq      gap      omega  full diag
   1    -42.4730806 -0.424731E+02  0.789E-01    1.44       0.0  T
   2    -42.4692708  0.380982E-02  0.596E-01    1.43       1.0  T
   3    -42.4659931  0.327764E-02  0.598E-01    1.42       1.0  T
   4    -42.4767251 -0.107319E-01  0.270E-01    1.45       1.0  T
   5    -42.4785105 -0.178544E-02  0.764E-02    1.44       1.0  T
   6    -42.4786836 -0.173119E-03  0.308E-02    1.45       1.0  T
   7    -42.4787042 -0.205341E-04  0.128E-02    1.45       1.6  T
   8    -42.4787052 -0.100003E-05  0.299E-03    1.45       6.7  T
   9    -42.4787054 -0.208345E-06  0.922E-04    1.45      21.7  T
  10    -42.4787054 -0.713550E-08  0.504E-04    1.45      39.7  T
     SCC iter.                  ...        0 min,  0.014 sec
     gradient                   ...        0 min,  0.011 sec
 * total energy  :   -41.9742413 Eh     change       -0.5941180E-01 Eh
   gradient norm :     0.1696544 Eh/α   predicted    -0.6256724E-01 (   5.31%)
   displ. norm   :     0.5091912 α      lambda       -0.3482091E-01
   maximum displ.:     0.3133416 α      in ANC's #1, #37, #39, ...

........................................................................
.............................. CYCLE    9 ..............................
........................................................................

 iter      E             dE          RMSdq      gap      omega  full diag
   1    -42.4980820 -0.424981E+02  0.487E-01    1.25       0.0  T
   2    -42.4979596  0.122479E-03  0.328E-01    1.29       1.0  T
   3    -42.4968486  0.111097E-02  0.336E-01    1.23       1.0  T
   4    -42.4994537 -0.260512E-02  0.157E-01    1.28       1.0  T
   5    -42.5000352 -0.581491E-03  0.587E-02    1.27       1.0  T
   6    -42.5001902 -0.155001E-03  0.182E-02    1.27       1.1  T
   7    -42.5002020 -0.118496E-04  0.594E-03    1.27       3.4  T
   8    -42.5002020  0.559282E-07  0.257E-03    1.27       7.8  T
   9    -42.5002021 -0.156401E-06  0.747E-04    1.27      26.8  T
  10    -42.5002022 -0.132491E-07  0.299E-04    1.27      66.8  T
     SCC iter.                  ...        0 min,  0.014 sec
     gradient                   ...        0 min,  0.011 sec
 * total energy  :   -41.9976854 Eh     change       -0.2344410E-01 Eh
   gradient norm :     0.1786282 Eh/α   predicted    -0.2192459E-01 (  -6.48%)
   displ. norm   :     0.3318935 α      lambda       -0.2216358E-01
   maximum displ.:     0.1429462 α      in ANC's #1, #37, #2, ...

........................................................................
.............................. CYCLE   10 ..............................
........................................................................

 iter      E             dE          RMSdq      gap      omega  full diag
   1    -42.5110514 -0.425111E+02  0.327E-01    1.14       0.0  T
   2    -42.5096027  0.144868E-02  0.265E-01    1.19       1.0  T
   3    -42.5091971  0.405625E-03  0.277E-01    1.12       1.0  T
   4    -42.5118065 -0.260936E-02  0.590E-02    1.16       1.0  T
   5    -42.5118265 -0.200728E-04  0.276E-02    1.16       1.0  T
   6    -42.5118509 -0.243691E-04  0.511E-03    1.16       3.9  T
   7    -42.5118507  0.173718E-06  0.361E-03    1.16       5.5  T
   8    -42.5118510 -0.292850E-06  0.131E-03    1.16      15.3  T
   9    -42.5118511 -0.618027E-07  0.346E-04    1.16      57.8  T
  10    -42.5118511 -0.295535E-08  0.182E-04    1.16     110.1  T
     SCC iter.                  ...        0 min,  0.014 sec
     gradient                   ...        0 min,  0.011 sec
 * total energy  :   -42.0157343 Eh     change       -0.1804896E-01 Eh
   gradient norm :     0.1697743 Eh/α   predicted    -0.1230442E-01 ( -31.83%)
   displ. norm   :     0.4489001 α      lambda       -0.3403340E-01
   maximum displ.:     0.2111756 α      in ANC's #1, #2, #60, ...

........................................................................
.............................. CYCLE   11 ..............................
........................................................................

 iter      E             dE          RMSdq      gap      omega  full diag
   1    -42.5272107 -0.425272E+02  0.451E-01    0.98       0.0  T
   2    -42.5256772  0.153357E-02  0.315E-01    1.07       1.0  T
   3    -42.5228622  0.281495E-02  0.404E-01    0.93       1.0  T
   4    -42.5281447 -0.528247E-02  0.798E-02    1.02       1.0  T
   5    -42.5282167 -0.719917E-04  0.350E-02    1.01       1.0  T
   6    -42.5282537 -0.369604E-04  0.913E-03    1.01       2.2  T
   7    -42.5282538 -0.184308E-06  0.662E-03    1.01       3.0  T
   8    -42.5282551 -0.124186E-05  0.166E-03    1.01      12.0  T
   9    -42.5282551 -0.499411E-07  0.633E-04    1.01      31.6  T
  10    -42.5282551 -0.194697E-08  0.348E-04    1.01      57.4  T
     SCC iter.                  ...        0 min,  0.014 sec
     gradient                   ...        0 min,  0.011 sec
 * total energy  :   -42.0408606 Eh     change       -0.2512624E-01 Eh
   gradient norm :     0.1479969 Eh/α   predicted    -0.2044578E-01 ( -18.63%)
   displ. norm   :     0.3183681 α      lambda       -0.2423638E-01
   maximum displ.:     0.1409348 α      in ANC's #2, #1, #60, ...

........................................................................
.............................. CYCLE   12 ..............................
........................................................................

 iter      E             dE          RMSdq      gap      omega  full diag
   1    -42.5415936 -0.425416E+02  0.404E-01    0.86       0.0  T
   2    -42.5410782  0.515383E-03  0.251E-01    0.94       1.0  T
   3    -42.5380782  0.300004E-02  0.369E-01    0.81       1.0  T
   4    -42.5420772 -0.399902E-02  0.649E-02    0.90       1.0  T
   5    -42.5421500 -0.728380E-04  0.279E-02    0.89       1.0  T
   6    -42.5421691 -0.190807E-04  0.862E-03    0.89       2.3  T
   7    -42.5421693 -0.203171E-06  0.446E-03    0.89       4.5  T
   8    -42.5421698 -0.516586E-06  0.196E-03    0.89      10.2  T
   9    -42.5421699 -0.911171E-07  0.101E-03    0.89      19.7  T
  10    -42.5421699 -0.197624E-07  0.348E-04    0.89      57.4  T
  11    -42.5421699 -0.277913E-08  0.111E-04    0.89     179.9  T
     SCC iter.                  ...        0 min,  0.015 sec
     gradient                   ...        0 min,  0.011 sec
 * total energy  :   -42.0577612 Eh     change       -0.1690066E-01 Eh
   gradient norm :     0.1303601 Eh/α   predicted    -0.1334658E-01 ( -21.03%)
   displ. norm   :     0.2168414 α      lambda       -0.1533392E-01
   maximum displ.:     0.1139832 α      in ANC's #1, #59, #60, ...

........................................................................
.............................. CYCLE   13 ..............................
........................................................................

 iter      E             dE          RMSdq      gap      omega  full diag
   1    -42.5594319 -0.425594E+02  0.321E-01    0.77       0.0  T
   2    -42.5592828  0.149115E-03  0.200E-01    0.84       1.0  T
   3    -42.5581375  0.114529E-02  0.265E-01    0.73       1.0  T
   4    -42.5597039 -0.156639E-02  0.676E-02    0.80       1.0  T
   5    -42.5597885 -0.846606E-04  0.393E-02    0.80       1.0  T
   6    -42.5598405 -0.519193E-04  0.127E-02    0.80       1.6  T
   7    -42.5598453 -0.483630E-05  0.640E-03    0.80       3.1  T
   8    -42.5598458 -0.478585E-06  0.234E-03    0.79       8.6  T
   9    -42.5598459 -0.120415E-06  0.824E-04    0.79      24.3  T
  10    -42.5598459 -0.743900E-08  0.367E-04    0.79      54.4  T
     SCC iter.                  ...        0 min,  0.014 sec
     gradient                   ...        0 min,  0.011 sec
 * total energy  :   -42.0694053 Eh     change       -0.1164407E-01 Eh
   gradient norm :     0.1426256 Eh/α   predicted    -0.8027517E-02 ( -31.06%)
   displ. norm   :     0.2700346 α      lambda       -0.2056390E-01
   maximum displ.:     0.1381449 α      in ANC's #1, #57, #37, ...

........................................................................
.............................. CYCLE   14 ..............................
........................................................................

 iter      E             dE          RMSdq      gap      omega  full diag
   1    -42.5844197 -0.425844E+02  0.430E-01    0.61       0.0  T
   2    -42.5830583  0.136144E-02  0.339E-01    0.78       1.0  T
   3    -42.5834317 -0.373422E-03  0.322E-01    0.59       1.0  T
   4    -42.5854512 -0.201952E-02  0.847E-02    0.66       1.0  T
   5    -42.5854978 -0.465607E-04  0.582E-02    0.67       1.0  T
   6    -42.5856180 -0.120288E-03  0.175E-02    0.67       1.1  T
   7    -42.5856258 -0.775681E-05  0.858E-03    0.67       2.3  T
   8    -42.5856265 -0.745422E-06  0.287E-03    0.66       7.0  T
   9    -42.5856268 -0.209558E-06  0.959E-04    0.66      20.9  T
  10    -42.5856268 -0.835313E-08  0.477E-04    0.66      41.9  T
     SCC iter.                  ...        0 min,  0.014 sec
     gradient                   ...        0 min,  0.011 sec
 * total energy  :   -42.0849805 Eh     change       -0.1557519E-01 Eh
   gradient norm :     0.1608990 Eh/α   predicted    -0.1103196E-01 ( -29.17%)
   displ. norm   :     0.3223040 α      lambda       -0.2455063E-01
   maximum displ.:     0.1768889 α      in ANC's #1, #57, #37, ...

........................................................................
.............................. CYCLE   15 ..............................
........................................................................

 iter      E             dE          RMSdq      gap      omega  full diag
   1    -42.6094194 -0.426094E+02  0.487E-01    0.45       0.0  T
   2    -42.6056562  0.376325E-02  0.507E-01    0.74       1.0  T
   3    -42.6110898 -0.543359E-02  0.271E-01    0.47       1.0  T
   4    -42.6121537 -0.106398E-02  0.857E-02    0.53       1.0  T
   5    -42.6121451  0.864344E-05  0.403E-02    0.54       1.0  T
   6    -42.6121973 -0.522326E-04  0.180E-02    0.53       1.1  T
   7    -42.6122052 -0.784296E-05  0.840E-03    0.54       2.4  T
   8    -42.6122059 -0.766847E-06  0.319E-03    0.53       6.3  T
   9    -42.6122061 -0.203636E-06  0.833E-04    0.53      24.0  T
  10    -42.6122062 -0.120841E-07  0.406E-04    0.53      49.3  T
     SCC iter.                  ...        0 min,  0.014 sec
     gradient                   ...        0 min,  0.011 sec
 * total energy  :   -42.1021503 Eh     change       -0.1716986E-01 Eh
   gradient norm :     0.1468601 Eh/α   predicted    -0.1355054E-01 ( -21.08%)
   displ. norm   :     0.2065699 α      lambda       -0.1757963E-01
   maximum displ.:     0.0965567 α      in ANC's #37, #57, #36, ...

........................................................................
.............................. CYCLE   16 ..............................
........................................................................

 iter      E             dE          RMSdq      gap      omega  full diag
   1    -42.6255809 -0.426256E+02  0.294E-01    0.46       0.0  T
   2    -42.6253912  0.189697E-03  0.275E-01    0.60       1.0  T
   3    -42.6264378 -0.104666E-02  0.152E-01    0.46       1.0  T
   4    -42.6267120 -0.274148E-03  0.929E-02    0.53       1.0  T
   5    -42.6267657 -0.537113E-04  0.347E-02    0.50       1.0  T
   6    -42.6268094 -0.437065E-04  0.117E-02    0.50       1.7  T
   7    -42.6268133 -0.386083E-05  0.455E-03    0.50       4.4  T
   8    -42.6268134 -0.159403E-06  0.301E-03    0.50       6.6  T
   9    -42.6268136 -0.145604E-06  0.485E-04    0.50      41.2  T
  10    -42.6268136 -0.409564E-08  0.223E-04    0.50      89.5  T
     SCC iter.                  ...        0 min,  0.014 sec
     gradient                   ...        0 min,  0.011 sec
 * total energy  :   -42.1136627 Eh     change       -0.1151238E-01 Eh
   gradient norm :     0.1086921 Eh/α   predicted    -0.9165129E-02 ( -20.39%)
   displ. norm   :     0.1400738 α      lambda       -0.9698682E-02
   maximum displ.:     0.0719707 α      in ANC's #1, #57, #2, ...

........................................................................
.............................. CYCLE   17 ..............................
........................................................................

 iter      E             dE          RMSdq      gap      omega  full diag
   1    -42.6313019 -0.426313E+02  0.160E-01    0.49       0.0  T
   2    -42.6315163 -0.214345E-03  0.914E-02    0.50       1.0  T
   3    -42.6315142  0.208806E-05  0.597E-02    0.48       1.0  T
   4    -42.6314924  0.217716E-04  0.614E-02    0.51       1.0  T
   5    -42.6315527 -0.603426E-04  0.204E-02    0.49       1.0  T
   6    -42.6315663 -0.135397E-04  0.346E-03    0.49       5.8  T
   7    -42.6315664 -0.142081E-06  0.180E-03    0.49      11.1  T
   8    -42.6315664  0.154185E-07  0.129E-03    0.49      15.5  T
   9    -42.6315665 -0.533152E-07  0.313E-04    0.49      64.0  T
  10    -42.6315665 -0.202680E-08  0.134E-04    0.49     148.8  T
     SCC iter.                  ...        0 min,  0.014 sec
     gradient                   ...        0 min,  0.011 sec
 * total energy  :   -42.1195626 Eh     change       -0.5899885E-02 Eh
   gradient norm :     0.0873174 Eh/α   predicted    -0.4945252E-02 ( -16.18%)
   displ. norm   :     0.1917482 α      lambda       -0.8007963E-02
   maximum displ.:     0.1305051 α      in ANC's #1, #2, #50, ...

........................................................................
.............................. CYCLE   18 ..............................
........................................................................

 iter      E             dE          RMSdq      gap      omega  full diag
   1    -42.6367065 -0.426367E+02  0.210E-01    0.49       0.0  T
   2    -42.6368134 -0.106966E-03  0.147E-01    0.54       1.0  T
   3    -42.6367088  0.104671E-03  0.115E-01    0.46       1.0  T
   4    -42.6369509 -0.242180E-03  0.668E-02    0.53       1.0  T
   5    -42.6370163 -0.653396E-04  0.164E-02    0.50       1.2  T
   6    -42.6370240 -0.772132E-05  0.631E-03    0.51       3.2  T
   7    -42.6370248 -0.785384E-06  0.375E-03    0.51       5.3  T
   8    -42.6370250 -0.222943E-06  0.139E-03    0.51      14.4  T
   9    -42.6370251 -0.335384E-07  0.315E-04    0.51      63.5  T
  10    -42.6370251 -0.176886E-08  0.135E-04    0.51     148.3  T
     SCC iter.                  ...        0 min,  0.014 sec
     gradient                   ...        0 min,  0.011 sec
 * total energy  :   -42.1226129 Eh     change       -0.3050280E-02 Eh
   gradient norm :     0.0744553 Eh/α   predicted    -0.4151212E-02 (  36.09%)
   displ. norm   :     0.0856910 α      lambda       -0.3077234E-02
   maximum displ.:     0.0542302 α      in ANC's #1, #2, #60, ...

........................................................................
.............................. CYCLE   19 ..............................
........................................................................

 iter      E             dE          RMSdq      gap      omega  full diag
   1    -42.6397072 -0.426397E+02  0.679E-02    0.49       0.0  T
   2    -42.6396958  0.114296E-04  0.497E-02    0.50       1.0  T
   3    -42.6397250 -0.292293E-04  0.366E-02    0.49       1.0  T
   4    -42.6397415 -0.164893E-04  0.157E-02    0.50       1.3  T
   5    -42.6397444 -0.283409E-05  0.106E-02    0.49       1.9  T
   6    -42.6397478 -0.345251E-05  0.243E-03    0.49       8.2  T
   7    -42.6397479 -0.133645E-06  0.694E-04    0.49      28.8  T
   8    -42.6397479 -0.218122E-08  0.267E-04    0.49      74.8  T
     SCC iter.                  ...        0 min,  0.011 sec
     gradient                   ...        0 min,  0.011 sec
 * total energy  :   -42.1247714 Eh     change       -0.2158484E-02 Eh
   gradient norm :     0.0490554 Eh/α   predicted    -0.1549973E-02 ( -28.19%)
   displ. norm   :     0.0628014 α      lambda       -0.2513364E-02
   maximum displ.:     0.0207911 α      in ANC's #60, #59, #51, ...

........................................................................
.............................. CYCLE   20 ..............................
........................................................................

 iter      E             dE          RMSdq      gap      omega  full diag
   1    -42.6446694 -0.426447E+02  0.864E-02    0.49       0.0  T
   2    -42.6446876 -0.182180E-04  0.512E-02    0.49       1.0  T
   3    -42.6446674  0.202632E-04  0.363E-02    0.49       1.0  T
   4    -42.6446835 -0.161388E-04  0.209E-02    0.49       1.0  T
   5    -42.6446975 -0.140021E-04  0.576E-03    0.48       3.5  T
   6    -42.6446983 -0.761410E-06  0.277E-03    0.49       7.2  T
   7    -42.6446984 -0.177912E-06  0.905E-04    0.49      22.1  T
   8    -42.6446984 -0.278609E-08  0.485E-04    0.49      41.3  T
     SCC iter.                  ...        0 min,  0.011 sec
     gradient                   ...        0 min,  0.011 sec
 * total energy  :   -42.1265419 Eh     change       -0.1770522E-02 Eh
   gradient norm :     0.0396102 Eh/α   predicted    -0.1261664E-02 ( -28.74%)
   displ. norm   :     0.0963806 α      lambda       -0.2076821E-02
   maximum displ.:     0.0261166 α      in ANC's #36, #23, #37, ...
 * RMSD in coord.:     0.7447338 α      energy gain  -0.6826787E+01 Eh

generating ANC from model Hessian ...
Using Lindh-Hessian (1995)
 Shifting diagonal of input Hessian by    8.1512134337270552E-003
 Lowest  eigenvalues of input Hessian
    0.000000    0.000000    0.000000    0.000000    0.000000    0.000000
    0.010000    0.010046    0.011060    0.012686    0.013762    0.017867
    0.018195    0.020228    0.021985    0.023102    0.027844    0.031687
 Highest eigenvalues
    2.101089    2.178166    2.250131    2.420459    2.523460    3.188550


........................................................................
.............................. CYCLE   21 ..............................
........................................................................

 iter      E             dE          RMSdq      gap      omega  full diag
   1    -42.6499397 -0.426499E+02  0.122E-01    0.46       0.0  T
   2    -42.6497447  0.195018E-03  0.122E-01    0.50       1.0  T
   3    -42.6500659 -0.321222E-03  0.562E-02    0.46       1.0  T
   4    -42.6500570  0.888548E-05  0.389E-02    0.49       1.0  T
   5    -42.6500994 -0.423720E-04  0.714E-03    0.47       2.8  T
   6    -42.6501008 -0.139630E-05  0.352E-03    0.48       5.7  T
   7    -42.6501010 -0.177073E-06  0.171E-03    0.47      11.7  T
   8    -42.6501010 -0.462363E-07  0.371E-04    0.47      53.9  T
   9    -42.6501010 -0.211673E-08  0.154E-04    0.47     130.2  T
     SCC iter.                  ...        0 min,  0.013 sec
     gradient                   ...        0 min,  0.011 sec
 * total energy  :   -42.1278799 Eh     change       -0.1338021E-02 Eh
   gradient norm :     0.0339153 Eh/α   predicted     0.0000000E+00 (-100.00%)
   displ. norm   :     0.3721821 α      lambda       -0.6247381E-02
   maximum displ.:     0.2571504 α      in ANC's #10, #11, #13, ...

........................................................................
.............................. CYCLE   22 ..............................
........................................................................

 iter      E             dE          RMSdq      gap      omega  full diag
   1    -42.6474974 -0.426475E+02  0.375E-01    0.46       0.0  T
   2    -42.6473512  0.146167E-03  0.208E-01    0.51       1.0  T
   3    -42.6459518  0.139939E-02  0.283E-01    0.39       1.0  T
   4    -42.6475818 -0.162994E-02  0.374E-02    0.49       1.0  T
   5    -42.6476238 -0.420047E-04  0.978E-03    0.47       2.0  T
   6    -42.6476253 -0.153375E-05  0.612E-03    0.47       3.3  T
   7    -42.6476259 -0.567766E-06  0.272E-03    0.47       7.4  T
   8    -42.6476260 -0.922015E-07  0.786E-04    0.47      25.5  T
   9    -42.6476260 -0.151040E-07  0.231E-04    0.47      86.5  T
     SCC iter.                  ...        0 min,  0.013 sec
     gradient                   ...        0 min,  0.011 sec
 * total energy  :   -42.1329880 Eh     change       -0.5108065E-02 Eh
   gradient norm :     0.0190410 Eh/α   predicted    -0.3556431E-02 ( -30.38%)
   displ. norm   :     0.5787146 α      lambda       -0.6151462E-02
   maximum displ.:     0.4021825 α      in ANC's #10, #11, #13, ...

........................................................................
.............................. CYCLE   23 ..............................
........................................................................

 iter      E             dE          RMSdq      gap      omega  full diag
   1    -42.6395141 -0.426395E+02  0.571E-01    0.44       0.0  T
   2    -42.6392144  0.299631E-03  0.309E-01    0.51       1.0  T
   3    -42.6364003  0.281413E-02  0.418E-01    0.35       1.0  T
   4    -42.6397129 -0.331257E-02  0.562E-02    0.49       1.0  T
   5    -42.6398041 -0.912392E-04  0.171E-02    0.46       1.2  T
   6    -42.6398079 -0.379077E-05  0.970E-03    0.46       2.1  T
   7    -42.6398094 -0.146427E-05  0.350E-03    0.46       5.7  T
   8    -42.6398096 -0.185334E-06  0.104E-03    0.46      19.2  T
   9    -42.6398096 -0.196584E-07  0.393E-04    0.46      50.9  T
  10    -42.6398096 -0.135117E-08  0.900E-05    0.46     222.3  T
     SCC iter.                  ...        0 min,  0.014 sec
     gradient                   ...        0 min,  0.011 sec
 * total energy  :   -42.1354831 Eh     change       -0.2495165E-02 Eh
   gradient norm :     0.0451963 Eh/α   predicted    -0.4105835E-02 (  64.55%)
   displ. norm   :     0.1449760 α      lambda       -0.2810810E-02
   maximum displ.:     0.0775631 α      in ANC's #3, #4, #11, ...

........................................................................
.............................. CYCLE   24 ..............................
........................................................................

 iter      E             dE          RMSdq      gap      omega  full diag
   1    -42.6473491 -0.426473E+02  0.123E-01    0.48       0.0  T
   2    -42.6472961  0.529934E-04  0.716E-02    0.44       1.0  T
   3    -42.6472157  0.803542E-04  0.993E-02    0.51       1.0  T
   4    -42.6473802 -0.164451E-03  0.137E-02    0.47       1.5  T
   5    -42.6473844 -0.417193E-05  0.540E-03    0.47       3.7  T
   6    -42.6473848 -0.426507E-06  0.337E-03    0.47       5.9  T
   7    -42.6473849 -0.170556E-06  0.939E-04    0.47      21.3  T
   8    -42.6473850 -0.117214E-07  0.296E-04    0.47      67.5  T
     SCC iter.                  ...        0 min,  0.011 sec
     gradient                   ...        0 min,  0.011 sec
 * total energy  :   -42.1373425 Eh     change       -0.1859334E-02 Eh
   gradient norm :     0.0217995 Eh/α   predicted    -0.1434947E-02 ( -22.82%)
   displ. norm   :     0.2474876 α      lambda       -0.2000575E-02
   maximum displ.:     0.1316500 α      in ANC's #3, #10, #6, ...

........................................................................
.............................. CYCLE   25 ..............................
........................................................................

 iter      E             dE          RMSdq      gap      omega  full diag
   1    -42.6543087 -0.426543E+02  0.161E-01    0.47       0.0  T
   2    -42.6543104 -0.167956E-05  0.931E-02    0.47       1.0  T
   3    -42.6541864  0.123913E-03  0.786E-02    0.47       1.0  T
   4    -42.6543280 -0.141589E-03  0.109E-02    0.47       1.8  T
   5    -42.6543309 -0.284764E-05  0.384E-03    0.47       5.2  T
   6    -42.6543313 -0.397417E-06  0.209E-03    0.47       9.6  T
   7    -42.6543313 -0.154936E-07  0.118E-03    0.47      16.9  T
   8    -42.6543313 -0.347561E-07  0.562E-04    0.47      35.6  T
   9    -42.6543313 -0.819279E-08  0.119E-04    0.47     168.6  T
     SCC iter.                  ...        0 min,  0.013 sec
     gradient                   ...        0 min,  0.011 sec
 * total energy  :   -42.1388039 Eh     change       -0.1461407E-02 Eh
   gradient norm :     0.0098899 Eh/α   predicted    -0.1061563E-02 ( -27.36%)
   displ. norm   :     0.3368952 α      lambda       -0.1647062E-02
   maximum displ.:     0.2076963 α      in ANC's #10, #3, #11, ...

........................................................................
.............................. CYCLE   26 ..............................
........................................................................

 iter      E             dE          RMSdq      gap      omega  full diag
   1    -42.6573833 -0.426574E+02  0.276E-01    0.45       0.0  T
   2    -42.6573460  0.372186E-04  0.154E-01    0.48       1.0  T
   3    -42.6568481  0.497950E-03  0.177E-01    0.41       1.0  T
   4    -42.6574286 -0.580485E-03  0.259E-02    0.47       1.0  T
   5    -42.6574467 -0.180707E-04  0.781E-03    0.46       2.6  T
   6    -42.6574483 -0.168846E-05  0.241E-03    0.46       8.3  T
   7    -42.6574485 -0.128131E-06  0.113E-03    0.46      17.7  T
   8    -42.6574485 -0.134663E-07  0.403E-04    0.46      49.6  T
   9    -42.6574485 -0.241484E-08  0.114E-04    0.46     174.8  T
     SCC iter.                  ...        0 min,  0.013 sec
     gradient                   ...        0 min,  0.011 sec
 * total energy  :   -42.1399091 Eh     change       -0.1105185E-02 Eh
   gradient norm :     0.0116496 Eh/α   predicted    -0.9170033E-03 ( -17.03%)
   displ. norm   :     0.2081574 α      lambda       -0.6330402E-03
   maximum displ.:     0.1115191 α      in ANC's #10, #4, #3, ...

........................................................................
.............................. CYCLE   27 ..............................
........................................................................

 iter      E             dE          RMSdq      gap      omega  full diag
   1    -42.6594616 -0.426595E+02  0.158E-01    0.45       0.0  T
   2    -42.6594573  0.437091E-05  0.904E-02    0.46       1.0  T
   3    -42.6593142  0.143061E-03  0.834E-02    0.42       1.0  T
   4    -42.6594661 -0.151911E-03  0.114E-02    0.46       1.8  T
   5    -42.6594698 -0.364923E-05  0.206E-03    0.45       9.7  T
   6    -42.6594698 -0.781172E-07  0.106E-03    0.46      18.9  T
   7    -42.6594698 -0.167042E-07  0.553E-04    0.46      36.2  T
   8    -42.6594699 -0.667659E-08  0.167E-04    0.46     120.1  T
     SCC iter.                  ...        0 min,  0.012 sec
     gradient                   ...        0 min,  0.011 sec
 * total energy  :   -42.1403540 Eh     change       -0.4448863E-03 Eh
   gradient norm :     0.0118971 Eh/α   predicted    -0.3302354E-03 ( -25.77%)
   displ. norm   :     0.1740416 α      lambda       -0.4897810E-03
   maximum displ.:     0.0888614 α      in ANC's #4, #1, #10, ...

........................................................................
.............................. CYCLE   28 ..............................
........................................................................

 iter      E             dE          RMSdq      gap      omega  full diag
   1    -42.6609537 -0.426610E+02  0.113E-01    0.45       0.0  T
   2    -42.6609525  0.120465E-05  0.674E-02    0.46       1.0  T
   3    -42.6608593  0.931628E-04  0.494E-02    0.43       1.0  T
   4    -42.6609571 -0.977788E-04  0.672E-03    0.46       3.0  T
   5    -42.6609582 -0.106635E-05  0.227E-03    0.45       8.8  T
   6    -42.6609583 -0.113486E-06  0.133E-03    0.45      15.0  T
   7    -42.6609583 -0.114853E-07  0.504E-04    0.45      39.7  T
   8    -42.6609583 -0.582772E-08  0.131E-04    0.45     152.2  T
     SCC iter.                  ...        0 min,  0.011 sec
     gradient                   ...        0 min,  0.011 sec
 * total energy  :   -42.1406930 Eh     change       -0.3390631E-03 Eh
   gradient norm :     0.0076788 Eh/α   predicted    -0.2523092E-03 ( -25.59%)
   displ. norm   :     0.1865545 α      lambda       -0.3083108E-03
   maximum displ.:     0.1143349 α      in ANC's #4, #10, #1, ...

........................................................................
.............................. CYCLE   29 ..............................
........................................................................

 iter      E             dE          RMSdq      gap      omega  full diag
   1    -42.6588010 -0.426588E+02  0.128E-01    0.44       0.0  T
   2    -42.6587976  0.340491E-05  0.752E-02    0.46       1.0  T
   3    -42.6586610  0.136643E-03  0.704E-02    0.41       1.0  T
   4    -42.6588052 -0.144237E-03  0.340E-03    0.45       5.9  T
   5    -42.6588055 -0.302361E-06  0.182E-03    0.45      11.0  T
   6    -42.6588056 -0.544974E-07  0.927E-04    0.45      21.6  T
   7    -42.6588056 -0.100275E-07  0.400E-04    0.45      50.0  T
     SCC iter.                  ...        0 min,  0.010 sec
     gradient                   ...        0 min,  0.011 sec
 * total energy  :   -42.1408795 Eh     change       -0.1865184E-03 Eh
   gradient norm :     0.0060794 Eh/α   predicted    -0.1595223E-03 ( -14.47%)
   displ. norm   :     0.1422780 α      lambda       -0.1939610E-03
   maximum displ.:     0.1034906 α      in ANC's #4, #1, #13, ...

........................................................................
.............................. CYCLE   30 ..............................
........................................................................

 iter      E             dE          RMSdq      gap      omega  full diag
   1    -42.6595962 -0.426596E+02  0.653E-02    0.44       0.0  T
   2    -42.6595934  0.278821E-05  0.396E-02    0.45       1.0  T
   3    -42.6595510  0.424235E-04  0.397E-02    0.43       1.0  T
   4    -42.6595999 -0.489158E-04  0.644E-03    0.45       3.1  T
   5    -42.6596009 -0.947590E-06  0.163E-03    0.44      12.3  T
   6    -42.6596009 -0.321769E-07  0.106E-03    0.45      18.9  T
   7    -42.6596009 -0.821311E-08  0.306E-04    0.45      65.4  T
   8    -42.6596009 -0.228084E-08  0.108E-04    0.45     185.3  T
     SCC iter.                  ...        0 min,  0.011 sec
     gradient                   ...        0 min,  0.011 sec
 * total energy  :   -42.1409791 Eh     change       -0.9958703E-04 Eh
   gradient norm :     0.0043518 Eh/α   predicted    -0.9897315E-04 (  -0.62%)
   displ. norm   :     0.0921641 α      lambda       -0.8036651E-04
   maximum displ.:     0.0597262 α      in ANC's #3, #4, #1, ...

........................................................................
.............................. CYCLE   31 ..............................
........................................................................

 iter      E             dE          RMSdq      gap      omega  full diag
   1    -42.6596941 -0.426597E+02  0.371E-02    0.44       0.0  T
   2    -42.6596942 -0.135967E-06  0.217E-02    0.44       1.0  T
   3    -42.6596934  0.861530E-06  0.585E-03    0.44       3.4  T
   4    -42.6596942 -0.890686E-06  0.171E-03    0.45      11.7  T
   5    -42.6596943 -0.656888E-07  0.812E-04    0.44      24.6  T
   6    -42.6596943 -0.542943E-08  0.338E-04    0.44      59.1  T
     SCC iter.                  ...        0 min,  0.009 sec
     gradient                   ...        0 min,  0.011 sec
 * total energy  :   -42.1410274 Eh     change       -0.4828717E-04 Eh
   gradient norm :     0.0040257 Eh/α   predicted    -0.4052807E-04 ( -16.07%)
   displ. norm   :     0.1433591 α      lambda       -0.9359178E-04
   maximum displ.:     0.0972285 α      in ANC's #4, #3, #1, ...

........................................................................
.............................. CYCLE   32 ..............................
........................................................................

 iter      E             dE          RMSdq      gap      omega  full diag
   1    -42.6589708 -0.426590E+02  0.645E-02    0.44       0.0  T
   2    -42.6589676  0.322190E-05  0.393E-02    0.45       1.0  T
   3    -42.6589216  0.459616E-04  0.474E-02    0.42       1.0  T
   4    -42.6589732 -0.516334E-04  0.374E-03    0.44       5.3  T
   5    -42.6589735 -0.281899E-06  0.171E-03    0.44      11.7  T
   6    -42.6589736 -0.442127E-07  0.838E-04    0.44      23.9  T
   7    -42.6589736 -0.638883E-08  0.261E-04    0.44      76.5  T
     SCC iter.                  ...        0 min,  0.010 sec
     gradient                   ...        0 min,  0.011 sec
 * total energy  :   -42.1410564 Eh     change       -0.2898278E-04 Eh
   gradient norm :     0.0039144 Eh/α   predicted    -0.4775957E-04 (  64.79%)
   displ. norm   :     0.0496044 α      lambda       -0.4482110E-04
   maximum displ.:     0.0272651 α      in ANC's #10, #3, #4, ...

   *** GEOMETRY OPTIMIZATION CONVERGED AFTER 32 ITERATIONS ***

------------------------------------------------------------------------
 total energy gain   :        -6.8413016 Eh    -4292.9816 kcal/mol
 total RMSD          :         0.8364001 a0        0.4426 Å
 total power (kW/mol):      -561.3073391 (step)********** (real)
------------------------------------------------------------------------

 ANCopt (total)                0 d,  0 h,  0 min,  0.963 sec
 optimizer setup                ...        0 min,  0.000 sec (  0.046%)
 model hessian                  ...        0 min,  0.013 sec (  1.346%)
 ANC generation                 ...        0 min,  0.002 sec (  0.201%)
 coordinate transformation      ...        0 min,  0.000 sec (  0.031%)
 single point calculation       ...        0 min,  0.938 sec ( 97.428%)
 optimization log               ...        0 min,  0.004 sec (  0.421%)
 hessian update                 ...        0 min,  0.000 sec (  0.040%)
 rational function              ...        0 min,  0.003 sec (  0.329%)

================
 final structure:
================
25
 xtb: 6.6.1 (8d0f1dd)
C            3.07737934612390        1.04606052405404        0.22780409009540
N            2.20883959102413        0.04135764728417        0.17958046768583
C            2.46786651922427       -1.28962827580961        0.18239597426698
N            1.29902342574542       -1.99057750129833        0.12005900495068
C            0.27339254352288       -1.10029124247477        0.07469993390580
C            0.82358212741742        0.17545968288854        0.11135334386702
C            0.00546815246088        1.35934431072919        0.07283596916408
O            0.40246498334859        2.50406188149647        0.08816594807083
N           -1.35739029373812        1.03859664895203        0.01257136470543
C           -2.30306761328146        2.14253738352152       -0.01283007869914
C           -1.92617102814069       -0.22130259576402       -0.03336998606460
O           -3.11629855546836       -0.38376018142387       -0.09638706467984
N           -1.05259895225223       -1.32499379048669       -0.00350207459520
C           -1.60715787239174       -2.66172072493828       -0.05735445645950
H            4.13167182529956        0.82780798359921        0.26353067714284
H            5.36349156118869        2.05399073674432       -1.39600248455425
H            2.69905786469645        2.05307225160114        0.21480324537336
H            3.44287560681695       -1.72649742367182        0.23698048998656
H           -1.73781411669789        3.07313703203923       -0.01105930170880
H           -2.92708794263453        2.07905504711486       -0.90547411893525
H           -2.95431596887320        2.09618709202268        0.86180086045668
H           -1.33522455694126       -3.22514615236034        0.83631966781279
H           -1.25992107699612       -3.18418581489739       -0.94974010400507
H           -2.69202350054247       -2.56712485073059       -0.10213049811421
H            1.23438944518893       -2.99720112659173        0.11612074823159

 Bond Distances (Angstroems)
 ---------------------------
C1-N2=1.3290         C1-H15=1.0772        C1-H17=1.0758        N2-C1=1.3290         N2-C3=1.3560         N2-C6=1.3934         
C3-N2=1.3560         C3-N4=1.3643         C3-H18=1.0698        N4-C3=1.3643         N4-C5=1.3589         N4-H25=1.0087        
C5-N4=1.3589         C5-C6=1.3898         C5-N13=1.3472        C6-N2=1.3934         C6-C5=1.3898         C6-C7=1.4396         
C7-C6=1.4396         C7-O8=1.2117         C7-N9=1.4014         O8-C7=1.2117         N9-C7=1.4014         N9-C10=1.4538        
N9-C11=1.3831        C10-N9=1.4538        C10-H19=1.0888       C10-H20=1.0910       C10-H21=1.0914       C11-N9=1.3831        
C11-O12=1.2028       C11-N13=1.4079       O12-C11=1.2028       N13-C5=1.3472        N13-C11=1.4079       N13-C14=1.4482       
C14-N13=1.4482       C14-H22=1.0909       C14-H23=1.0908       C14-H24=1.0899       H15-C1=1.0772        H17-C1=1.0758        
H18-C3=1.0698        H19-C10=1.0888       H20-C10=1.0910       H21-C10=1.0914       H22-C14=1.0909       H23-C14=1.0908       
H24-C14=1.0899       H25-N4=1.0087        
 C  H  Rav=1.0851 sigma=0.0079  Rmin=1.0698  Rmax=1.0914     9
 C  C  Rav=1.4147 sigma=0.0249  Rmin=1.3898  Rmax=1.4396     2
 N  H  Rav=1.0087 sigma=0.0000  Rmin=1.0087  Rmax=1.0087     1
 N  C  Rav=1.3857 sigma=0.0383  Rmin=1.3290  Rmax=1.4538    11
 O  C  Rav=1.2073 sigma=0.0044  Rmin=1.2028  Rmax=1.2117     2

 selected bond angles (degree)
 --------------------
H15-C1-N2=119.19               H17-C1-N2=118.52               H17-C1-H15=122.29              C3-N2-C1=128.11                
C6-N2-C1=125.36                C6-N2-C3=106.53                N4-C3-N2=109.91                H18-C3-N2=125.10               
H18-C3-N4=124.98               C5-N4-C3=108.15                H25-N4-C3=124.60               H25-N4-C5=127.25               
C6-C5-N4=107.56                N13-C5-N4=129.46               N13-C5-C6=122.98               C5-C6-N2=107.85                
C7-C6-N2=130.20                C7-C6-C5=121.95                O8-C7-C6=126.18                N9-C7-C6=111.44                
N9-C7-O8=122.37                C10-N9-C7=117.36               C11-N9-C7=127.58               C11-N9-C10=115.06              
H19-C10-N9=108.14              H20-C10-N9=110.01              H20-C10-H19=110.37             H21-C10-N9=109.99              
H21-C10-H19=110.17             H21-C10-H20=108.17             

 selected dihedral angles (degree)
 ---------------------------------
C3-N2-C1-H15=  0.77           C3-N2-C1-H17=179.86           C6-N2-C1-H15=180.95           C6-N2-C1-H17=  0.05           
N4-C3-N2-C1=180.09            N4-C3-N2-C6=359.94            H18-C3-N2-C1=  0.76           H18-C3-N2-C6=180.60           
C5-N4-C3-N2=  0.08            C5-N4-C3-H18=179.42           H25-N4-C3-N2=180.46           H25-N4-C3-H18=359.80          
C6-C5-N4-C3=359.94            C6-C5-N4-H25=179.54           N13-C5-N4-C3=179.39           N13-C5-N4-H25=359.00          
C5-C6-N2-C1=179.87            C5-C6-N2-C3=  0.02            C7-C6-N2-C1=  0.20            C7-C6-N2-C3=180.35            
N2-C6-C5-N4=  0.02            N2-C6-C5-N13=180.52           C7-C6-C5-N4=179.73            C7-C6-C5-N13=  0.24           
O8-C7-C6-N2=  0.36            O8-C7-C6-C5=180.72            N9-C7-C6-N2=180.33            N9-C7-C6-C5=  0.69            
C10-N9-C7-C6=179.17           C10-N9-C7-O8=359.15           C11-N9-C7-C6=358.81           C11-N9-C7-O8=178.79           
H19-C10-N9-C7=  1.83          H19-C10-N9-C11=182.14         H20-C10-N9-C7=122.43          H20-C10-N9-C11=302.74         
H21-C10-N9-C7=241.49          H21-C10-N9-C11= 61.80         
           -------------------------------------------------
          |                Final Singlepoint                |
           -------------------------------------------------

          ...................................................
          :                      SETUP                      :
          :.................................................:
          :  # basis functions                  67          :
          :  # atomic orbitals                  67          :
          :  # shells                           39          :
          :  # electrons                        74          :
          :  max. iterations                   250          :
          :  Hamiltonian                  GFN2-xTB          :
          :  restarted?                      false          :
          :  GBSA solvation                  false          :
          :  PC potential                    false          :
          :  electronic temp.         7500.0000000     K    :
          :  accuracy                    1.0000000          :
          :  -> integral cutoff          0.2500000E+02      :
          :  -> integral neglect         0.1000000E-07      :
          :  -> SCF convergence          0.1000000E-05 Eh   :
          :  -> wf. convergence          0.1000000E-03 e    :
          :  Broyden damping             0.4000000          :
          ...................................................

 iter      E             dE          RMSdq      gap      omega  full diag
   1    -42.6589736 -0.426590E+02  0.933E-05    0.44       0.0  T
   2    -42.6589736  0.671179E-10  0.782E-05    0.44     255.8  T
   3    -42.6589736 -0.131976E-09  0.505E-05    0.44     396.0  T

   *** convergence criteria satisfied after 3 iterations ***

         #    Occupation            Energy/Eh            Energy/eV
      -------------------------------------------------------------
         1        2.0000           -0.9086466             -24.7255
       ...           ...                  ...                  ...
        31        1.9903           -0.6212615             -16.9054
        32        1.9828           -0.6075128             -16.5313
        33        1.9607           -0.5875902             -15.9891
        34        1.9176           -0.5694689             -15.4960
        35        1.9149           -0.5686648             -15.4742
        36        1.8958           -0.5636068             -15.3365
        37        1.2897           -0.5088768             -13.8472 (HOMO)
        38        0.9571           -0.4926699             -13.4062 (LUMO)
        39        0.0638           -0.4136729             -11.2566
        40        0.0401           -0.4023126             -10.9475
        41        0.0110           -0.3712003             -10.1009
        42        0.0004           -0.2905062              -7.9051
       ...           ...                  ...                  ...
        67                          0.5392376              14.6734
      -------------------------------------------------------------
                  HL-Gap            0.0162069 Eh            0.4410 eV
             Fermi-level           -0.4947110 Eh          -13.4618 eV

 SCC (total)                   0 d,  0 h,  0 min,  0.021 sec
 SCC setup                      ...        0 min,  0.000 sec (  0.869%)
 Dispersion                     ...        0 min,  0.000 sec (  0.895%)
 classical contributions        ...        0 min,  0.000 sec (  0.319%)
 integral evaluation            ...        0 min,  0.004 sec ( 20.810%)
 iterations                     ...        0 min,  0.005 sec ( 22.217%)
 molecular gradient             ...        0 min,  0.011 sec ( 54.169%)
 printout                       ...        0 min,  0.000 sec (  0.662%)

         :::::::::::::::::::::::::::::::::::::::::::::::::::::
         ::                     SUMMARY                     ::
         :::::::::::::::::::::::::::::::::::::::::::::::::::::
         :: total energy             -42.141056391198 Eh    ::
         :: gradient norm              0.003917358536 Eh/a0 ::
         :: HOMO-LUMO gap              0.441013500053 eV    ::
         ::.................................................::
         :: SCC energy               -42.658973571273 Eh    ::
         :: -> isotropic ES            0.135588009464 Eh    ::
         :: -> anisotropic ES         -0.005828715579 Eh    ::
         :: -> anisotropic XC          0.012430683270 Eh    ::
         :: -> dispersion             -0.022714640269 Eh    ::
         :: repulsion energy           0.517827589529 Eh    ::
         :: add. restraining           0.000000051997 Eh    ::
         :: total charge               1.000000000005 e     ::
         :::::::::::::::::::::::::::::::::::::::::::::::::::::

           -------------------------------------------------
          |                Property Printout                |
           -------------------------------------------------

    * Orbital Energies and Occupations

         #    Occupation            Energy/Eh            Energy/eV
      -------------------------------------------------------------
         1        2.0000           -0.9086466             -24.7255
       ...           ...                  ...                  ...
        25        1.9989           -0.6735697             -18.3288
        26        1.9988           -0.6700959             -18.2342
        27        1.9983           -0.6632920             -18.0491
        28        1.9953           -0.6383130             -17.3694
        29        1.9944           -0.6343348             -17.2611
        30        1.9935           -0.6307147             -17.1626
        31        1.9903           -0.6212615             -16.9054
        32        1.9828           -0.6075128             -16.5313
        33        1.9607           -0.5875902             -15.9891
        34        1.9176           -0.5694689             -15.4960
        35        1.9149           -0.5686648             -15.4742
        36        1.8958           -0.5636068             -15.3365
        37        1.2897           -0.5088768             -13.8472 (HOMO)
        38        0.9571           -0.4926699             -13.4062 (LUMO)
        39        0.0638           -0.4136729             -11.2566
        40        0.0401           -0.4023126             -10.9475
        41        0.0110           -0.3712003             -10.1009
        42        0.0004           -0.2905062              -7.9051
        43        0.0000           -0.2104529              -5.7267
        44        0.0000           -0.1861963              -5.0667
        45        0.0000           -0.1464553              -3.9853
        46        0.0000           -0.1198959              -3.2625
        47                         -0.0825682              -2.2468
        48                         -0.0515377              -1.4024
       ...                                ...                  ...
        67                          0.5392376              14.6734
      -------------------------------------------------------------
                  HL-Gap            0.0162069 Eh            0.4410 eV
             Fermi-level           -0.4947110 Eh          -13.4618 eV

     #   Z          covCN         q      C6AA      α(0)
     1   6 C        2.789    -0.073    29.795     8.941
     2   7 N        2.805     0.126    19.096     6.490
     3   6 C        3.033     0.021    27.503     8.602
     4   7 N        2.775    -0.060    22.403     7.030
     5   6 C        3.019     0.114    25.457     8.276
     6   6 C        3.103    -0.032    28.668     8.774
     7   6 C        2.764     0.270    22.445     7.759
     8   8 O        0.858    -0.347    20.650     6.093
     9   7 N        2.745    -0.076    22.710     7.078
    10   6 C        3.708    -0.062    21.829     6.678
    11   6 C        2.727     0.316    21.638     7.615
    12   8 O        0.860    -0.344    20.596     6.085
    13   7 N        2.738    -0.048    22.168     6.993
    14   6 C        3.697    -0.073    22.071     6.720
    15   1 H        0.926     0.109     1.702     2.040
    16   1 H        0.000     0.019     6.860     4.789
    17   1 H        0.926     0.138     1.478     1.901
    18   1 H        0.927     0.120     1.612     1.986
    19   1 H        0.925     0.123     1.586     1.970
    20   1 H        0.924     0.111     1.688     2.032
    21   1 H        0.924     0.110     1.699     2.038
    22   1 H        0.924     0.090     1.882     2.145
    23   1 H        0.924     0.090     1.876     2.142
    24   1 H        0.925     0.131     1.525     1.931
    25   1 H        0.860     0.227     0.980     1.551

 Mol. C6AA /au·bohr⁶  :       6810.784428
 Mol. C8AA /au·bohr⁸  :     155557.519104
 Mol. α(0) /au        :        127.657440


Wiberg/Mayer (AO) data.
largest (>0.10) Wiberg bond orders for each atom

 ---------------------------------------------------------------------------
     #   Z sym  total        # sym  WBO       # sym  WBO       # sym  WBO
 ---------------------------------------------------------------------------
     1   6 C    3.388 --     2 N    1.324    15 H    0.958    17 H    0.953
     2   7 N    3.741 --     1 C    1.324     3 C    1.235     6 C    1.088
     3   6 C    3.607 --     2 N    1.235     4 N    1.224    18 H    0.955
     4   7 N    3.513 --     3 C    1.224     5 C    1.199    25 H    0.920
     5   6 C    3.894 --     6 C    1.324    13 N    1.202     4 N    1.199
     6   6 C    3.805 --     5 C    1.324     7 C    1.098     2 N    1.088
     7   6 C    3.923 --     8 O    1.658     6 C    1.098     9 N    1.078
     8   8 O    1.957 --     7 C    1.658     9 N    0.123
     9   7 N    3.491 --    11 C    1.123     7 C    1.078    10 C    0.977
                            12 O    0.124     8 O    0.123
    10   6 C    3.872 --     9 N    0.977    19 H    0.956    20 H    0.949
                            21 H    0.948
    11   6 C    3.939 --    12 O    1.681     9 N    1.123    13 N    1.046
    12   8 O    1.997 --    11 C    1.681     9 N    0.124    13 N    0.112
    13   7 N    3.501 --     5 C    1.202    11 C    1.046    14 C    0.977
                            12 O    0.112
    14   6 C    3.907 --    13 N    0.977    22 H    0.964    23 H    0.963
                            24 H    0.959
    15   1 H    0.984 --     1 C    0.958
    16   1 H    0.015
    17   1 H    0.977 --     1 C    0.953
    18   1 H    0.984 --     3 C    0.955
    19   1 H    0.974 --    10 C    0.956
    20   1 H    0.966 --    10 C    0.949
    21   1 H    0.965 --    10 C    0.948
    22   1 H    0.981 --    14 C    0.964
    23   1 H    0.980 --    14 C    0.963
    24   1 H    0.979 --    14 C    0.959
    25   1 H    0.948 --     4 N    0.920
 ---------------------------------------------------------------------------

Topologies differ in total number of bonds
Writing topology from bond orders to xtbtopo.mol

molecular dipole:
                 x           y           z       tot (Debye)
 q only:        1.772      -1.988       0.149
   full:        2.025      -2.437       0.161       8.063
molecular quadrupole (traceless):
                xx          xy          yy          xz          yz          zz
 q only:       10.559      -7.139       7.502       0.781      -0.719     -18.061
  q+dip:        8.446      -9.759       7.502       0.532      -1.024     -15.948
   full:        7.339      -9.572       6.635       0.394      -1.003     -13.974

           -------------------------------------------------
          |                Geometry Summary                 |
           -------------------------------------------------

      molecular mass/u    :      195.1988581
   center of mass at/Å    :       -0.0732654      -0.0282758       0.0519648
  moments of inertia/u·Å² :        0.4817514E+03   0.7308181E+03   0.1200334E+04
rotational constants/cm⁻¹ :        0.3499239E-01   0.2306680E-01   0.1404411E-01

 * 25 selected distances

     #   Z          #   Z                                           value/Å
     1   6 C        2   7 N                                       1.3289526
     2   7 N        3   6 C                                       1.3559597
     3   6 C        4   7 N                                       1.3643351
     4   7 N        5   6 C                                       1.3588915
     2   7 N        6   6 C                                       1.3934048
     5   6 C        6   6 C                                       1.3898176
     6   6 C        7   6 C                                       1.4395754
     7   6 C        8   8 O                                       1.2117013
     7   6 C        9   7 N                                       1.4013902
     9   7 N       10   6 C                                       1.4538351 (max)
     9   7 N       11   6 C                                       1.3831011
    11   6 C       12   8 O                                       1.2028165
     5   6 C       13   7 N                                       1.3471676
    11   6 C       13   7 N                                       1.4078902
    13   7 N       14   6 C                                       1.4481971
     1   6 C       15   1 H                                       1.0772388
     1   6 C       17   1 H                                       1.0758109
     3   6 C       18   1 H                                       1.0698023
    10   6 C       19   1 H                                       1.0888207
    10   6 C       20   1 H                                       1.0909835
    10   6 C       21   1 H                                       1.0914450
    14   6 C       22   1 H                                       1.0908939
    14   6 C       23   1 H                                       1.0908233
    14   6 C       24   1 H                                       1.0899023
     4   7 N       25   1 H                                       1.0087043 (min)

 * 5 distinct bonds (by element types)

   Z      Z             #   av. dist./Å        max./Å        min./Å
   1 H    6 C           9     1.0850801     1.0914450     1.0698023
   6 C    6 C           2     1.4146965     1.4395754     1.3898176
   1 H    7 N           1     1.0087043     1.0087043     1.0087043
   6 C    7 N          11     1.3857386     1.4538351     1.3289526
   6 C    8 O           2     1.2072589     1.2117013     1.2028165


optimized geometry written to: xtbopt.xyz


           -------------------------------------------------
          | TOTAL ENERGY              -42.141056391198 Eh   |
          | GRADIENT NORM               0.003917358536 Eh/α |
          | HOMO-LUMO GAP               0.441013500053 eV   |
           -------------------------------------------------

------------------------------------------------------------------------
 * finished run on 2024/06/05 at 19:58:43.302     
------------------------------------------------------------------------
 total:
 * wall-time:     0 d,  0 h,  0 min,  1.056 sec
 *  cpu-time:     0 d,  0 h,  0 min,  1.033 sec
 * ratio c/w:     0.978 speedup
 SCF:
 * wall-time:     0 d,  0 h,  0 min,  0.037 sec
 *  cpu-time:     0 d,  0 h,  0 min,  0.036 sec
 * ratio c/w:     0.999 speedup
 ANC optimizer:
 * wall-time:     0 d,  0 h,  0 min,  0.988 sec
 *  cpu-time:     0 d,  0 h,  0 min,  0.984 sec
 * ratio c/w:     0.996 speedup

