25
 energy: -42.191170109624 gnorm: 0.009361568268 xtb: 6.6.1 (8d0f1dd)
C            3.10251982474277        1.41395004921900        0.00968531022243
N            2.27347271278252        0.29574805985780        0.00588239969179
C            2.30877537437437       -2.46217347616115        0.01573821940384
N            1.05533990282289       -2.26715317191576       -0.01422659955291
C            0.37779607835121       -1.11529449789422       -0.00355392005313
C            0.98905723847060        0.18369202710115        0.00023437983285
C            0.08411073139955        1.37231739788478       -0.00256790504679
O            0.51509301303056        2.50796791809065       -0.00169435111763
N           -1.26251393608743        1.10311466297487       -0.00569551430530
C           -2.19356195456934        2.21929769584811       -0.00912080403931
C           -1.84499241187632       -0.15553416123033       -0.00525517676943
O           -3.04325351771488       -0.29190457897193       -0.00593905693845
N           -0.97917847997341       -1.23780791259613       -0.00396971967424
C           -1.56240898966537       -2.56272854024308       -0.00332624865372
H            3.74441322577719        1.38084920377914        0.89706593585139
H            3.75661852694142        1.37651114054753       -0.86854439620235
H            2.53673890499125        2.35859402492929        0.00391430260044
H            3.01882256480332       -1.63320462348535        0.07401476682395
H           -1.62654263134241        3.14825086174668        0.00123807965664
H           -2.82362072358236        2.17055183250521       -0.89903882052595
H           -2.84131786228818        2.16063307197613        0.86731435997649
H           -1.24937664546488       -3.11053510385815        0.88642316676969
H           -1.23597726649297       -3.11627291880004       -0.88462918644703
H           -2.64689097543942       -2.45799869184922       -0.01120340356597
H            2.70730881010931       -3.46263172785493       -0.01157420003746
