      -----------------------------------------------------------      
     |                   =====================                   |     
     |                           x T B                           |     
     |                   =====================                   |     
     |                         S. Grimme                         |     
     |          Mulliken Center for Theoretical Chemistry        |     
     |                    University of Bonn                     |     
      -----------------------------------------------------------      

   * xtb version 6.6.1 (8d0f1dd) compiled by 'conda@1efc2f54142f' on 2023-08-01

   xtb is free software: you can redistribute it and/or modify it under
   the terms of the GNU Lesser General Public License as published by
   the Free Software Foundation, either version 3 of the License, or
   (at your option) any later version.
   
   xtb is distributed in the hope that it will be useful,
   but WITHOUT ANY WARRANTY; without even the implied warranty of
   MERCHANTABILITY or FITNESS FOR A PARTICULAR PURPOSE.  See the
   GNU Lesser General Public License for more details.
   
   Cite this work as:
   * C. Bannwarth, E. Caldeweyher, S. Ehlert, A. Hansen, P. Pracht,
     J. Seibert, S. Spicher, S. Grimme, WIREs Comput. Mol. Sci., 2020, 11,
     e01493. DOI: 10.1002/wcms.1493
   
   for GFN2-xTB:
   * C. Bannwarth, S. Ehlert and S. Grimme., J. Chem. Theory Comput., 2019,
     15, 1652-1671. DOI: 10.1021/acs.jctc.8b01176
   for GFN1-xTB:
   * S. Grimme, C. Bannwarth, P. Shushkov, J. Chem. Theory Comput., 2017,
     13, 1989-2009. DOI: 10.1021/acs.jctc.7b00118
   for GFN0-xTB:
   * P. Pracht, E. Caldeweyher, S. Ehlert, S. Grimme, ChemRxiv, 2019, preprint.
     DOI: 10.26434/chemrxiv.8326202.v1
   for GFN-FF:
   * S. Spicher and S. Grimme, Angew. Chem. Int. Ed., 2020, 59, 15665-15673.
     DOI: 10.1002/anie.202004239
   
   for ALPB and GBSA implicit solvation:
   * S. Ehlert, M. Stahn, S. Spicher, S. Grimme, J. Chem. Theory Comput.,
     2021, 17, 4250-4261. DOI: 10.1021/acs.jctc.1c00471
   
   for DFT-D4:
   * E. Caldeweyher, C. Bannwarth and S. Grimme, J. Chem. Phys., 2017,
     147, 034112. DOI: 10.1063/1.4993215
   * E. Caldeweyher, S. Ehlert, A. Hansen, H. Neugebauer, S. Spicher,
     C. Bannwarth and S. Grimme, J. Chem. Phys., 2019, 150, 154122.
     DOI: 10.1063/1.5090222
   * E. Caldeweyher, J.-M. Mewes, S. Ehlert and S. Grimme, Phys. Chem. Chem. Phys.
     2020, 22, 8499-8512. DOI: 10.1039/D0CP00502A
   
   for sTDA-xTB:
   * S. Grimme and C. Bannwarth, J. Chem. Phys., 2016, 145, 054103.
     DOI: 10.1063/1.4959605
   
   in the mass-spec context:
   * V. Asgeirsson, C. Bauer and S. Grimme, Chem. Sci., 2017, 8, 4879.
     DOI: 10.1039/c7sc00601b
   * J. Koopman and S. Grimme, ACS Omega 2019, 4, 12, 15120-15133.
     DOI: 10.1021/acsomega.9b02011
   
   for metadynamics refer to:
   * S. Grimme, J. Chem. Theory Comput., 2019, 155, 2847-2862
     DOI: 10.1021/acs.jctc.9b00143
   
   for SPH calculations refer to:
   * S. Spicher and S. Grimme, J. Chem. Theory Comput., 2021, 17, 1701-1714
     DOI: 10.1021/acs.jctc.0c01306
   
   with help from (in alphabetical order)
   P. Atkinson, C. Bannwarth, F. Bohle, G. Brandenburg, E. Caldeweyher
   M. Checinski, S. Dohm, S. Ehlert, S. Ehrlich, I. Gerasimov, C. Hölzer
   A. Katbashev, J. Koopman, C. Lavigne, S. Lehtola, F. März, M. Müller,
   F. Musil, H. Neugebauer, J. Pisarek, C. Plett, P. Pracht, F. Pultar,
   J. Seibert, P. Shushkov, S. Spicher, M. Stahn, M. Steiner, T. Strunk,
   J. Stückrath, T. Rose, and J. Unsleber
   
 * started run on 2024/04/06 at 11:12:14.729     

           -------------------------------------------------
          |                Calculation Setup                |
           -------------------------------------------------

          program call               : xtb xtbopt.xyz --opt crude --input .xc2 --gfn2
          hostname                   : n-62-30-23
          coordinate file            : xtbopt.xyz
          omp threads                :                     1

   ID    Z sym.   atoms
    1    7 N      1, 17
    2    6 C      2-6, 8, 9, 11-16, 18-23, 25, 26, 28-33
    3    8 O      7, 10, 24, 27
    4    1 H      34-72

molecular fragmentation (1/2 indicates fragments):
111222222222212222222222222222111222222222112212222222222222222211211111
# atoms in fragment 1/2:    17    55
 fragment masses (1/2) :       96.15      359.46
CMA distance (Bohr)    :  11.109
constraining FC (au)   :  0.0500
########################################################################
[WARNING] Please study the warnings concerning your input carefully
-1- readin_getIntValue: could not parse ''
########################################################################

           -------------------------------------------------
          |                 G F N 2 - x T B                 |
           -------------------------------------------------

        Reference                      10.1021/acs.jctc.8b01176
      * Hamiltonian:
        H0-scaling (s, p, d)           1.850000    2.230000    2.230000
        zeta-weighting                 0.500000
      * Dispersion:
        s8                             2.700000
        a1                             0.520000
        a2                             5.000000
        s9                             5.000000
      * Repulsion:
        kExp                           1.500000    1.000000
        rExp                           1.000000
      * Coulomb:
        alpha                          2.000000
        third order                    shell-resolved
        anisotropic                    true
        a3                             3.000000
        a5                             4.000000
        cn-shift                       1.200000
        cn-exp                         4.000000
        max-rad                        5.000000

q/qsh data taken from xtbrestart
CAMM data taken from xtbrestart

          ...................................................
          :                      SETUP                      :
          :.................................................:
          :  # basis functions                 171          :
          :  # atomic orbitals                 171          :
          :  # shells                          105          :
          :  # electrons                       180          :
          :  max. iterations                   250          :
          :  Hamiltonian                  GFN2-xTB          :
          :  restarted?                       true          :
          :  GBSA solvation                  false          :
          :  PC potential                    false          :
          :  electronic temp.         5000.0000000     K    :
          :  accuracy                    1.0000000          :
          :  -> integral cutoff          0.2500000E+02      :
          :  -> integral neglect         0.1000000E-07      :
          :  -> SCF convergence          0.1000000E-05 Eh   :
          :  -> wf. convergence          0.1000000E-03 e    :
          :  Broyden damping             0.4000000          :
          ...................................................

 iter      E             dE          RMSdq      gap      omega  full diag
   1   -100.7106824 -0.100711E+03  0.449E-05    1.10       0.0  T
   2   -100.7106824  0.694058E-10  0.431E-05    1.10     273.5  T
   3   -100.7106824 -0.117637E-09  0.243E-05    1.10     485.6  T

   *** convergence criteria satisfied after 3 iterations ***

         #    Occupation            Energy/Eh            Energy/eV
      -------------------------------------------------------------
         1        2.0000           -0.8107858             -22.0626
       ...           ...                  ...                  ...
        84        1.9892           -0.5020782             -13.6622
        85        1.9820           -0.4938886             -13.4394
        86        1.9705           -0.4860062             -13.2249
        87        1.9211           -0.4700276             -12.7901
        88        1.8722           -0.4619844             -12.5712
        89        1.8256           -0.4566600             -12.4264
        90        1.7279           -0.4487452             -12.2110 (HOMO)
        91        0.6632           -0.4083787             -11.1125 (LUMO)
        92        0.0666           -0.3661322              -9.9630
        93        0.0032           -0.3173670              -8.6360
        94        0.0024           -0.3131807              -8.5221
        95        0.0019           -0.3092741              -8.4158
       ...           ...                  ...                  ...
       171                          0.5803813              15.7930
      -------------------------------------------------------------
                  HL-Gap            0.0403665 Eh            1.0984 eV
             Fermi-level           -0.4194783 Eh          -11.4146 eV

 SCC (total)                   0 d,  0 h,  0 min,  0.122 sec
 SCC setup                      ...        0 min,  0.001 sec (  0.895%)
 Dispersion                     ...        0 min,  0.002 sec (  1.444%)
 classical contributions        ...        0 min,  0.000 sec (  0.372%)
 integral evaluation            ...        0 min,  0.017 sec ( 14.303%)
 iterations                     ...        0 min,  0.028 sec ( 22.907%)
 molecular gradient             ...        0 min,  0.072 sec ( 59.552%)
 printout                       ...        0 min,  0.001 sec (  0.515%)

         :::::::::::::::::::::::::::::::::::::::::::::::::::::
         ::                     SUMMARY                     ::
         :::::::::::::::::::::::::::::::::::::::::::::::::::::
         :: total energy             -99.287880831496 Eh    ::
         :: gradient norm              0.002558983091 Eh/a0 ::
         :: HOMO-LUMO gap              1.098428037533 eV    ::
         ::.................................................::
         :: SCC energy              -100.710682370294 Eh    ::
         :: -> isotropic ES            0.102847131741 Eh    ::
         :: -> anisotropic ES          0.002892281916 Eh    ::
         :: -> anisotropic XC          0.048558280934 Eh    ::
         :: -> dispersion             -0.066572880585 Eh    ::
         :: repulsion energy           1.421430371480 Eh    ::
         :: add. restraining           0.000000000000 Eh    ::
         :: total charge               1.000000000000 e     ::
         :::::::::::::::::::::::::::::::::::::::::::::::::::::

      ----------------------------------------------------------- 
     |                   =====================                   |
     |                        A N C O P T                        |
     |                   =====================                   |
     |               Approximate Normal Coordinate               |
     |                Rational Function Optimizer                |
      ----------------------------------------------------------- 

          ...................................................
          :                      SETUP                      :
          :.................................................:
          :   optimization level             crude          :
          :   max. optcycles                   200          :
          :   ANC micro-cycles                  20          :
          :   degrees of freedom               210          :
          :.................................................:
          :   RF solver                   davidson          :
          :   write xtbopt.log                true          :
          :   linear?                        false          :
          :   energy convergence         0.5000000E-03 Eh   :
          :   grad. convergence          0.1000000E-01 Eh/α :
          :   maxmium RF displ.          1.0000000          :
          :   Hlow (freq-cutoff)         0.1000000E-01      :
          :   Hmax (freq-cutoff)         5.0000000          :
          :   S6 in model hess.         20.0000000          :
          ...................................................

generating ANC from model Hessian ...
Using Lindh-Hessian (1995)
 Shifting diagonal of input Hessian by    1.0025673448907087E-002
 Lowest  eigenvalues of input Hessian
    0.010000    0.010016    0.000000    0.000000    0.000000    0.000000
    0.000000    0.000000    0.010029    0.010098    0.010130    0.010152
    0.010201    0.010228    0.010280    0.010439    0.010603    0.010708
 Highest eigenvalues
    2.046114    2.054844    2.103455    2.125151    2.171286    2.182668


........................................................................
.............................. CYCLE    1 ..............................
........................................................................

 iter      E             dE          RMSdq      gap      omega  full diag
   1   -100.7106824 -0.100711E+03  0.248E-05    1.10       0.0  T
   2   -100.7106824  0.319744E-09  0.509E-05    1.10     231.6  T
   3   -100.7106824 -0.386422E-09  0.786E-06    1.10    1499.1  T
     SCC iter.                  ...        0 min,  0.027 sec
     gradient                   ...        0 min,  0.070 sec
 * total energy  :   -99.2878808 Eh     change       -0.5192646E-10 Eh
   gradient norm :     0.0025590 Eh/α   predicted     0.0000000E+00 (-100.00%)
   displ. norm   :     0.0309643 α      lambda       -0.2642553E-04
   maximum displ.:     0.0131256 α      in ANC's #7, #35, #10, ...

   *** GEOMETRY OPTIMIZATION CONVERGED AFTER 1 ITERATIONS ***

------------------------------------------------------------------------
 total energy gain   :        -0.0000000 Eh       -0.0000 kcal/mol
 total RMSD          :         0.0000000 a0        0.0000 Å
 total power (kW/mol):        -0.0000001 (step)   -0.0000 (real)
------------------------------------------------------------------------

 ANCopt (total)                0 d,  0 h,  0 min,  0.161 sec
 optimizer setup                ...        0 min,  0.000 sec (  0.131%)
 model hessian                  ...        0 min,  0.033 sec ( 20.653%)
 ANC generation                 ...        0 min,  0.006 sec (  4.020%)
 coordinate transformation      ...        0 min,  0.000 sec (  0.026%)
 single point calculation       ...        0 min,  0.117 sec ( 73.046%)
 optimization log               ...        0 min,  0.002 sec (  1.522%)
 hessian update                 ...        0 min,  0.000 sec (  0.001%)
 rational function              ...        0 min,  0.001 sec (  0.536%)

================
 final structure:
================
72
 xtb: 6.6.1 (8d0f1dd)
N           -1.80744683757687        2.88599227132048        1.97158553401083
C           -1.93637512044141        2.59344113397076        0.74871823200963
C           -3.15701500375307        2.85766667091882        0.00241054476073
C           -4.76262664549752        0.27966637793453        1.33212039451744
C           -5.34724979786948       -0.13975736922774        0.15193943793737
C           -5.30400848588839       -1.48500538221707       -0.19345486178799
O           -5.83437443494195       -2.02180207903677       -1.31081468651200
C           -6.55274167090875       -1.19790625291150       -2.19956902559187
C           -4.65810365255235       -2.40587464554244        0.67793438401271
O           -4.67923840358937       -3.69090120501393        0.26819906805520
C           -4.16460070002310       -4.69075942087866        1.11736031891225
C           -4.07235366974086       -1.94354285861784        1.84741564662951
C           -4.12195715234428       -0.59349122809031        2.17822983246819
C           -3.21521564212662        2.51989318899422       -1.28952166118428
C           -0.60768464849868        0.85815462228427       -2.95751197668845
C            0.40909482810588        0.98133198298929       -2.09522090977648
N            0.73525735492232        0.12666344191325       -1.08267716877528
C            2.06248533038395        0.19242193631564       -0.52886126513156
C            3.10118722499667       -0.55450640414171       -1.39528186979297
C            4.49086081570465       -0.31063793066668       -0.88755864365557
C            5.11509162264590        0.90804954517614       -1.11989970828227
C            6.38858047663117        1.15943040609353       -0.63872179459873
C            7.07366043431107        0.19239940966946        0.08567382550899
O            8.31195520161313        0.32462076386241        0.59449260397661
C            9.02100680117017        1.52270024717416        0.37680749164933
C            6.44590031058588       -1.06213443761680        0.32556885162882
O            7.18287637618380       -1.94677210671951        1.02442693007099
C            6.66825485037871       -3.23447893130109        1.26834267943095
C            5.16516076339194       -1.28575890407254       -0.15903847701641
C           -0.00272923851082       -1.09922800125027       -0.91271774378177
C           -4.32667538113046        3.53569778283347        0.68338614191469
C           -4.72571678192543        2.85986881646155        1.94961280676176
C           -3.95503371424458        4.99769425630751        1.01204582747819
H           -5.83955949285485        0.57308538864606       -0.48905928357008
H           -7.41239172521409       -0.73167296621797       -1.70825304488033
H           -6.90430894562466       -1.86031683532204       -2.98899394629571
H           -5.91311832100678       -0.42267646833468       -2.63489916618110
H           -4.67797469404191       -4.69687085707842        2.08390795878065
H           -4.35004920986181       -5.63369666847231        0.60459210164899
H           -3.08741604568021       -4.57054104943074        1.27575746371668
H           -3.57715428037501       -2.62689012219792        2.51819366404073
H           -3.66833537411005       -0.24815311929678        3.09296725124253
H           -4.08897427452559        2.71151768410728       -1.88890312650841
H           -2.38267653917174        2.05185850644345       -1.79074914022132
H           -1.25642109687185        0.00097042942711       -2.98345945693325
H           -0.78110330323556        1.62114592607397       -3.69362685713395
H           -1.14296970765111        2.12620375351331        0.14843751643821
H            1.04597164957364        1.85570415842746       -2.14535053598942
H            2.05117742952306       -0.23643304172685        0.47697305330416
H            2.35895555237786        1.24163658082407       -0.44817659567569
H            3.01315618533289       -0.18997719351263       -2.42159490387287
H            2.87631090322826       -1.62152629444411       -1.38835940478337
H            4.61017496450012        1.67045601508234       -1.69342903452373
H            6.84615814694453        2.11456159718226       -0.83811741905832
H            8.51386463571351        2.37690331546162        0.83595606486534
H            9.16565072802111        1.71382089330749       -0.69076317811707
H            9.98946520077775        1.37995641075880        0.85251940737105
H            7.44695546601015       -3.76140961560250        1.81649149024331
H            5.76035907952755       -3.19517911717328        1.87827405056646
H            6.45991873619926       -3.76554834177951        0.33448868080538
H            4.68214743113625       -2.23418765631671        0.01633938394612
H            0.17407986431598       -1.80425124680678       -1.73024604349757
H           -1.06975885817396       -0.88104575646727       -0.86956120340610
H            0.29242877301679       -1.56694461904958        0.02332530395042
H           -5.16853668359544        3.54862221228622       -0.01705976366764
H           -3.95847483121859        2.81838880127370        2.70842883535357
H           -4.80309860115359        1.40511951977766        1.61263679273898
H           -5.72866808740015        3.04671204863006        2.30347806458776
H           -3.11576455013697        5.01900104044889        1.70136058276423
H           -3.68118522656951        5.51855394734470        0.09800132061352
H           -4.80156419416550        5.50674899035656        1.46557244717337
H           -0.91098051597968        2.67735757546742        2.39874475361692

 Bond Distances (Angstroems)
 ---------------------------
N1-C2=1.2640         N1-H72=1.0147        C2-N1=1.2640         C2-C3=1.4549         C2-H47=1.0992        C3-C2=1.4549         
C3-C14=1.3366        C3-C31=1.5138        C4-C5=1.3822         C4-C13=1.3743        C4-H67=1.1606        C5-C4=1.3822         
C5-C6=1.3896         C5-H34=1.0777        C6-C5=1.3896         C6-O7=1.3483         C6-C9=1.4229         O7-C6=1.3483         
O7-C8=1.4088         C8-O7=1.4088         C8-H35=1.0944        C8-H36=1.0888        C8-H37=1.0953        C9-C6=1.4229         
C9-O10=1.3489        C9-C12=1.3873        O10-C9=1.3489        O10-C11=1.4091       C11-O10=1.4091       C11-H38=1.0944       
C11-H39=1.0892       C11-H40=1.0954       C12-C9=1.3873        C12-C13=1.3909       C12-H41=1.0780       C13-C4=1.3743        
C13-C12=1.3909       C13-H42=1.0779       C14-C3=1.3366        C14-H43=1.0768       C14-H44=1.0786       C15-C16=1.3389       
C15-H45=1.0753       C15-H46=1.0743       C16-C15=1.3389       C16-N17=1.3646       C16-H48=1.0829       N17-C16=1.3646       
N17-C18=1.4396       N17-C30=1.4409       C18-N17=1.4396       C18-C19=1.5452       C18-H49=1.0935       C18-H50=1.0933       
C19-C18=1.5452       C19-C20=1.4995       C19-H51=1.0927       C19-H52=1.0905       C20-C19=1.4995       C20-C21=1.3888       
C20-C29=1.3915       C21-C20=1.3888       C21-C22=1.3844       C21-H53=1.0794       C22-C21=1.3844       C22-C23=1.3890       
C22-H54=1.0777       C23-C22=1.3890       C23-O24=1.3453       C23-C26=1.4232       O24-C23=1.3453       O24-C25=1.4091       
C25-O24=1.4091       C25-H55=1.0944       C25-H56=1.0941       C25-H57=1.0884       C26-C23=1.4232       C26-O27=1.3469       
C26-C29=1.3875       O27-C26=1.3469       O27-C28=1.4080       C28-O27=1.4080       C28-H58=1.0883       C28-H59=1.0945       
C28-H60=1.0943       C29-C20=1.3915       C29-C26=1.3875       C29-H61=1.0787       C30-N17=1.4409       C30-H62=1.0939       
C30-H63=1.0900       C30-H64=1.0872       C31-C3=1.5138        C31-C32=1.4897       C31-C33=1.5439       C31-H65=1.0952       
C32-C31=1.4897       C32-H66=1.0799       C32-H68=1.0798       C33-C31=1.5439       C33-H69=1.0863       C33-H70=1.0871       
C33-H71=1.0869       H34-C5=1.0777        H35-C8=1.0944        H36-C8=1.0888        H37-C8=1.0953        H38-C11=1.0944       
H39-C11=1.0892       H40-C11=1.0954       H41-C12=1.0780       H42-C13=1.0779       H43-C14=1.0768       H44-C14=1.0786       
H45-C15=1.0753       H46-C15=1.0743       H47-C2=1.0992        H48-C16=1.0829       H49-C18=1.0935       H50-C18=1.0933       
H51-C19=1.0927       H52-C19=1.0905       H53-C21=1.0794       H54-C22=1.0777       H55-C25=1.0944       H56-C25=1.0941       
H57-C25=1.0884       H58-C28=1.0883       H59-C28=1.0945       H60-C28=1.0943       H61-C29=1.0787       H62-C30=1.0939       
H63-C30=1.0900       H64-C30=1.0872       H65-C31=1.0952       H66-C32=1.0799       H67-C4=1.1606        H68-C32=1.0798       
H69-C33=1.0863       H70-C33=1.0871       H71-C33=1.0869       H72-N1=1.0147        
 C  H  Rav=1.0891 sigma=0.0137  Rmin=1.0743  Rmax=1.1606    38
 C  C  Rav=1.4217 sigma=0.0621  Rmin=1.3366  Rmax=1.5452    20
 N  H  Rav=1.0147 sigma=0.0000  Rmin=1.0147  Rmax=1.0147     1
 N  C  Rav=1.3773 sigma=0.0724  Rmin=1.2640  Rmax=1.4409     4
 O  C  Rav=1.3781 sigma=0.0307  Rmin=1.3453  Rmax=1.4091     8

 selected bond angles (degree)
 --------------------
H72-N1-C2=116.73               C3-C2-N1=122.67                H47-C2-N1=123.58               H47-C2-C3=113.74               
C14-C3-C2=119.11               C31-C3-C2=119.92               C31-C3-C14=120.95              C13-C4-C5=122.01               
H67-C4-C5=119.07               H67-C4-C13=118.92              C6-C5-C4=119.53                H34-C5-C4=120.02               
H34-C5-C6=120.45               O7-C6-C5=125.39                C9-C6-C5=119.24                C9-C6-O7=115.37                
C8-O7-C6=119.38                H35-C8-O7=111.50               H36-C8-O7=105.44               H36-C8-H35=109.33              
H37-C8-O7=111.52               H37-C8-H35=109.61              H37-C8-H36=109.33              O10-C9-C6=115.05               
C12-C9-C6=119.49               C12-C9-O10=125.46              C11-O10-C9=119.16              

 selected dihedral angles (degree)
 ---------------------------------
C3-C2-N1-H72=181.10           H47-C2-N1-H72=  0.62          C14-C3-C2-N1=179.93           C14-C3-C2-H47=  0.37          
C31-C3-C2-N1=  1.33           C31-C3-C2-H47=181.77          C6-C5-C4-C13=  0.67           C6-C5-C4-H67=179.98           
H34-C5-C4-C13=180.14          H34-C5-C4-H67=359.46          O7-C6-C5-C4=179.94            O7-C6-C5-H34=  0.46           
C9-C6-C5-C4=  0.06            C9-C6-C5-H34=180.58           C8-O7-C6-C5=356.91            C8-O7-C6-C9=176.79            
H35-C8-O7-C6=300.57           H36-C8-O7-C6=182.03           H37-C8-O7-C6= 63.47           O10-C9-C6-C5=179.27           
O10-C9-C6-O7=359.38           C12-C9-C6-C5=359.34           C12-C9-C6-O7=179.45           C11-O10-C9-C6=185.28          
C11-O10-C9-C12=  5.21         

 CMA Distance (Angstroems)
 ---------------------------
R(CMA):  5.8785
           -------------------------------------------------
          |                Final Singlepoint                |
           -------------------------------------------------

          ...................................................
          :                      SETUP                      :
          :.................................................:
          :  # basis functions                 171          :
          :  # atomic orbitals                 171          :
          :  # shells                          105          :
          :  # electrons                       180          :
          :  max. iterations                   250          :
          :  Hamiltonian                  GFN2-xTB          :
          :  restarted?                      false          :
          :  GBSA solvation                  false          :
          :  PC potential                    false          :
          :  electronic temp.         5000.0000000     K    :
          :  accuracy                    1.0000000          :
          :  -> integral cutoff          0.2500000E+02      :
          :  -> integral neglect         0.1000000E-07      :
          :  -> SCF convergence          0.1000000E-05 Eh   :
          :  -> wf. convergence          0.1000000E-03 e    :
          :  Broyden damping             0.4000000          :
          ...................................................

 iter      E             dE          RMSdq      gap      omega  full diag
   1   -100.7106824 -0.100711E+03  0.523E-06    1.10       0.0  T
   2   -100.7106824  0.682121E-12  0.487E-06    1.10    2422.1  T
   3   -100.7106824 -0.127898E-11  0.263E-06    1.10    4483.8  T

   *** convergence criteria satisfied after 3 iterations ***

         #    Occupation            Energy/Eh            Energy/eV
      -------------------------------------------------------------
         1        2.0000           -0.8107858             -22.0626
       ...           ...                  ...                  ...
        84        1.9892           -0.5020780             -13.6622
        85        1.9820           -0.4938885             -13.4394
        86        1.9705           -0.4860064             -13.2249
        87        1.9211           -0.4700274             -12.7901
        88        1.8722           -0.4619843             -12.5712
        89        1.8256           -0.4566602             -12.4264
        90        1.7279           -0.4487453             -12.2110 (HOMO)
        91        0.6632           -0.4083781             -11.1125 (LUMO)
        92        0.0666           -0.3661321              -9.9630
        93        0.0032           -0.3173669              -8.6360
        94        0.0024           -0.3131805              -8.5221
        95        0.0019           -0.3092743              -8.4158
       ...           ...                  ...                  ...
       171                          0.5803814              15.7930
      -------------------------------------------------------------
                  HL-Gap            0.0403672 Eh            1.0984 eV
             Fermi-level           -0.4194781 Eh          -11.4146 eV

 SCC (total)                   0 d,  0 h,  0 min,  0.114 sec
 SCC setup                      ...        0 min,  0.001 sec (  0.767%)
 Dispersion                     ...        0 min,  0.002 sec (  1.404%)
 classical contributions        ...        0 min,  0.000 sec (  0.392%)
 integral evaluation            ...        0 min,  0.017 sec ( 14.875%)
 iterations                     ...        0 min,  0.026 sec ( 22.956%)
 molecular gradient             ...        0 min,  0.067 sec ( 59.101%)
 printout                       ...        0 min,  0.001 sec (  0.491%)

         :::::::::::::::::::::::::::::::::::::::::::::::::::::
         ::                     SUMMARY                     ::
         :::::::::::::::::::::::::::::::::::::::::::::::::::::
         :: total energy             -99.287880831551 Eh    ::
         :: gradient norm              0.002558942492 Eh/a0 ::
         :: HOMO-LUMO gap              1.098448383859 eV    ::
         ::.................................................::
         :: SCC energy              -100.710682370348 Eh    ::
         :: -> isotropic ES            0.102847463378 Eh    ::
         :: -> anisotropic ES          0.002892135104 Eh    ::
         :: -> anisotropic XC          0.048558271916 Eh    ::
         :: -> dispersion             -0.066572878092 Eh    ::
         :: repulsion energy           1.421430371480 Eh    ::
         :: add. restraining           0.000000000000 Eh    ::
         :: total charge               1.000000000000 e     ::
         :::::::::::::::::::::::::::::::::::::::::::::::::::::

           -------------------------------------------------
          |                Property Printout                |
           -------------------------------------------------

    * Orbital Energies and Occupations

         #    Occupation            Energy/Eh            Energy/eV
      -------------------------------------------------------------
         1        2.0000           -0.8107858             -22.0626
       ...           ...                  ...                  ...
        78        1.9981           -0.5294350             -14.4067
        79        1.9979           -0.5282140             -14.3734
        80        1.9977           -0.5264247             -14.3247
        81        1.9975           -0.5251541             -14.2902
        82        1.9973           -0.5239203             -14.2566
        83        1.9956           -0.5162274             -14.0473
        84        1.9892           -0.5020780             -13.6622
        85        1.9820           -0.4938885             -13.4394
        86        1.9705           -0.4860064             -13.2249
        87        1.9211           -0.4700274             -12.7901
        88        1.8722           -0.4619843             -12.5712
        89        1.8256           -0.4566602             -12.4264
        90        1.7279           -0.4487453             -12.2110 (HOMO)
        91        0.6632           -0.4083781             -11.1125 (LUMO)
        92        0.0666           -0.3661321              -9.9630
        93        0.0032           -0.3173669              -8.6360
        94        0.0024           -0.3131805              -8.5221
        95        0.0019           -0.3092743              -8.4158
        96        0.0017           -0.3077884              -8.3754
        97        0.0004           -0.2849492              -7.7539
        98        0.0001           -0.2576725              -7.0116
        99        0.0000           -0.1882189              -5.1217
       100        0.0000           -0.1839214              -5.0048
       101                         -0.0911878              -2.4813
       ...                                ...                  ...
       171                          0.5803814              15.7930
      -------------------------------------------------------------
                  HL-Gap            0.0403672 Eh            1.0984 eV
             Fermi-level           -0.4194781 Eh          -11.4146 eV

     #   Z          covCN         q      C6AA      α(0)
     1   7 N        1.778    -0.289    28.312     7.880
     2   6 C        2.829     0.090    25.989     8.354
     3   6 C        2.951     0.012    27.756     8.641
     4   6 C        2.907    -0.043    29.056     8.839
     5   6 C        2.913    -0.068    29.692     8.935
     6   6 C        2.866     0.134    25.073     8.208
     7   8 O        1.706    -0.226    17.743     5.687
     8   6 C        3.644     0.026    20.475     6.504
     9   6 C        2.863     0.131    25.120     8.215
    10   8 O        1.706    -0.227    17.771     5.692
    11   6 C        3.644     0.026    20.481     6.505
    12   6 C        2.919    -0.067    29.665     8.931
    13   6 C        2.915    -0.038    28.947     8.823
    14   6 C        2.853    -0.092    30.294     9.021
    15   6 C        2.837    -0.123    31.120     9.142
    16   6 C        2.842     0.021    27.538     8.600
    17   7 N        2.732    -0.056    22.333     7.019
    18   6 C        3.754    -0.005    20.728     6.492
    19   6 C        3.807    -0.070    21.836     6.652
    20   6 C        2.968     0.007    27.867     8.659
    21   6 C        2.922    -0.046    29.134     8.851
    22   6 C        2.913    -0.066    29.643     8.928
    23   6 C        2.865     0.134    25.064     8.206
    24   8 O        1.706    -0.218    17.625     5.668
    25   6 C        3.645     0.024    20.498     6.507
    26   6 C        2.862     0.135    25.057     8.205
    27   8 O        1.706    -0.221    17.667     5.675
    28   6 C        3.645     0.026    20.471     6.503
    29   6 C        2.919    -0.076    29.908     8.968
    30   6 C        3.699    -0.052    21.678     6.659
    31   6 C        3.857    -0.004    20.620     6.458
    32   6 C        3.124    -0.079    29.767     8.934
    33   6 C        3.759    -0.108    22.606     6.778
    34   1 H        0.926     0.057     2.237     2.339
    35   1 H        0.924     0.056     2.251     2.346
    36   1 H        0.925     0.083     1.950     2.184
    37   1 H        0.924     0.050     2.320     2.382
    38   1 H        0.924     0.056     2.242     2.341
    39   1 H        0.925     0.082     1.960     2.190
    40   1 H        0.924     0.049     2.327     2.385
    41   1 H        0.926     0.060     2.200     2.319
    42   1 H        0.926     0.057     2.234     2.337
    43   1 H        0.926     0.054     2.268     2.355
    44   1 H        0.926     0.057     2.238     2.339
    45   1 H        0.926     0.044     2.391     2.418
    46   1 H        0.926     0.050     2.318     2.381
    47   1 H        0.923     0.011     2.872     2.650
    48   1 H        0.925     0.047     2.363     2.404
    49   1 H        0.924     0.051     2.302     2.373
    50   1 H        0.924     0.058     2.228     2.334
    51   1 H        0.924     0.056     2.245     2.343
    52   1 H        0.924     0.051     2.311     2.377
    53   1 H        0.926     0.049     2.335     2.389
    54   1 H        0.926     0.059     2.209     2.324
    55   1 H        0.924     0.056     2.246     2.344
    56   1 H        0.924     0.057     2.230     2.335
    57   1 H        0.925     0.083     1.948     2.182
    58   1 H        0.925     0.082     1.955     2.186
    59   1 H        0.924     0.052     2.296     2.370
    60   1 H        0.924     0.055     2.260     2.351
    61   1 H        0.926     0.052     2.296     2.369
    62   1 H        0.924     0.058     2.220     2.330
    63   1 H        0.925     0.061     2.182     2.310
    64   1 H        0.925     0.058     2.220     2.330
    65   1 H        0.924     0.052     2.296     2.370
    66   1 H        0.926     0.094     1.839     2.121
    67   1 H        1.192     0.113     1.658     2.011
    68   1 H        0.926     0.068     2.102     2.267
    69   1 H        0.925     0.068     2.103     2.268
    70   1 H        0.925     0.056     2.245     2.343
    71   1 H        0.925     0.056     2.245     2.343
    72   1 H        0.860     0.148     1.413     1.862

 Mol. C6AA /au·bohr⁶  :      48778.728802
 Mol. C8AA /au·bohr⁸  :    1116566.073857
 Mol. α(0) /au        :        343.344291


Wiberg/Mayer (AO) data.
largest (>0.10) Wiberg bond orders for each atom

 ---------------------------------------------------------------------------
     #   Z sym  total        # sym  WBO       # sym  WBO       # sym  WBO
 ---------------------------------------------------------------------------
     1   7 N    2.968 --     2 C    1.855    72 H    0.948    14 C    0.108
     2   6 C    3.929 --     1 N    1.855     3 C    1.093    47 H    0.935
     3   6 C    3.954 --    14 C    1.815     2 C    1.093    31 C    0.982
     4   6 C    3.736 --    13 C    1.445     5 C    1.410    67 H    0.677
     5   6 C    3.955 --     4 C    1.410     6 C    1.376    34 H    0.960
     6   6 C    3.894 --     5 C    1.376     9 C    1.226     7 O    1.103
     7   8 O    2.254 --     6 C    1.103     8 C    0.976
     8   6 C    3.929 --    36 H    0.976     7 O    0.976    37 H    0.973
                            35 H    0.973
     9   6 C    3.905 --    12 C    1.394     6 C    1.226    10 O    1.102
    10   8 O    2.253 --     9 C    1.102    11 C    0.977
    11   6 C    3.930 --    10 O    0.977    39 H    0.977    38 H    0.973
                            40 H    0.973
    12   6 C    3.950 --     9 C    1.394    13 C    1.391    41 H    0.961
    13   6 C    3.948 --     4 C    1.445    12 C    1.391    42 H    0.966
    14   6 C    3.930 --     3 C    1.815    43 H    0.975    44 H    0.961
                             1 N    0.108
    15   6 C    3.822 --    16 C    1.738    46 H    0.976    45 H    0.974
    16   6 C    3.943 --    15 C    1.738    17 N    1.193    48 H    0.958
    17   7 N    3.350 --    16 C    1.193    30 C    1.008    18 C    1.004
    18   6 C    3.964 --    17 N    1.004    49 H    0.969    50 H    0.967
                            19 C    0.962
    19   6 C    3.973 --    20 C    1.015    52 H    0.974    51 H    0.966
                            18 C    0.962
    20   6 C    3.931 --    21 C    1.390    29 C    1.387    19 C    1.015
    21   6 C    3.933 --    22 C    1.428    20 C    1.390    53 H    0.967
    22   6 C    3.953 --    21 C    1.428    23 C    1.374    54 H    0.963
    23   6 C    3.877 --    22 C    1.374    26 C    1.215    24 O    1.113
    24   8 O    2.247 --    23 C    1.113    25 C    0.976
    25   6 C    3.926 --    57 H    0.977    24 O    0.976    56 H    0.972
                            55 H    0.972
    26   6 C    3.884 --    29 C    1.387    23 C    1.215    27 O    1.108
    27   8 O    2.249 --    26 C    1.108    28 C    0.977
    28   6 C    3.929 --    27 O    0.977    58 H    0.977    60 H    0.972
                            59 H    0.972
    29   6 C    3.953 --    20 C    1.387    26 C    1.387    61 H    0.961
    30   6 C    3.969 --    17 N    1.008    64 H    0.980    63 H    0.974
                            62 H    0.967
    31   6 C    3.980 --    32 C    1.049     3 C    0.982    65 H    0.961
                            33 C    0.940
    32   6 C    3.403 --    31 C    1.049    68 H    0.975    66 H    0.963
                            67 H    0.286
    33   6 C    3.938 --    71 H    0.983    69 H    0.981    70 H    0.977
                            31 C    0.940
    34   1 H    0.992 --     5 C    0.960
    35   1 H    0.993 --     8 C    0.973
    36   1 H    0.992 --     8 C    0.976
    37   1 H    0.993 --     8 C    0.973
    38   1 H    0.993 --    11 C    0.973
    39   1 H    0.993 --    11 C    0.977
    40   1 H    0.993 --    11 C    0.973
    41   1 H    0.991 --    12 C    0.961
    42   1 H    0.993 --    13 C    0.966
    43   1 H    0.995 --    14 C    0.975
    44   1 H    0.994 --    14 C    0.961
    45   1 H    0.998 --    15 C    0.974
    46   1 H    0.997 --    15 C    0.976
    47   1 H    0.981 --     2 C    0.935
    48   1 H    0.997 --    16 C    0.958
    49   1 H    0.994 --    18 C    0.969
    50   1 H    0.994 --    18 C    0.967
    51   1 H    0.993 --    19 C    0.966
    52   1 H    0.996 --    19 C    0.974
    53   1 H    0.997 --    21 C    0.967
    54   1 H    0.995 --    22 C    0.963
    55   1 H    0.990 --    25 C    0.972
    56   1 H    0.990 --    25 C    0.972
    57   1 H    0.992 --    25 C    0.977
    58   1 H    0.992 --    28 C    0.977
    59   1 H    0.991 --    28 C    0.972
    60   1 H    0.991 --    28 C    0.972
    61   1 H    0.996 --    29 C    0.961
    62   1 H    0.983 --    30 C    0.967
    63   1 H    0.991 --    30 C    0.974
    64   1 H    0.996 --    30 C    0.980
    65   1 H    0.993 --    31 C    0.961
    66   1 H    0.988 --    32 C    0.963
    67   1 H    0.985 --     4 C    0.677    32 C    0.286
    68   1 H    0.991 --    32 C    0.975
    69   1 H    0.994 --    33 C    0.981
    70   1 H    0.988 --    33 C    0.977
    71   1 H    0.995 --    33 C    0.983
    72   1 H    0.971 --     1 N    0.948
 ---------------------------------------------------------------------------

Topologies differ in total number of bonds
Writing topology from bond orders to xtbtopo.mol

molecular dipole:
                 x           y           z       tot (Debye)
 q only:       -0.625       0.325       0.299
   full:       -0.369       0.284       0.056       1.191
molecular quadrupole (traceless):
                xx          xy          yy          xz          yz          zz
 q only:       73.739      -7.402     -20.655      -2.856      -6.403     -53.084
  q+dip:       70.993      -6.004     -21.511      -1.506     -10.223     -49.481
   full:       70.815      -5.181     -20.406      -4.097     -10.387     -50.409

           -------------------------------------------------
          |                Geometry Summary                 |
           -------------------------------------------------

      molecular mass/u    :      455.6105846
   center of mass at/Å    :       -0.0178607       0.0030387       0.0264165
  moments of inertia/u·Å² :        0.3034111E+04   0.1206156E+05   0.1353385E+05
rotational constants/cm⁻¹ :        0.5556037E-02   0.1397633E-02   0.1245590E-02

 * 64 selected distances

     #   Z          #   Z                                           value/Å
     1   7 N        2   6 C                                       1.2639673
     4   6 C        5   6 C                                       1.3822185
     5   6 C        6   6 C                                       1.3895537
     6   6 C        7   8 O                                       1.3483071
     7   8 O        8   6 C                                       1.4088082
     6   6 C        9   6 C                                       1.4228538
     9   6 C       10   8 O                                       1.3489341
    10   8 O       11   6 C                                       1.4091287
     9   6 C       12   6 C                                       1.3872781
     4   6 C       13   6 C                                       1.3743228
    12   6 C       13   6 C                                       1.3908768
     3   6 C       14   6 C                                       1.3366254
    15   6 C       16   6 C                                       1.3388650
    16   6 C       17   7 N                                       1.3645825
    17   7 N       18   6 C                                       1.4396426
    20   6 C       21   6 C                                       1.3888290
    21   6 C       22   6 C                                       1.3843767
    22   6 C       23   6 C                                       1.3889683
    23   6 C       24   8 O                                       1.3452707
    24   8 O       25   6 C                                       1.4090904
    23   6 C       26   6 C                                       1.4231964
    26   6 C       27   8 O                                       1.3468929
    27   8 O       28   6 C                                       1.4080197
    20   6 C       29   6 C                                       1.3915040
    26   6 C       29   6 C                                       1.3874964
    17   7 N       30   6 C                                       1.4409444
    31   6 C       32   6 C                                       1.4897346 (max)
     5   6 C       34   1 H                                       1.0776795
     8   6 C       35   1 H                                       1.0944237
     8   6 C       36   1 H                                       1.0888431
     8   6 C       37   1 H                                       1.0952679
    11   6 C       38   1 H                                       1.0944427
    11   6 C       39   1 H                                       1.0892444
    11   6 C       40   1 H                                       1.0953854
    12   6 C       41   1 H                                       1.0780210
    13   6 C       42   1 H                                       1.0778571
    14   6 C       43   1 H                                       1.0767695
    14   6 C       44   1 H                                       1.0786135
    15   6 C       45   1 H                                       1.0753126
    15   6 C       46   1 H                                       1.0742882 (min)
     2   6 C       47   1 H                                       1.0991543
    16   6 C       48   1 H                                       1.0828906
    18   6 C       49   1 H                                       1.0935023
    18   6 C       50   1 H                                       1.0932777
    19   6 C       51   1 H                                       1.0926800
    19   6 C       52   1 H                                       1.0904811
    21   6 C       53   1 H                                       1.0794168
    22   6 C       54   1 H                                       1.0776881
    25   6 C       55   1 H                                       1.0943828
    25   6 C       56   1 H                                       1.0941464
    25   6 C       57   1 H                                       1.0883885
    28   6 C       58   1 H                                       1.0883464
    28   6 C       59   1 H                                       1.0944568
    28   6 C       60   1 H                                       1.0943136
    29   6 C       61   1 H                                       1.0786921
    30   6 C       62   1 H                                       1.0939250
    30   6 C       63   1 H                                       1.0899626
    30   6 C       64   1 H                                       1.0872230
    31   6 C       65   1 H                                       1.0952270
    32   6 C       66   1 H                                       1.0798994
    32   6 C       68   1 H                                       1.0798345
    33   6 C       69   1 H                                       1.0862697
    33   6 C       70   1 H                                       1.0870903
    33   6 C       71   1 H                                       1.0869394

 * 4 distinct bonds (by element types)

   Z      Z             #   av. dist./Å        max./Å        min./Å
   1 H    6 C          37     1.0871442     1.0991543     1.0742882
   6 C    6 C          15     1.3917800     1.4897346     1.3366254
   6 C    7 N           4     1.3772842     1.4409444     1.2639673
   6 C    8 O           8     1.3780565     1.4091287     1.3452707


optimized geometry written to: xtbopt.xyz


           -------------------------------------------------
          | TOTAL ENERGY              -99.287880831551 Eh   |
          | GRADIENT NORM               0.002558942492 Eh/α |
          | HOMO-LUMO GAP               1.098448383859 eV   |
           -------------------------------------------------

------------------------------------------------------------------------
 * finished run on 2024/04/06 at 11:12:15.183     
------------------------------------------------------------------------
 total:
 * wall-time:     0 d,  0 h,  0 min,  0.453 sec
 *  cpu-time:     0 d,  0 h,  0 min,  0.418 sec
 * ratio c/w:     0.923 speedup
 SCF:
 * wall-time:     0 d,  0 h,  0 min,  0.122 sec
 *  cpu-time:     0 d,  0 h,  0 min,  0.122 sec
 * ratio c/w:     0.997 speedup
 ANC optimizer:
 * wall-time:     0 d,  0 h,  0 min,  0.281 sec
 *  cpu-time:     0 d,  0 h,  0 min,  0.273 sec
 * ratio c/w:     0.972 speedup

