25
 energy: 15.827774609433 xtb: 6.6.1 (8d0f1dd)
C            3.27834171091924        1.21595018891055        0.09997666658416
N            2.33901452114267        0.13669926309617        0.03635929343775
C            2.67078733844555       -1.20810986880569        0.06743098116386
N            1.49696416198004       -1.91785868284433        0.03685107810755
C            0.42358229950778       -1.10026439619575       -0.00955576829538
C            0.93619816089452        0.21008999151464       -0.01167452216416
C            0.08539858738955        1.31648088441739       -0.05918797538714
O            0.40168107557776        2.51083606684001       -0.07123604101692
N           -1.35136390611399        0.92747274720558       -0.06410662621417
C           -2.19813316328191        2.11341427198364       -0.08441146282679
C           -1.89616413834797       -0.35334803379815       -0.07914090521184
O           -3.04976730901430       -0.76672195967067       -0.13236527287628
N           -0.94611424909233       -1.38912754181081       -0.00605241412595
C           -1.67370816484986       -2.67641829672204       -0.01994226513137
H            3.77713699784002        1.25869967142234        1.07690940962447
H            4.05213926836162        1.09679580632781       -0.66657540084715
H            2.75054434781236        2.15483108496569       -0.05957954547916
H            3.65341867517176       -1.62425638880586        0.11223519150273
H           -1.56407435157808        3.00615738335696       -0.03288818984141
H           -2.77238126051243        2.15695789682851       -1.00673662796650
H           -2.85615866091550        2.12483117330709        0.77978683240746
H           -1.01096988154239       -3.38145660333049        0.49021540549837
H           -1.70318851551369       -3.02723700748895       -1.05645572520353
H           -2.78854276302399       -2.65115570608689        0.38960938561874
H            1.47341437230752       -2.91913054334228        0.04682536014645
