      -----------------------------------------------------------      
     |                   =====================                   |     
     |                           x T B                           |     
     |                   =====================                   |     
     |                         S. Grimme                         |     
     |          Mulliken Center for Theoretical Chemistry        |     
     |                    University of Bonn                     |     
      -----------------------------------------------------------      

   * xtb version 6.6.1 (8d0f1dd) compiled by 'conda@1efc2f54142f' on 2023-08-01

   xtb is free software: you can redistribute it and/or modify it under
   the terms of the GNU Lesser General Public License as published by
   the Free Software Foundation, either version 3 of the License, or
   (at your option) any later version.
   
   xtb is distributed in the hope that it will be useful,
   but WITHOUT ANY WARRANTY; without even the implied warranty of
   MERCHANTABILITY or FITNESS FOR A PARTICULAR PURPOSE.  See the
   GNU Lesser General Public License for more details.
   
   Cite this work as:
   * C. Bannwarth, E. Caldeweyher, S. Ehlert, A. Hansen, P. Pracht,
     J. Seibert, S. Spicher, S. Grimme, WIREs Comput. Mol. Sci., 2020, 11,
     e01493. DOI: 10.1002/wcms.1493
   
   for GFN2-xTB:
   * C. Bannwarth, S. Ehlert and S. Grimme., J. Chem. Theory Comput., 2019,
     15, 1652-1671. DOI: 10.1021/acs.jctc.8b01176
   for GFN1-xTB:
   * S. Grimme, C. Bannwarth, P. Shushkov, J. Chem. Theory Comput., 2017,
     13, 1989-2009. DOI: 10.1021/acs.jctc.7b00118
   for GFN0-xTB:
   * P. Pracht, E. Caldeweyher, S. Ehlert, S. Grimme, ChemRxiv, 2019, preprint.
     DOI: 10.26434/chemrxiv.8326202.v1
   for GFN-FF:
   * S. Spicher and S. Grimme, Angew. Chem. Int. Ed., 2020, 59, 15665-15673.
     DOI: 10.1002/anie.202004239
   
   for ALPB and GBSA implicit solvation:
   * S. Ehlert, M. Stahn, S. Spicher, S. Grimme, J. Chem. Theory Comput.,
     2021, 17, 4250-4261. DOI: 10.1021/acs.jctc.1c00471
   
   for DFT-D4:
   * E. Caldeweyher, C. Bannwarth and S. Grimme, J. Chem. Phys., 2017,
     147, 034112. DOI: 10.1063/1.4993215
   * E. Caldeweyher, S. Ehlert, A. Hansen, H. Neugebauer, S. Spicher,
     C. Bannwarth and S. Grimme, J. Chem. Phys., 2019, 150, 154122.
     DOI: 10.1063/1.5090222
   * E. Caldeweyher, J.-M. Mewes, S. Ehlert and S. Grimme, Phys. Chem. Chem. Phys.
     2020, 22, 8499-8512. DOI: 10.1039/D0CP00502A
   
   for sTDA-xTB:
   * S. Grimme and C. Bannwarth, J. Chem. Phys., 2016, 145, 054103.
     DOI: 10.1063/1.4959605
   
   in the mass-spec context:
   * V. Asgeirsson, C. Bauer and S. Grimme, Chem. Sci., 2017, 8, 4879.
     DOI: 10.1039/c7sc00601b
   * J. Koopman and S. Grimme, ACS Omega 2019, 4, 12, 15120-15133.
     DOI: 10.1021/acsomega.9b02011
   
   for metadynamics refer to:
   * S. Grimme, J. Chem. Theory Comput., 2019, 155, 2847-2862
     DOI: 10.1021/acs.jctc.9b00143
   
   for SPH calculations refer to:
   * S. Spicher and S. Grimme, J. Chem. Theory Comput., 2021, 17, 1701-1714
     DOI: 10.1021/acs.jctc.0c01306
   
   with help from (in alphabetical order)
   P. Atkinson, C. Bannwarth, F. Bohle, G. Brandenburg, E. Caldeweyher
   M. Checinski, S. Dohm, S. Ehlert, S. Ehrlich, I. Gerasimov, C. Hölzer
   A. Katbashev, J. Koopman, C. Lavigne, S. Lehtola, F. März, M. Müller,
   F. Musil, H. Neugebauer, J. Pisarek, C. Plett, P. Pracht, F. Pultar,
   J. Seibert, P. Shushkov, S. Spicher, M. Stahn, M. Steiner, T. Strunk,
   J. Stückrath, T. Rose, and J. Unsleber
   
 * started run on 2024/06/05 at 19:57:49.793     

           -------------------------------------------------
          |                Calculation Setup                |
           -------------------------------------------------

          program call               : xtb struc.xyz --opt loose --input .xc1 --gfn2
          hostname                   : n-62-11-68
          coordinate file            : struc.xyz
          omp threads                :                     1

   ID    Z sym.   atoms
    1    6 C      1, 3, 5-7, 10, 11, 14
    2    7 N      2, 4, 9, 13
    3    8 O      8, 12
    4    1 H      15-25
constraining bond 2 17 to    4.0600000 Å, actual value:    2.0658315 Å

           -------------------------------------------------
          |                 G F N 2 - x T B                 |
           -------------------------------------------------

        Reference                      10.1021/acs.jctc.8b01176
      * Hamiltonian:
        H0-scaling (s, p, d)           1.850000    2.230000    2.230000
        zeta-weighting                 0.500000
      * Dispersion:
        s8                             2.700000
        a1                             0.520000
        a2                             5.000000
        s9                             5.000000
      * Repulsion:
        kExp                           1.500000    1.000000
        rExp                           1.000000
      * Coulomb:
        alpha                          2.000000
        third order                    shell-resolved
        anisotropic                    true
        a3                             3.000000
        a5                             4.000000
        cn-shift                       1.200000
        cn-exp                         4.000000
        max-rad                        5.000000


          ...................................................
          :                      SETUP                      :
          :.................................................:
          :  # basis functions                  67          :
          :  # atomic orbitals                  67          :
          :  # shells                           39          :
          :  # electrons                        74          :
          :  max. iterations                   250          :
          :  Hamiltonian                  GFN2-xTB          :
          :  restarted?                      false          :
          :  GBSA solvation                  false          :
          :  PC potential                    false          :
          :  electronic temp.         5000.0000000     K    :
          :  accuracy                    1.0000000          :
          :  -> integral cutoff          0.2500000E+02      :
          :  -> integral neglect         0.1000000E-07      :
          :  -> SCF convergence          0.1000000E-05 Eh   :
          :  -> wf. convergence          0.1000000E-03 e    :
          :  Broyden damping             0.4000000          :
          ...................................................

 iter      E             dE          RMSdq      gap      omega  full diag
   1    -42.5894031 -0.425894E+02  0.445E+00    3.52       0.0  T
   2    -42.7683054 -0.178902E+00  0.251E+00    3.36       1.0  T
   3    -42.7759211 -0.761567E-02  0.147E+00    3.35       1.0  T
   4    -42.7728404  0.308066E-02  0.553E-01    3.33       1.0  T
   5    -42.7789548 -0.611444E-02  0.112E-01    3.35       1.0  T
   6    -42.7790473 -0.924914E-04  0.614E-02    3.33       1.0  T
   7    -42.7790721 -0.247928E-04  0.258E-02    3.34       1.0  T
   8    -42.7790772 -0.508996E-05  0.938E-03    3.34       2.1  T
   9    -42.7790779 -0.669422E-06  0.448E-03    3.34       4.5  T
  10    -42.7790780 -0.821510E-07  0.115E-03    3.34      17.4  T
  11    -42.7790780 -0.322663E-08  0.553E-04    3.34      36.2  T
  12    -42.7790780 -0.287051E-08  0.180E-04    3.34     111.1  T

   *** convergence criteria satisfied after 12 iterations ***

         #    Occupation            Energy/Eh            Energy/eV
      -------------------------------------------------------------
         1        2.0000           -0.9185990             -24.9964
       ...           ...                  ...                  ...
        31        1.9996           -0.6230278             -16.9534
        32        1.9995           -0.6194601             -16.8564
        33        1.9979           -0.5974976             -16.2587
        34        1.9932           -0.5789629             -15.7544
        35        1.9817           -0.5631863             -15.3251
        36        1.9779           -0.5602245             -15.2445
        37        1.9748           -0.5581234             -15.1873 (HOMO)
        38        0.0652           -0.4353579             -11.8467 (LUMO)
        39        0.0099           -0.4050467             -11.0219
        40        0.0013           -0.3732218             -10.1559
        41        0.0000           -0.2886859              -7.8555
        42                         -0.2065804              -5.6213
       ...                                ...                  ...
        67                          0.5625656              15.3082
      -------------------------------------------------------------
                  HL-Gap            0.1227656 Eh            3.3406 eV
             Fermi-level           -0.4890455 Eh          -13.3076 eV

 SCC (total)                   0 d,  0 h,  0 min,  0.033 sec
 SCC setup                      ...        0 min,  0.000 sec (  0.773%)
 Dispersion                     ...        0 min,  0.000 sec (  0.879%)
 classical contributions        ...        0 min,  0.000 sec (  0.249%)
 integral evaluation            ...        0 min,  0.005 sec ( 16.163%)
 iterations                     ...        0 min,  0.015 sec ( 46.687%)
 molecular gradient             ...        0 min,  0.011 sec ( 34.817%)
 printout                       ...        0 min,  0.000 sec (  0.410%)

         :::::::::::::::::::::::::::::::::::::::::::::::::::::
         ::                     SUMMARY                     ::
         :::::::::::::::::::::::::::::::::::::::::::::::::::::
         :: total energy             -35.147318521133 Eh    ::
         :: gradient norm              5.325573381567 Eh/a0 ::
         :: HOMO-LUMO gap              3.340621582928 eV    ::
         ::.................................................::
         :: SCC energy               -42.779077977399 Eh    ::
         :: -> isotropic ES            0.141123876439 Eh    ::
         :: -> anisotropic ES         -0.005230418907 Eh    ::
         :: -> anisotropic XC          0.011966818540 Eh    ::
         :: -> dispersion             -0.022657731803 Eh    ::
         :: repulsion energy           0.531105277918 Eh    ::
         :: add. restraining           7.100540019339 Eh    ::
         :: total charge               1.000000000002 e     ::
         :::::::::::::::::::::::::::::::::::::::::::::::::::::

      ----------------------------------------------------------- 
     |                   =====================                   |
     |                        A N C O P T                        |
     |                   =====================                   |
     |               Approximate Normal Coordinate               |
     |                Rational Function Optimizer                |
      ----------------------------------------------------------- 

          ...................................................
          :                      SETUP                      :
          :.................................................:
          :   optimization level             loose          :
          :   max. optcycles                   200          :
          :   ANC micro-cycles                  20          :
          :   degrees of freedom                69          :
          :.................................................:
          :   RF solver                   davidson          :
          :   write xtbopt.log                true          :
          :   linear?                        false          :
          :   energy convergence         0.5000000E-04 Eh   :
          :   grad. convergence          0.4000000E-02 Eh/α :
          :   maxmium RF displ.          1.0000000          :
          :   Hlow (freq-cutoff)         0.1000000E-01      :
          :   Hmax (freq-cutoff)         5.0000000          :
          :   S6 in model hess.         20.0000000          :
          ...................................................

generating ANC from model Hessian ...
Using Lindh-Hessian (1995)
 Shifting diagonal of input Hessian by    1.7548887155443287     
 Lowest  eigenvalues of input Hessian
    0.010000    0.329162    0.000000    0.000000    0.000000    0.000000
    0.000000    0.000000    1.759006    1.760116    1.760497    1.765312
    1.766221    1.768780    1.770884    1.773294    1.775412    1.792392
 Highest eigenvalues
    3.777944    3.922312    4.025485    4.153685    4.295590    4.965526


........................................................................
.............................. CYCLE    1 ..............................
........................................................................

 iter      E             dE          RMSdq      gap      omega  full diag
   1    -42.7790780 -0.427791E+02  0.626E-05    3.34       0.0  T
   2    -42.7790780 -0.124416E-10  0.329E-05    3.34     607.4  T
   3    -42.7790780  0.127898E-12  0.193E-05    3.34    1034.2  T
     SCC iter.                  ...        0 min,  0.004 sec
     gradient                   ...        0 min,  0.011 sec
 * total energy  :   -35.1473185 Eh     change       -0.6650680E-10 Eh
   gradient norm :     5.3255729 Eh/α   predicted     0.0000000E+00 (-100.00%)
   displ. norm   :     0.6686051 α      lambda       -0.3535460E+01
   maximum displ.:     0.5574276 α      in ANC's #69, #60, #57, ...

........................................................................
.............................. CYCLE    2 ..............................
........................................................................

 iter      E             dE          RMSdq      gap      omega  full diag
   1    -42.7329580 -0.427330E+02  0.967E-01    4.04       0.0  T
   2    -42.7354395 -0.248156E-02  0.541E-01    3.99       1.0  T
   3    -42.7354061  0.334308E-04  0.242E-01    3.99       1.0  T
   4    -42.7358703 -0.464180E-03  0.556E-02    4.00       1.0  T
   5    -42.7359104 -0.401094E-04  0.227E-02    3.99       1.0  T
   6    -42.7359106 -0.223865E-06  0.103E-02    3.99       1.9  T
   7    -42.7359116 -0.101726E-05  0.170E-03    3.99      11.8  T
   8    -42.7359117 -0.312184E-07  0.768E-04    3.99      26.1  T
   9    -42.7359117 -0.106429E-08  0.245E-04    3.99      81.5  T
     SCC iter.                  ...        0 min,  0.011 sec
     gradient                   ...        0 min,  0.011 sec
 * total energy  :   -38.1442004 Eh     change       -0.2996882E+01 Eh
   gradient norm :     3.6704159 Eh/α   predicted    -0.2558334E+01 ( -14.63%)
   displ. norm   :     0.7403285 α      lambda       -0.2688616E+01
   maximum displ.:     0.5682876 α      in ANC's #69, #60, #58, ...

........................................................................
.............................. CYCLE    3 ..............................
........................................................................

 iter      E             dE          RMSdq      gap      omega  full diag
   1    -42.6026523 -0.426027E+02  0.823E-01    3.67       0.0  T
   2    -42.6042130 -0.156071E-02  0.517E-01    3.81       1.0  T
   3    -42.6036740  0.539049E-03  0.244E-01    3.71       1.0  T
   4    -42.6047952 -0.112122E-02  0.893E-02    3.83       1.0  T
   5    -42.6049153 -0.120144E-03  0.260E-02    3.80       1.0  T
   6    -42.6049167 -0.140242E-05  0.113E-02    3.80       1.8  T
   7    -42.6049175 -0.810664E-06  0.232E-03    3.79       8.6  T
   8    -42.6049176 -0.497822E-07  0.117E-03    3.79      17.0  T
   9    -42.6049176 -0.986864E-08  0.377E-04    3.79      53.1  T
  10    -42.6049176 -0.817444E-09  0.186E-04    3.79     107.4  T
     SCC iter.                  ...        0 min,  0.012 sec
     gradient                   ...        0 min,  0.011 sec
 * total energy  :   -40.2374181 Eh     change       -0.2093218E+01 Eh
   gradient norm :     2.0974623 Eh/α   predicted    -0.2081111E+01 (  -0.58%)
   displ. norm   :     0.7139494 α      lambda       -0.1470206E+01
   maximum displ.:     0.3694078 α      in ANC's #69, #60, #58, ...

........................................................................
.............................. CYCLE    4 ..............................
........................................................................

 iter      E             dE          RMSdq      gap      omega  full diag
   1    -42.4512448 -0.424512E+02  0.748E-01    2.71       0.0  T
   2    -42.4485211  0.272370E-02  0.745E-01    2.72       1.0  T
   3    -42.4585732 -0.100520E-01  0.305E-01    2.78       1.0  T
   4    -42.4589668 -0.393598E-03  0.188E-01    2.75       1.0  T
   5    -42.4595160 -0.549185E-03  0.463E-02    2.77       1.0  T
   6    -42.4595690 -0.530156E-04  0.168E-02    2.77       1.2  T
   7    -42.4595708 -0.180001E-05  0.842E-03    2.76       2.4  T
   8    -42.4595715 -0.781438E-06  0.225E-03    2.77       8.9  T
   9    -42.4595716 -0.674942E-07  0.848E-04    2.77      23.6  T
  10    -42.4595716 -0.161035E-08  0.364E-04    2.77      54.9  T
     SCC iter.                  ...        0 min,  0.012 sec
     gradient                   ...        0 min,  0.011 sec
 * total energy  :   -41.3340433 Eh     change       -0.1096625E+01 Eh
   gradient norm :     1.0450184 Eh/α   predicted    -0.1109848E+01 (   1.21%)
   displ. norm   :     0.5447270 α      lambda       -0.5559623E+00
   maximum displ.:     0.2671503 α      in ANC's #69, #60, #39, ...

........................................................................
.............................. CYCLE    5 ..............................
........................................................................

 iter      E             dE          RMSdq      gap      omega  full diag
   1    -42.3800879 -0.423801E+02  0.553E-01    1.88       0.0  T
   2    -42.3808804 -0.792503E-03  0.353E-01    1.92       1.0  T
   3    -42.3807454  0.134995E-03  0.206E-01    1.91       1.0  T
   4    -42.3812432 -0.497798E-03  0.115E-01    1.91       1.0  T
   5    -42.3814149 -0.171701E-03  0.650E-02    1.94       1.0  T
   6    -42.3815737 -0.158871E-03  0.166E-02    1.92       1.2  T
   7    -42.3815796 -0.589855E-05  0.807E-03    1.92       2.5  T
   8    -42.3815803 -0.722285E-06  0.193E-03    1.92      10.4  T
   9    -42.3815804 -0.670930E-07  0.659E-04    1.92      30.4  T
  10    -42.3815804 -0.295574E-08  0.377E-04    1.92      53.1  T
     SCC iter.                  ...        0 min,  0.012 sec
     gradient                   ...        0 min,  0.011 sec
 * total energy  :   -41.7071770 Eh     change       -0.3731337E+00 Eh
   gradient norm :     0.4417049 Eh/α   predicted    -0.3604659E+00 (  -3.39%)
   displ. norm   :     0.4673388 α      lambda       -0.1560767E+00
   maximum displ.:     0.3365571 α      in ANC's #1, #39, #57, ...

........................................................................
.............................. CYCLE    6 ..............................
........................................................................

 iter      E             dE          RMSdq      gap      omega  full diag
   1    -42.3569166 -0.423569E+02  0.919E-01    1.37       0.0  T
   2    -42.2934416  0.634749E-01  0.155E+00    1.78       1.0  T
   3    -42.3743181 -0.808764E-01  0.516E-01    1.49       1.0  T
   4    -42.3803898 -0.607175E-02  0.192E-01    1.51       1.0  T
   5    -42.3804612 -0.713788E-04  0.978E-02    1.53       1.0  T
   6    -42.3807781 -0.316896E-03  0.203E-02    1.52       1.0  T
   7    -42.3807835 -0.537697E-05  0.856E-03    1.52       2.3  T
   8    -42.3807838 -0.364204E-06  0.325E-03    1.52       6.1  T
   9    -42.3807839 -0.390497E-07  0.814E-04    1.52      24.6  T
  10    -42.3807839 -0.757455E-08  0.409E-04    1.52      49.0  T
     SCC iter.                  ...        0 min,  0.012 sec
     gradient                   ...        0 min,  0.011 sec
 * total energy  :   -41.8194945 Eh     change       -0.1123175E+00 Eh
   gradient norm :     0.3650869 Eh/α   predicted    -0.9509771E-01 ( -15.33%)
   displ. norm   :     0.4024137 α      lambda       -0.9196026E-01
   maximum displ.:     0.2509272 α      in ANC's #1, #39, #57, ...

........................................................................
.............................. CYCLE    7 ..............................
........................................................................

 iter      E             dE          RMSdq      gap      omega  full diag
   1    -42.3864807 -0.423865E+02  0.823E-01    1.18       0.0  T
   2    -42.3352258  0.512549E-01  0.141E+00    1.40       1.0  T
   3    -42.4003768 -0.651510E-01  0.472E-01    1.25       1.0  T
   4    -42.4051337 -0.475698E-02  0.230E-01    1.30       1.0  T
   5    -42.4052838 -0.150026E-03  0.130E-01    1.29       1.0  T
   6    -42.4058952 -0.611395E-03  0.231E-02    1.29       1.0  T
   7    -42.4059004 -0.520846E-05  0.121E-02    1.28       1.7  T
   8    -42.4059019 -0.152763E-05  0.435E-03    1.28       4.6  T
   9    -42.4059021 -0.158232E-06  0.179E-03    1.28      11.2  T
  10    -42.4059021 -0.675954E-07  0.631E-04    1.28      31.7  T
  11    -42.4059021 -0.379574E-08  0.311E-04    1.28      64.3  T
     SCC iter.                  ...        0 min,  0.014 sec
     gradient                   ...        0 min,  0.011 sec
 * total energy  :   -41.8866915 Eh     change       -0.6719703E-01 Eh
   gradient norm :     0.3548661 Eh/α   predicted    -0.5342635E-01 ( -20.49%)
   displ. norm   :     0.5957991 α      lambda       -0.1057282E+00
   maximum displ.:     0.3289149 α      in ANC's #1, #39, #57, ...

........................................................................
.............................. CYCLE    8 ..............................
........................................................................

 iter      E             dE          RMSdq      gap      omega  full diag
   1    -42.4553486 -0.424553E+02  0.633E-01    1.10       0.0  T
   2    -42.4447921  0.105564E-01  0.717E-01    1.28       1.0  T
   3    -42.4535638 -0.877169E-02  0.452E-01    1.08       1.0  T
   4    -42.4569083 -0.334442E-02  0.188E-01    1.17       1.0  T
   5    -42.4581043 -0.119606E-02  0.436E-02    1.15       1.0  T
   6    -42.4581413 -0.369849E-04  0.199E-02    1.15       1.0  T
   7    -42.4581453 -0.401126E-05  0.479E-03    1.14       4.2  T
   8    -42.4581458 -0.535140E-06  0.183E-03    1.14      10.9  T
   9    -42.4581459 -0.572809E-07  0.719E-04    1.14      27.8  T
  10    -42.4581459 -0.283111E-08  0.318E-04    1.14      62.9  T
     SCC iter.                  ...        0 min,  0.013 sec
     gradient                   ...        0 min,  0.011 sec
 * total energy  :   -41.9653917 Eh     change       -0.7870022E-01 Eh
   gradient norm :     0.2256120 Eh/α   predicted    -0.7162969E-01 (  -8.98%)
   displ. norm   :     0.4573474 α      lambda       -0.5071232E-01
   maximum displ.:     0.3028182 α      in ANC's #1, #39, #57, ...

........................................................................
.............................. CYCLE    9 ..............................
........................................................................

 iter      E             dE          RMSdq      gap      omega  full diag
   1    -42.4728268 -0.424728E+02  0.519E-01    0.99       0.0  T
   2    -42.4702514  0.257539E-02  0.423E-01    1.10       1.0  T
   3    -42.4650159  0.523548E-02  0.551E-01    0.94       1.0  T
   4    -42.4735574 -0.854147E-02  0.108E-01    1.03       1.0  T
   5    -42.4737240 -0.166585E-03  0.373E-02    1.02       1.0  T
   6    -42.4737530 -0.289751E-04  0.140E-02    1.02       1.4  T
   7    -42.4737542 -0.127770E-05  0.749E-03    1.02       2.7  T
   8    -42.4737552 -0.919537E-06  0.163E-03    1.02      12.2  T
   9    -42.4737553 -0.899876E-07  0.663E-04    1.02      30.2  T
  10    -42.4737553 -0.493387E-08  0.290E-04    1.02      69.1  T
     SCC iter.                  ...        0 min,  0.012 sec
     gradient                   ...        0 min,  0.011 sec
 * total energy  :   -41.9998454 Eh     change       -0.3445368E-01 Eh
   gradient norm :     0.1425848 Eh/α   predicted    -0.3065986E-01 ( -11.01%)
   displ. norm   :     0.2855727 α      lambda       -0.1965668E-01
   maximum displ.:     0.2104064 α      in ANC's #1, #57, #39, ...

........................................................................
.............................. CYCLE   10 ..............................
........................................................................

 iter      E             dE          RMSdq      gap      omega  full diag
   1    -42.4817494 -0.424817E+02  0.334E-01    0.90       0.0  T
   2    -42.4801724  0.157703E-02  0.309E-01    1.00       1.0  T
   3    -42.4794397  0.732745E-03  0.335E-01    0.87       1.0  T
   4    -42.4823641 -0.292441E-02  0.835E-02    0.94       1.0  T
   5    -42.4824513 -0.872193E-04  0.229E-02    0.93       1.0  T
   6    -42.4824631 -0.118383E-04  0.946E-03    0.93       2.1  T
   7    -42.4824646 -0.142436E-05  0.444E-03    0.93       4.5  T
   8    -42.4824648 -0.220103E-06  0.164E-03    0.93      12.2  T
   9    -42.4824649 -0.683018E-07  0.457E-04    0.93      43.8  T
  10    -42.4824649 -0.202461E-08  0.286E-04    0.93      69.8  T
     SCC iter.                  ...        0 min,  0.012 sec
     gradient                   ...        0 min,  0.011 sec
 * total energy  :   -42.0147921 Eh     change       -0.1494668E-01 Eh
   gradient norm :     0.1377462 Eh/α   predicted    -0.1062992E-01 ( -28.88%)
   displ. norm   :     0.2774308 α      lambda       -0.2270315E-01
   maximum displ.:     0.1222827 α      in ANC's #1, #57, #2, ...

........................................................................
.............................. CYCLE   11 ..............................
........................................................................

 iter      E             dE          RMSdq      gap      omega  full diag
   1    -42.4978448 -0.424978E+02  0.449E-01    0.78       0.0  T
   2    -42.4914121  0.643278E-02  0.554E-01    0.97       1.0  T
   3    -42.4963391 -0.492704E-02  0.383E-01    0.76       1.0  T
   4    -42.4997238 -0.338475E-02  0.107E-01    0.82       1.0  T
   5    -42.4998136 -0.897752E-04  0.340E-02    0.82       1.0  T
   6    -42.4998373 -0.237083E-04  0.138E-02    0.82       1.4  T
   7    -42.4998405 -0.315879E-05  0.683E-03    0.82       2.9  T
   8    -42.4998411 -0.632735E-06  0.296E-03    0.82       6.8  T
   9    -42.4998413 -0.201603E-06  0.776E-04    0.82      25.8  T
  10    -42.4998413 -0.104698E-07  0.351E-04    0.82      57.0  T
     SCC iter.                  ...        0 min,  0.012 sec
     gradient                   ...        0 min,  0.011 sec
 * total energy  :   -42.0317176 Eh     change       -0.1692554E-01 Eh
   gradient norm :     0.1676367 Eh/α   predicted    -0.1222529E-01 ( -27.77%)
   displ. norm   :     0.4161807 α      lambda       -0.2617905E-01
   maximum displ.:     0.3013067 α      in ANC's #1, #57, #2, ...

........................................................................
.............................. CYCLE   12 ..............................
........................................................................

 iter      E             dE          RMSdq      gap      omega  full diag
   1    -42.5138053 -0.425138E+02  0.520E-01    0.60       0.0  T
   2    -42.4960608  0.177445E-01  0.844E-01    0.93       1.0  T
   3    -42.5146665 -0.186057E-01  0.353E-01    0.60       1.0  T
   4    -42.5167625 -0.209602E-02  0.102E-01    0.65       1.0  T
   5    -42.5168439 -0.813562E-04  0.384E-02    0.65       1.0  T
   6    -42.5168712 -0.273187E-04  0.175E-02    0.65       1.1  T
   7    -42.5168762 -0.503047E-05  0.100E-02    0.65       2.0  T
   8    -42.5168779 -0.169231E-05  0.241E-03    0.65       8.3  T
   9    -42.5168780 -0.885739E-07  0.717E-04    0.65      27.9  T
  10    -42.5168780 -0.952238E-08  0.318E-04    0.65      62.8  T
     SCC iter.                  ...        0 min,  0.012 sec
     gradient                   ...        0 min,  0.011 sec
 * total energy  :   -42.0486006 Eh     change       -0.1688301E-01 Eh
   gradient norm :     0.1181531 Eh/α   predicted    -0.1535722E-01 (  -9.04%)
   displ. norm   :     0.4628017 α      lambda       -0.2697582E-01
   maximum displ.:     0.2732205 α      in ANC's #1, #45, #48, ...

........................................................................
.............................. CYCLE   13 ..............................
........................................................................

 iter      E             dE          RMSdq      gap      omega  full diag
   1    -42.5465049 -0.425465E+02  0.705E-01    0.50       0.0  T
   2    -42.5065266  0.399783E-01  0.129E+00    1.05       1.0  T
   3    -42.5527247 -0.461982E-01  0.345E-01    0.53       1.0  T
   4    -42.5536446 -0.919862E-03  0.144E-01    0.56       1.0  T
   5    -42.5537408 -0.962263E-04  0.482E-02    0.56       1.0  T
   6    -42.5537810 -0.401521E-04  0.143E-02    0.56       1.4  T
   7    -42.5537828 -0.182968E-05  0.889E-03    0.56       2.3  T
   8    -42.5537840 -0.121087E-05  0.245E-03    0.56       8.2  T
   9    -42.5537841 -0.108897E-06  0.583E-04    0.56      34.3  T
  10    -42.5537841 -0.100143E-08  0.346E-04    0.56      57.8  T
     SCC iter.                  ...        0 min,  0.012 sec
     gradient                   ...        0 min,  0.011 sec
 * total energy  :   -42.0561780 Eh     change       -0.7577380E-02 Eh
   gradient norm :     0.1954416 Eh/α   predicted    -0.1637739E-01 ( 116.14%)
   displ. norm   :     0.1343959 α      lambda       -0.1536168E-01
   maximum displ.:     0.0574590 α      in ANC's #2, #69, #1, ...

........................................................................
.............................. CYCLE   14 ..............................
........................................................................

 iter      E             dE          RMSdq      gap      omega  full diag
   1    -42.5612027 -0.425612E+02  0.223E-01    0.59       0.0  T
   2    -42.5577518  0.345094E-02  0.377E-01    0.51       1.0  T
   3    -42.5613604 -0.360854E-02  0.145E-01    0.60       1.0  T
   4    -42.5617347 -0.374370E-03  0.604E-02    0.56       1.0  T
   5    -42.5617724 -0.376873E-04  0.170E-02    0.57       1.2  T
   6    -42.5617789 -0.648958E-05  0.515E-03    0.57       3.9  T
   7    -42.5617792 -0.255760E-06  0.310E-03    0.57       6.4  T
   8    -42.5617793 -0.122440E-06  0.710E-04    0.57      28.2  T
   9    -42.5617793 -0.979582E-08  0.155E-04    0.57     129.3  T
     SCC iter.                  ...        0 min,  0.011 sec
     gradient                   ...        0 min,  0.011 sec
 * total energy  :   -42.0663735 Eh     change       -0.1019545E-01 Eh
   gradient norm :     0.0893975 Eh/α   predicted    -0.7819531E-02 ( -23.30%)
   displ. norm   :     0.1068665 α      lambda       -0.6972716E-02
   maximum displ.:     0.0555009 α      in ANC's #1, #2, #58, ...

........................................................................
.............................. CYCLE   15 ..............................
........................................................................

 iter      E             dE          RMSdq      gap      omega  full diag
   1    -42.5699487 -0.425699E+02  0.131E-01    0.54       0.0  T
   2    -42.5699934 -0.446740E-04  0.799E-02    0.53       1.0  T
   3    -42.5698444  0.149033E-03  0.982E-02    0.56       1.0  T
   4    -42.5699844 -0.140010E-03  0.645E-02    0.53       1.0  T
   5    -42.5700830 -0.986311E-04  0.119E-02    0.54       1.7  T
   6    -42.5700859 -0.293132E-05  0.413E-03    0.54       4.8  T
   7    -42.5700861 -0.212633E-06  0.216E-03    0.54       9.3  T
   8    -42.5700862 -0.655332E-07  0.459E-04    0.54      43.6  T
   9    -42.5700862 -0.215866E-08  0.160E-04    0.54     125.3  T
     SCC iter.                  ...        0 min,  0.011 sec
     gradient                   ...        0 min,  0.011 sec
 * total energy  :   -42.0711984 Eh     change       -0.4824943E-02 Eh
   gradient norm :     0.0642962 Eh/α   predicted    -0.3526232E-02 ( -26.92%)
   displ. norm   :     0.1214734 α      lambda       -0.4035428E-02
   maximum displ.:     0.0908847 α      in ANC's #1, #57, #28, ...

........................................................................
.............................. CYCLE   16 ..............................
........................................................................

 iter      E             dE          RMSdq      gap      omega  full diag
   1    -42.5790435 -0.425790E+02  0.116E-01    0.50       0.0  T
   2    -42.5785352  0.508273E-03  0.154E-01    0.55       1.0  T
   3    -42.5789227 -0.387497E-03  0.958E-02    0.49       1.0  T
   4    -42.5791258 -0.203039E-03  0.381E-02    0.52       1.0  T
   5    -42.5791495 -0.237181E-04  0.832E-03    0.51       2.4  T
   6    -42.5791502 -0.735136E-06  0.531E-03    0.51       3.8  T
   7    -42.5791506 -0.373276E-06  0.273E-03    0.51       7.3  T
   8    -42.5791507 -0.150475E-06  0.319E-04    0.51      62.8  T
   9    -42.5791507 -0.555012E-09  0.150E-04    0.51     133.1  T
     SCC iter.                  ...        0 min,  0.011 sec
     gradient                   ...        0 min,  0.011 sec
 * total energy  :   -42.0740081 Eh     change       -0.2809720E-02 Eh
   gradient norm :     0.0616864 Eh/α   predicted    -0.2047566E-02 ( -27.13%)
   displ. norm   :     0.0941616 α      lambda       -0.2796812E-02
   maximum displ.:     0.0359889 α      in ANC's #1, #57, #28, ...

........................................................................
.............................. CYCLE   17 ..............................
........................................................................

 iter      E             dE          RMSdq      gap      omega  full diag
   1    -42.5881579 -0.425882E+02  0.120E-01    0.47       0.0  T
   2    -42.5864497  0.170820E-02  0.256E-01    0.56       1.0  T
   3    -42.5883146 -0.186487E-02  0.561E-02    0.48       1.0  T
   4    -42.5883410 -0.264679E-04  0.219E-02    0.49       1.0  T
   5    -42.5883484 -0.733623E-05  0.671E-03    0.49       3.0  T
   6    -42.5883485 -0.165918E-06  0.525E-03    0.49       3.8  T
   7    -42.5883490 -0.453733E-06  0.192E-03    0.48      10.4  T
   8    -42.5883491 -0.874565E-07  0.283E-04    0.48      70.8  T
   9    -42.5883491 -0.555509E-09  0.120E-04    0.48     166.5  T
     SCC iter.                  ...        0 min,  0.011 sec
     gradient                   ...        0 min,  0.011 sec
 * total energy  :   -42.0760506 Eh     change       -0.2042478E-02 Eh
   gradient norm :     0.0506938 Eh/α   predicted    -0.1410845E-02 ( -30.92%)
   displ. norm   :     0.0990833 α      lambda       -0.2568375E-02
   maximum displ.:     0.0425976 α      in ANC's #2, #39, #28, ...

........................................................................
.............................. CYCLE   18 ..............................
........................................................................

 iter      E             dE          RMSdq      gap      omega  full diag
   1    -42.5980099 -0.425980E+02  0.119E-01    0.45       0.0  T
   2    -42.5965568  0.145309E-02  0.237E-01    0.53       1.0  T
   3    -42.5981190 -0.156217E-02  0.626E-02    0.46       1.0  T
   4    -42.5981592 -0.402696E-04  0.176E-02    0.47       1.1  T
   5    -42.5981674 -0.817118E-05  0.588E-03    0.47       3.4  T
   6    -42.5981677 -0.313898E-06  0.372E-03    0.47       5.4  T
   7    -42.5981680 -0.236617E-06  0.641E-04    0.47      31.2  T
   8    -42.5981680 -0.934704E-08  0.177E-04    0.47     113.0  T
     SCC iter.                  ...        0 min,  0.010 sec
     gradient                   ...        0 min,  0.011 sec
 * total energy  :   -42.0778069 Eh     change       -0.1756251E-02 Eh
   gradient norm :     0.0361525 Eh/α   predicted    -0.1296848E-02 ( -26.16%)
   displ. norm   :     0.0844026 α      lambda       -0.1343972E-02
   maximum displ.:     0.0481146 α      in ANC's #1, #2, #39, ...

........................................................................
.............................. CYCLE   19 ..............................
........................................................................

 iter      E             dE          RMSdq      gap      omega  full diag
   1    -42.6035632 -0.426036E+02  0.873E-02    0.45       0.0  T
   2    -42.6030023  0.560889E-03  0.149E-01    0.50       1.0  T
   3    -42.6035683 -0.566032E-03  0.589E-02    0.45       1.0  T
   4    -42.6036280 -0.596500E-04  0.146E-02    0.46       1.4  T
   5    -42.6036316 -0.361153E-05  0.403E-03    0.46       5.0  T
   6    -42.6036319 -0.286230E-06  0.166E-03    0.46      12.0  T
   7    -42.6036319 -0.112472E-07  0.985E-04    0.46      20.3  T
   8    -42.6036319 -0.150475E-07  0.212E-04    0.46      94.6  T
     SCC iter.                  ...        0 min,  0.010 sec
     gradient                   ...        0 min,  0.011 sec
 * total energy  :   -42.0787370 Eh     change       -0.9301279E-03 Eh
   gradient norm :     0.0292294 Eh/α   predicted    -0.6768028E-03 ( -27.24%)
   displ. norm   :     0.0639866 α      lambda       -0.7430296E-03
   maximum displ.:     0.0463462 α      in ANC's #1, #2, #36, ...

........................................................................
.............................. CYCLE   20 ..............................
........................................................................

 iter      E             dE          RMSdq      gap      omega  full diag
   1    -42.6054122 -0.426054E+02  0.643E-02    0.46       0.0  T
   2    -42.6052951  0.117092E-03  0.730E-02    0.48       1.0  T
   3    -42.6053200 -0.249374E-04  0.680E-02    0.45       1.0  T
   4    -42.6054330 -0.112983E-03  0.112E-02    0.46       1.8  T
   5    -42.6054341 -0.104482E-05  0.331E-03    0.46       6.0  T
   6    -42.6054343 -0.238770E-06  0.107E-03    0.46      18.7  T
   7    -42.6054343 -0.494889E-08  0.564E-04    0.46      35.4  T
   8    -42.6054343 -0.342132E-08  0.135E-04    0.46     147.7  T
     SCC iter.                  ...        0 min,  0.010 sec
     gradient                   ...        0 min,  0.011 sec
 * total energy  :   -42.0792619 Eh     change       -0.5248694E-03 Eh
   gradient norm :     0.0232140 Eh/α   predicted    -0.3731049E-03 ( -28.91%)
   displ. norm   :     0.0487337 α      lambda       -0.5410953E-03
   maximum displ.:     0.0294460 α      in ANC's #1, #36, #22, ...
 * RMSD in coord.:     0.7311640 α      energy gain  -0.6931943E+01 Eh

generating ANC from model Hessian ...
Using Lindh-Hessian (1995)
 Shifting diagonal of input Hessian by    1.0956082698761332E-002
 Lowest  eigenvalues of input Hessian
    0.010000    0.010186    0.000000    0.000000    0.000000    0.000000
    0.000000    0.000000    0.014029    0.015098    0.016701    0.020429
    0.021338    0.023172    0.024933    0.025918    0.029927    0.033944
 Highest eigenvalues
    2.139737    2.215529    2.297045    2.418966    2.554791    3.208410


........................................................................
.............................. CYCLE   21 ..............................
........................................................................

 iter      E             dE          RMSdq      gap      omega  full diag
   1    -42.6055786 -0.426056E+02  0.568E-02    0.45       0.0  T
   2    -42.6055095  0.690841E-04  0.573E-02    0.47       1.0  T
   3    -42.6054789  0.306607E-04  0.669E-02    0.44       1.0  T
   4    -42.6055911 -0.112282E-03  0.805E-03    0.46       2.5  T
   5    -42.6055916 -0.420254E-06  0.261E-03    0.46       7.7  T
   6    -42.6055917 -0.166722E-06  0.107E-03    0.46      18.7  T
   7    -42.6055917 -0.106867E-07  0.465E-04    0.46      43.0  T
   8    -42.6055917 -0.309282E-08  0.867E-05    0.46     230.6  T
     SCC iter.                  ...        0 min,  0.010 sec
     gradient                   ...        0 min,  0.011 sec
 * total energy  :   -42.0796609 Eh     change       -0.3990277E-03 Eh
   gradient norm :     0.0187439 Eh/α   predicted     0.0000000E+00 (-100.00%)
   displ. norm   :     0.2391196 α      lambda       -0.2447251E-02
   maximum displ.:     0.1581948 α      in ANC's #10, #6, #18, ...

........................................................................
.............................. CYCLE   22 ..............................
........................................................................

 iter      E             dE          RMSdq      gap      omega  full diag
   1    -42.6010318 -0.426010E+02  0.206E-01    0.43       0.0  T
   2    -42.6000634  0.968466E-03  0.211E-01    0.49       1.0  T
   3    -42.5998018  0.261542E-03  0.236E-01    0.40       1.0  T
   4    -42.6011083 -0.130646E-02  0.451E-02    0.45       1.0  T
   5    -42.6011673 -0.590358E-04  0.526E-03    0.44       3.8  T
   6    -42.6011676 -0.275717E-06  0.339E-03    0.44       5.9  T
   7    -42.6011677 -0.112066E-06  0.187E-03    0.44      10.7  T
   8    -42.6011678 -0.627614E-07  0.450E-04    0.44      44.4  T
   9    -42.6011678 -0.354748E-08  0.182E-04    0.44     109.9  T
     SCC iter.                  ...        0 min,  0.011 sec
     gradient                   ...        0 min,  0.011 sec
 * total energy  :   -42.0817999 Eh     change       -0.2139043E-02 Eh
   gradient norm :     0.0119263 Eh/α   predicted    -0.1293600E-02 ( -39.52%)
   displ. norm   :     0.7005574 α      lambda       -0.5404788E-02
   maximum displ.:     0.5398251 α      in ANC's #10, #6, #11, ...

........................................................................
.............................. CYCLE   23 ..............................
........................................................................

 iter      E             dE          RMSdq      gap      omega  full diag
   1    -42.5833603 -0.425834E+02  0.668E-01    0.38       0.0  T
   2    -42.5774315  0.592877E-02  0.549E-01    0.55       1.0  T
   3    -42.5655791  0.118524E-01  0.855E-01    0.36       1.0  T
   4    -42.5834005 -0.178214E-01  0.217E-01    0.44       1.0  T
   5    -42.5846568 -0.125629E-02  0.220E-02    0.40       1.0  T
   6    -42.5846624 -0.563139E-05  0.140E-02    0.40       1.4  T
   7    -42.5846643 -0.192773E-05  0.843E-03    0.40       2.4  T
   8    -42.5846657 -0.135186E-05  0.205E-03    0.40       9.7  T
   9    -42.5846658 -0.921013E-07  0.501E-04    0.40      39.9  T
  10    -42.5846658 -0.387350E-08  0.124E-04    0.40     161.5  T
     SCC iter.                  ...        0 min,  0.012 sec
     gradient                   ...        0 min,  0.011 sec
 * total energy  :   -42.0828425 Eh     change       -0.1042600E-02 Eh
   gradient norm :     0.0608358 Eh/α   predicted    -0.4028682E-02 ( 286.41%)
   displ. norm   :     0.2203260 α      lambda       -0.4679309E-02
   maximum displ.:     0.1437229 α      in ANC's #10, #6, #4, ...

........................................................................
.............................. CYCLE   24 ..............................
........................................................................

 iter      E             dE          RMSdq      gap      omega  full diag
   1    -42.5960648 -0.425961E+02  0.228E-01    0.44       0.0  T
   2    -42.5937090  0.235579E-02  0.296E-01    0.36       1.0  T
   3    -42.5952247 -0.151574E-02  0.224E-01    0.48       1.0  T
   4    -42.5962710 -0.104632E-02  0.501E-02    0.42       1.0  T
   5    -42.5963392 -0.681909E-04  0.112E-02    0.42       1.8  T
   6    -42.5963406 -0.138472E-05  0.753E-03    0.42       2.7  T
   7    -42.5963416 -0.997259E-06  0.280E-03    0.42       7.1  T
   8    -42.5963418 -0.156601E-06  0.273E-04    0.42      73.2  T
   9    -42.5963418 -0.548127E-09  0.131E-04    0.42     152.5  T
     SCC iter.                  ...        0 min,  0.011 sec
     gradient                   ...        0 min,  0.011 sec
 * total energy  :   -42.0853588 Eh     change       -0.2516231E-02 Eh
   gradient norm :     0.0258814 Eh/α   predicted    -0.2453232E-02 (  -2.50%)
   displ. norm   :     0.2286053 α      lambda       -0.2224525E-02
   maximum displ.:     0.1627341 α      in ANC's #10, #11, #4, ...

........................................................................
.............................. CYCLE   25 ..............................
........................................................................

 iter      E             dE          RMSdq      gap      omega  full diag
   1    -42.5998508 -0.425999E+02  0.195E-01    0.42       0.0  T
   2    -42.5998441  0.674142E-05  0.119E-01    0.40       1.0  T
   3    -42.5996587  0.185398E-03  0.112E-01    0.44       1.0  T
   4    -42.5995162  0.142488E-03  0.117E-01    0.38       1.0  T
   5    -42.5999409 -0.424662E-03  0.548E-03    0.41       3.6  T
   6    -42.5999415 -0.626582E-06  0.186E-03    0.41      10.8  T
   7    -42.5999415 -0.239884E-07  0.879E-04    0.41      22.7  T
   8    -42.5999415 -0.615993E-08  0.192E-04    0.41     104.0  T
     SCC iter.                  ...        0 min,  0.010 sec
     gradient                   ...        0 min,  0.011 sec
 * total energy  :   -42.0874573 Eh     change       -0.2098508E-02 Eh
   gradient norm :     0.0215070 Eh/α   predicted    -0.1170411E-02 ( -44.23%)
   displ. norm   :     0.8038388 α      lambda       -0.8426541E-02
   maximum displ.:     0.6217951 α      in ANC's #10, #11, #6, ...

........................................................................
.............................. CYCLE   26 ..............................
........................................................................

 iter      E             dE          RMSdq      gap      omega  full diag
   1    -42.6037252 -0.426037E+02  0.832E-01    0.37       0.0  T
   2    -42.6018186  0.190663E-02  0.509E-01    0.43       1.0  T
   3    -42.5938339  0.798471E-02  0.721E-01    0.25       1.0  T
   4    -42.5996211 -0.578721E-02  0.431E-01    0.57       1.0  T
   5    -42.6056491 -0.602796E-02  0.309E-02    0.37       1.0  T
   6    -42.6056688 -0.197364E-04  0.108E-02    0.37       1.8  T
   7    -42.6056703 -0.149840E-05  0.530E-03    0.37       3.8  T
   8    -42.6056706 -0.279150E-06  0.163E-03    0.37      12.3  T
   9    -42.6056706 -0.413615E-07  0.747E-04    0.37      26.8  T
  10    -42.6056706 -0.100837E-07  0.196E-04    0.37     101.8  T
     SCC iter.                  ...        0 min,  0.012 sec
     gradient                   ...        0 min,  0.011 sec
 * total energy  :   -42.0945335 Eh     change       -0.7076262E-02 Eh
   gradient norm :     0.0339073 Eh/α   predicted    -0.6935759E-02 (  -1.99%)
   displ. norm   :     0.5777584 α      lambda       -0.7350281E-02
   maximum displ.:     0.3635471 α      in ANC's #10, #12, #6, ...

........................................................................
.............................. CYCLE   27 ..............................
........................................................................

 iter      E             dE          RMSdq      gap      omega  full diag
   1    -42.6152968 -0.426153E+02  0.644E-01    0.30       0.0  T
   2    -42.6129777  0.231905E-02  0.426E-01    0.45       1.0  T
   3    -42.6067733  0.620446E-02  0.641E-01    0.19       1.0  T
   4    -42.6142491 -0.747584E-02  0.272E-01    0.43       1.0  T
   5    -42.6164198 -0.217075E-02  0.225E-02    0.33       1.0  T
   6    -42.6164339 -0.140311E-04  0.599E-03    0.34       3.3  T
   7    -42.6164343 -0.479213E-06  0.254E-03    0.34       7.9  T
   8    -42.6164344 -0.116330E-07  0.771E-04    0.34      26.0  T
   9    -42.6164344 -0.336837E-08  0.490E-04    0.34      40.8  T
     SCC iter.                  ...        0 min,  0.011 sec
     gradient                   ...        0 min,  0.011 sec
 * total energy  :   -42.0983776 Eh     change       -0.3844064E-02 Eh
   gradient norm :     0.0531749 Eh/α   predicted    -0.4902021E-02 (  27.52%)
   displ. norm   :     0.2211337 α      lambda       -0.4819636E-02
   maximum displ.:     0.0844827 α      in ANC's #3, #6, #2, ...

........................................................................
.............................. CYCLE   28 ..............................
........................................................................

 iter      E             dE          RMSdq      gap      omega  full diag
   1    -42.6305108 -0.426305E+02  0.202E-01    0.36       0.0  T
   2    -42.6299649  0.545907E-03  0.181E-01    0.28       1.0  T
   3    -42.6297860  0.178880E-03  0.188E-01    0.42       1.0  T
   4    -42.6305785 -0.792553E-03  0.399E-02    0.33       1.0  T
   5    -42.6306276 -0.490293E-04  0.111E-02    0.34       1.8  T
   6    -42.6306305 -0.291334E-05  0.540E-03    0.34       3.7  T
   7    -42.6306307 -0.249316E-06  0.282E-03    0.34       7.1  T
   8    -42.6306309 -0.146820E-06  0.452E-04    0.34      44.2  T
   9    -42.6306309 -0.351844E-08  0.173E-04    0.34     115.3  T
     SCC iter.                  ...        0 min,  0.011 sec
     gradient                   ...        0 min,  0.011 sec
 * total energy  :   -42.1011336 Eh     change       -0.2756044E-02 Eh
   gradient norm :     0.0281262 Eh/α   predicted    -0.2527659E-02 (  -8.29%)
   displ. norm   :     0.5293281 α      lambda       -0.4759339E-02
   maximum displ.:     0.3706416 α      in ANC's #10, #2, #3, ...

........................................................................
.............................. CYCLE   29 ..............................
........................................................................

 iter      E             dE          RMSdq      gap      omega  full diag
   1    -42.6200273 -0.426200E+02  0.525E-01    0.32       0.0  T
   2    -42.6199768  0.504105E-04  0.285E-01    0.34       1.0  T
   3    -42.6181451  0.183175E-02  0.320E-01    0.26       1.0  T
   4    -42.6197201 -0.157501E-02  0.119E-01    0.38       1.0  T
   5    -42.6201779 -0.457755E-03  0.288E-02    0.31       1.0  T
   6    -42.6201988 -0.209789E-04  0.896E-03    0.32       2.2  T
   7    -42.6202000 -0.114452E-05  0.368E-03    0.32       5.4  T
   8    -42.6202001 -0.158095E-06  0.681E-04    0.32      29.4  T
   9    -42.6202001 -0.277875E-08  0.314E-04    0.32      63.7  T
     SCC iter.                  ...        0 min,  0.011 sec
     gradient                   ...        0 min,  0.011 sec
 * total energy  :   -42.1023752 Eh     change       -0.1241613E-02 Eh
   gradient norm :     0.0494133 Eh/α   predicted    -0.3046426E-02 ( 145.36%)
   displ. norm   :     0.1657020 α      lambda       -0.4492582E-02
   maximum displ.:     0.0675913 α      in ANC's #6, #18, #2, ...

........................................................................
.............................. CYCLE   30 ..............................
........................................................................

 iter      E             dE          RMSdq      gap      omega  full diag
   1    -42.6232497 -0.426232E+02  0.150E-01    0.32       0.0  T
   2    -42.6232263  0.234098E-04  0.968E-02    0.31       1.0  T
   3    -42.6228618  0.364470E-03  0.130E-01    0.37       1.0  T
   4    -42.6231747 -0.312894E-03  0.546E-02    0.30       1.0  T
   5    -42.6232760 -0.101317E-03  0.782E-03    0.33       2.6  T
   6    -42.6232770 -0.994297E-06  0.416E-03    0.32       4.8  T
   7    -42.6232772 -0.222973E-06  0.159E-03    0.32      12.6  T
   8    -42.6232772 -0.382362E-07  0.241E-04    0.32      83.0  T
   9    -42.6232773 -0.903739E-10  0.150E-04    0.32     133.6  T
     SCC iter.                  ...        0 min,  0.011 sec
     gradient                   ...        0 min,  0.011 sec
 * total energy  :   -42.1050086 Eh     change       -0.2633367E-02 Eh
   gradient norm :     0.0259280 Eh/α   predicted    -0.2307976E-02 ( -12.36%)
   displ. norm   :     0.1712911 α      lambda       -0.1545326E-02
   maximum displ.:     0.0574511 α      in ANC's #4, #1, #10, ...

........................................................................
.............................. CYCLE   31 ..............................
........................................................................

 iter      E             dE          RMSdq      gap      omega  full diag
   1    -42.6286584 -0.426287E+02  0.148E-01    0.33       0.0  T
   2    -42.6286371  0.213245E-04  0.982E-02    0.31       1.0  T
   3    -42.6281349  0.502209E-03  0.140E-01    0.38       1.0  T
   4    -42.6286167 -0.481818E-03  0.410E-02    0.30       1.0  T
   5    -42.6286743 -0.576009E-04  0.447E-03    0.32       4.5  T
   6    -42.6286748 -0.467379E-06  0.162E-03    0.32      12.4  T
   7    -42.6286748 -0.243229E-07  0.963E-04    0.32      20.8  T
   8    -42.6286748 -0.105618E-07  0.182E-04    0.32     109.8  T
     SCC iter.                  ...        0 min,  0.010 sec
     gradient                   ...        0 min,  0.011 sec
 * total energy  :   -42.1061541 Eh     change       -0.1145506E-02 Eh
   gradient norm :     0.0192991 Eh/α   predicted    -0.7953355E-03 ( -30.57%)
   displ. norm   :     0.4266435 α      lambda       -0.2141073E-02
   maximum displ.:     0.2008209 α      in ANC's #2, #10, #42, ...

........................................................................
.............................. CYCLE   32 ..............................
........................................................................

 iter      E             dE          RMSdq      gap      omega  full diag
   1    -42.6292583 -0.426293E+02  0.359E-01    0.32       0.0  T
   2    -42.6292556  0.274315E-05  0.212E-01    0.30       1.0  T
   3    -42.6285309  0.724696E-03  0.148E-01    0.39       1.0  T
   4    -42.6292211 -0.690213E-03  0.472E-02    0.29       1.0  T
   5    -42.6292760 -0.549416E-04  0.649E-03    0.31       3.1  T
   6    -42.6292770 -0.976936E-06  0.351E-03    0.31       5.7  T
   7    -42.6292771 -0.131364E-06  0.112E-03    0.31      17.9  T
   8    -42.6292771 -0.185231E-07  0.264E-04    0.31      75.9  T
   9    -42.6292771 -0.707466E-09  0.149E-04    0.31     134.3  T
     SCC iter.                  ...        0 min,  0.011 sec
     gradient                   ...        0 min,  0.011 sec
 * total energy  :   -42.1075269 Eh     change       -0.1372830E-02 Eh
   gradient norm :     0.0234129 Eh/α   predicted    -0.1265403E-02 (  -7.83%)
   displ. norm   :     0.3083394 α      lambda       -0.1651232E-02
   maximum displ.:     0.1534099 α      in ANC's #4, #2, #3, ...

........................................................................
.............................. CYCLE   33 ..............................
........................................................................

 iter      E             dE          RMSdq      gap      omega  full diag
   1    -42.6334207 -0.426334E+02  0.183E-01    0.34       0.0  T
   2    -42.6328041  0.616627E-03  0.190E-01    0.24       1.0  T
   3    -42.6331186 -0.314557E-03  0.141E-01    0.37       1.0  T
   4    -42.6335235 -0.404916E-03  0.192E-02    0.31       1.0  T
   5    -42.6335305 -0.691836E-05  0.788E-03    0.32       2.5  T
   6    -42.6335320 -0.152488E-05  0.283E-03    0.31       7.1  T
   7    -42.6335321 -0.611386E-07  0.136E-03    0.31      14.7  T
   8    -42.6335321 -0.338323E-07  0.381E-04    0.31      52.5  T
   9    -42.6335321 -0.357588E-08  0.127E-04    0.31     157.4  T
     SCC iter.                  ...        0 min,  0.011 sec
     gradient                   ...        0 min,  0.011 sec
 * total energy  :   -42.1082425 Eh     change       -0.7155031E-03 Eh
   gradient norm :     0.0284948 Eh/α   predicted    -0.9041135E-03 (  26.36%)
   displ. norm   :     0.3271708 α      lambda       -0.1365989E-02
   maximum displ.:     0.1460188 α      in ANC's #4, #3, #1, ...

........................................................................
.............................. CYCLE   34 ..............................
........................................................................

 iter      E             dE          RMSdq      gap      omega  full diag
   1    -42.6302693 -0.426303E+02  0.245E-01    0.28       0.0  T
   2    -42.6298753  0.394033E-03  0.173E-01    0.37       1.0  T
   3    -42.6284044  0.147085E-02  0.284E-01    0.18       1.0  T
   4    -42.6303061 -0.190166E-02  0.393E-02    0.31       1.0  T
   5    -42.6303487 -0.426170E-04  0.438E-03    0.30       4.6  T
   6    -42.6303490 -0.315203E-06  0.288E-03    0.30       7.0  T
   7    -42.6303491 -0.750189E-07  0.145E-03    0.30      13.8  T
   8    -42.6303491 -0.263552E-07  0.216E-04    0.30      92.7  T
   9    -42.6303491 -0.592763E-09  0.111E-04    0.30     180.5  T
     SCC iter.                  ...        0 min,  0.011 sec
     gradient                   ...        0 min,  0.011 sec
 * total energy  :   -42.1088067 Eh     change       -0.5642397E-03 Eh
   gradient norm :     0.0153967 Eh/α   predicted    -0.7561053E-03 (  34.00%)
   displ. norm   :     0.1658610 α      lambda       -0.7299466E-03
   maximum displ.:     0.1001008 α      in ANC's #3, #10, #4, ...

........................................................................
.............................. CYCLE   35 ..............................
........................................................................

 iter      E             dE          RMSdq      gap      omega  full diag
   1    -42.6331659 -0.426332E+02  0.862E-02    0.33       0.0  T
   2    -42.6329097  0.256175E-03  0.106E-01    0.26       1.0  T
   3    -42.6331326 -0.222863E-03  0.649E-02    0.33       1.0  T
   4    -42.6332080 -0.754260E-04  0.111E-02    0.31       1.8  T
   5    -42.6332104 -0.242578E-05  0.372E-03    0.31       5.4  T
   6    -42.6332107 -0.271150E-06  0.234E-03    0.31       8.5  T
   7    -42.6332108 -0.628179E-07  0.822E-04    0.31      24.3  T
   8    -42.6332108 -0.105813E-07  0.173E-04    0.31     115.6  T
     SCC iter.                  ...        0 min,  0.010 sec
     gradient                   ...        0 min,  0.011 sec
 * total energy  :   -42.1092815 Eh     change       -0.4747646E-03 Eh
   gradient norm :     0.0117059 Eh/α   predicted    -0.3750189E-03 ( -21.01%)
   displ. norm   :     0.2895337 α      lambda       -0.6420198E-03
   maximum displ.:     0.1802592 α      in ANC's #3, #4, #2, ...

........................................................................
.............................. CYCLE   36 ..............................
........................................................................

 iter      E             dE          RMSdq      gap      omega  full diag
   1    -42.6318488 -0.426318E+02  0.115E-01    0.33       0.0  T
   2    -42.6314996  0.349160E-03  0.135E-01    0.25       1.0  T
   3    -42.6318072 -0.307513E-03  0.769E-02    0.34       1.0  T
   4    -42.6319066 -0.994859E-04  0.145E-02    0.31       1.4  T
   5    -42.6319123 -0.569434E-05  0.450E-03    0.31       4.4  T
   6    -42.6319127 -0.415885E-06  0.176E-03    0.31      11.3  T
   7    -42.6319128 -0.219604E-07  0.102E-03    0.31      19.5  T
   8    -42.6319128 -0.107489E-07  0.229E-04    0.31      87.2  T
   9    -42.6319128 -0.114247E-08  0.913E-05    0.31     219.2  T
     SCC iter.                  ...        0 min,  0.011 sec
     gradient                   ...        0 min,  0.011 sec
 * total energy  :   -42.1096799 Eh     change       -0.3984138E-03 Eh
   gradient norm :     0.0106930 Eh/α   predicted    -0.3479225E-03 ( -12.67%)
   displ. norm   :     0.2499325 α      lambda       -0.2881358E-03
   maximum displ.:     0.1815377 α      in ANC's #3, #4, #1, ...

........................................................................
.............................. CYCLE   37 ..............................
........................................................................

 iter      E             dE          RMSdq      gap      omega  full diag
   1    -42.6307619 -0.426308E+02  0.941E-02    0.32       0.0  T
   2    -42.6306894  0.725188E-04  0.773E-02    0.28       1.0  T
   3    -42.6305414  0.147955E-03  0.935E-02    0.36       1.0  T
   4    -42.6307700 -0.228578E-03  0.161E-02    0.31       1.2  T
   5    -42.6307778 -0.778478E-05  0.277E-03    0.31       7.2  T
   6    -42.6307779 -0.113739E-06  0.124E-03    0.31      16.1  T
   7    -42.6307779 -0.831936E-08  0.553E-04    0.31      36.2  T
   8    -42.6307779 -0.352757E-08  0.125E-04    0.31     160.5  T
     SCC iter.                  ...        0 min,  0.010 sec
     gradient                   ...        0 min,  0.011 sec
 * total energy  :   -42.1098829 Eh     change       -0.2030483E-03 Eh
   gradient norm :     0.0087873 Eh/α   predicted    -0.1530705E-03 ( -24.61%)
   displ. norm   :     0.2045360 α      lambda       -0.2425687E-03
   maximum displ.:     0.1586034 α      in ANC's #3, #4, #2, ...

........................................................................
.............................. CYCLE   38 ..............................
........................................................................

 iter      E             dE          RMSdq      gap      omega  full diag
   1    -42.6311504 -0.426312E+02  0.790E-02    0.33       0.0  T
   2    -42.6310339  0.116559E-03  0.801E-02    0.28       1.0  T
   3    -42.6310813 -0.474532E-04  0.646E-02    0.34       1.0  T
   4    -42.6311694 -0.880858E-04  0.952E-03    0.31       2.1  T
   5    -42.6311717 -0.232829E-05  0.345E-03    0.31       5.8  T
   6    -42.6311721 -0.348743E-06  0.124E-03    0.31      16.1  T
   7    -42.6311721 -0.167291E-07  0.522E-04    0.31      38.3  T
   8    -42.6311721 -0.151716E-08  0.137E-04    0.31     145.5  T
     SCC iter.                  ...        0 min,  0.010 sec
     gradient                   ...        0 min,  0.011 sec
 * total energy  :   -42.1100506 Eh     change       -0.1676424E-03 Eh
   gradient norm :     0.0058835 Eh/α   predicted    -0.1263641E-03 ( -24.62%)
   displ. norm   :     0.1666387 α      lambda       -0.1401311E-03
   maximum displ.:     0.1210385 α      in ANC's #3, #2, #4, ...

........................................................................
.............................. CYCLE   39 ..............................
........................................................................

 iter      E             dE          RMSdq      gap      omega  full diag
   1    -42.6317881 -0.426318E+02  0.708E-02    0.34       0.0  T
   2    -42.6315501  0.237970E-03  0.102E-01    0.26       1.0  T
   3    -42.6318012 -0.251092E-03  0.429E-02    0.33       1.0  T
   4    -42.6318280 -0.267413E-04  0.759E-03    0.32       2.6  T
   5    -42.6318291 -0.115423E-05  0.292E-03    0.31       6.8  T
   6    -42.6318294 -0.288961E-06  0.110E-03    0.32      18.2  T
   7    -42.6318294 -0.139133E-07  0.475E-04    0.32      42.1  T
   8    -42.6318294 -0.141308E-08  0.151E-04    0.32     132.4  T
     SCC iter.                  ...        0 min,  0.010 sec
     gradient                   ...        0 min,  0.011 sec
 * total energy  :   -42.1101445 Eh     change       -0.9392114E-04 Eh
   gradient norm :     0.0076672 Eh/α   predicted    -0.7201231E-04 ( -23.33%)
   displ. norm   :     0.1523276 α      lambda       -0.1518501E-03
   maximum displ.:     0.1220551 α      in ANC's #3, #2, #10, ...

........................................................................
.............................. CYCLE   40 ..............................
........................................................................

 iter      E             dE          RMSdq      gap      omega  full diag
   1    -42.6343599 -0.426344E+02  0.633E-02    0.34       0.0  T
   2    -42.6342069  0.152957E-03  0.804E-02    0.28       1.0  T
   3    -42.6343417 -0.134771E-03  0.491E-02    0.34       1.0  T
   4    -42.6343856 -0.438959E-04  0.116E-02    0.32       1.7  T
   5    -42.6343887 -0.311283E-05  0.446E-03    0.32       4.5  T
   6    -42.6343892 -0.536913E-06  0.992E-04    0.32      20.2  T
   7    -42.6343892 -0.313907E-08  0.526E-04    0.32      38.0  T
     SCC iter.                  ...        0 min,  0.009 sec
     gradient                   ...        0 min,  0.011 sec
 * total energy  :   -42.1101578 Eh     change       -0.1332233E-04 Eh
   gradient norm :     0.0093837 Eh/α   predicted    -0.7769022E-04 ( 483.16%)
   displ. norm   :     0.1103850 α      lambda       -0.1592028E-03
   maximum displ.:     0.0864787 α      in ANC's #2, #3, #1, ...

........................................................................
.............................. CYCLE   41 ..............................
........................................................................

 iter      E             dE          RMSdq      gap      omega  full diag
   1    -42.6332082 -0.426332E+02  0.561E-02    0.34       0.0  T
   2    -42.6329913  0.216929E-03  0.964E-02    0.27       1.0  T
   3    -42.6332424 -0.251111E-03  0.257E-02    0.33       1.0  T
   4    -42.6332425 -0.143287E-06  0.137E-02    0.32       1.5  T
   5    -42.6332465 -0.398925E-05  0.363E-03    0.32       5.5  T
   6    -42.6332469 -0.362155E-06  0.104E-03    0.32      19.3  T
   7    -42.6332469 -0.159640E-07  0.509E-04    0.32      39.3  T
   8    -42.6332469 -0.302666E-08  0.148E-04    0.32     135.4  T
     SCC iter.                  ...        0 min,  0.010 sec
     gradient                   ...        0 min,  0.011 sec
 * total energy  :   -42.1102497 Eh     change       -0.9188400E-04 Eh
   gradient norm :     0.0068282 Eh/α   predicted    -0.8057246E-04 ( -12.31%)
   displ. norm   :     0.0436971 α      lambda       -0.4363296E-04
   maximum displ.:     0.0273062 α      in ANC's #2, #4, #3, ...

........................................................................
.............................. CYCLE   42 ..............................
........................................................................

 iter      E             dE          RMSdq      gap      omega  full diag
   1    -42.6330050 -0.426330E+02  0.191E-02    0.33       0.0  T
   2    -42.6329812  0.238164E-04  0.321E-02    0.31       1.0  T
   3    -42.6330088 -0.276693E-04  0.909E-03    0.33       2.2  T
   4    -42.6330089 -0.121998E-06  0.468E-03    0.32       4.3  T
   5    -42.6330094 -0.449434E-06  0.142E-03    0.32      14.1  T
   6    -42.6330094 -0.508673E-07  0.321E-04    0.32      62.3  T
   7    -42.6330095 -0.146772E-08  0.165E-04    0.32     121.3  T
     SCC iter.                  ...        0 min,  0.009 sec
     gradient                   ...        0 min,  0.011 sec
 * total energy  :   -42.1102855 Eh     change       -0.3578760E-04 Eh
   gradient norm :     0.0067988 Eh/α   predicted    -0.2186469E-04 ( -38.90%)
   displ. norm   :     0.1255644 α      lambda       -0.8933701E-04
   maximum displ.:     0.0913588 α      in ANC's #2, #4, #1, ...
 * RMSD in coord.:     0.7256048 α      energy gain  -0.3102362E-01 Eh

generating ANC from model Hessian ...
Using Lindh-Hessian (1995)
 Shifting diagonal of input Hessian by    9.9925636958467512E-003
 Lowest  eigenvalues of input Hessian
    0.000000    0.000000    0.000000    0.000000    0.000000    0.000000
    0.010000    0.010446    0.012862    0.014254    0.015627    0.020068
    0.020466    0.021783    0.023606    0.024321    0.028562    0.035942
 Highest eigenvalues
    2.156324    2.204186    2.269975    2.403465    2.541176    3.258571


........................................................................
.............................. CYCLE   43 ..............................
........................................................................

 iter      E             dE          RMSdq      gap      omega  full diag
   1    -42.6326613 -0.426327E+02  0.589E-02    0.36       0.0  T
   2    -42.6322638  0.397482E-03  0.125E-01    0.27       1.0  T
   3    -42.6327264 -0.462609E-03  0.211E-02    0.33       1.0  T
   4    -42.6327265 -0.905592E-07  0.101E-02    0.33       2.0  T
   5    -42.6327285 -0.201715E-05  0.370E-03    0.33       5.4  T
   6    -42.6327289 -0.380890E-06  0.869E-04    0.33      23.0  T
   7    -42.6327289 -0.121301E-07  0.416E-04    0.33      48.1  T
     SCC iter.                  ...        0 min,  0.009 sec
     gradient                   ...        0 min,  0.012 sec
 * total energy  :   -42.1103431 Eh     change       -0.5763257E-04 Eh
   gradient norm :     0.0069964 Eh/α   predicted     0.0000000E+00 (-100.00%)
   displ. norm   :     0.0672407 α      lambda       -0.8771980E-04
   maximum displ.:     0.0618244 α      in ANC's #2, #10, #7, ...

........................................................................
.............................. CYCLE   44 ..............................
........................................................................

 iter      E             dE          RMSdq      gap      omega  full diag
   1    -42.6328085 -0.426328E+02  0.386E-02    0.35       0.0  T
   2    -42.6326037  0.204847E-03  0.889E-02    0.29       1.0  T
   3    -42.6328421 -0.238464E-03  0.117E-02    0.34       1.7  T
   4    -42.6328417  0.435204E-06  0.674E-03    0.34       3.0  T
   5    -42.6328427 -0.101499E-05  0.226E-03    0.33       8.8  T
   6    -42.6328429 -0.148015E-06  0.660E-04    0.34      30.3  T
   7    -42.6328429 -0.730012E-08  0.252E-04    0.34      79.3  T
     SCC iter.                  ...        0 min,  0.009 sec
     gradient                   ...        0 min,  0.011 sec
 * total energy  :   -42.1104138 Eh     change       -0.7066474E-04 Eh
   gradient norm :     0.0013681 Eh/α   predicted    -0.4405975E-04 ( -37.65%)
   displ. norm   :     0.1651672 α      lambda       -0.8842941E-04
   maximum displ.:     0.1512491 α      in ANC's #2, #10, #7, ...

........................................................................
.............................. CYCLE   45 ..............................
........................................................................

 iter      E             dE          RMSdq      gap      omega  full diag
   1    -42.6326264 -0.426326E+02  0.102E-01    0.40       0.0  T
   2    -42.6311276  0.149884E-02  0.240E-01    0.22       1.0  T
   3    -42.6328680 -0.174037E-02  0.293E-02    0.35       1.0  T
   4    -42.6328668  0.117288E-05  0.161E-02    0.35       1.2  T
   5    -42.6328720 -0.519975E-05  0.596E-03    0.35       3.4  T
   6    -42.6328730 -0.103706E-05  0.176E-03    0.35      11.4  T
   7    -42.6328731 -0.563105E-07  0.653E-04    0.35      30.6  T
   8    -42.6328731 -0.628268E-08  0.176E-04    0.35     113.4  T
     SCC iter.                  ...        0 min,  0.010 sec
     gradient                   ...        0 min,  0.011 sec
 * total energy  :   -42.1105235 Eh     change       -0.1096838E-03 Eh
   gradient norm :     0.0028576 Eh/α   predicted    -0.4475694E-04 ( -59.19%)
   displ. norm   :     0.1102735 α      lambda       -0.7498531E-04
   maximum displ.:     0.1044515 α      in ANC's #2, #3, #7, ...

........................................................................
.............................. CYCLE   46 ..............................
........................................................................

 iter      E             dE          RMSdq      gap      omega  full diag
   1    -42.6327599 -0.426328E+02  0.732E-02    0.40       0.0  T
   2    -42.6318632  0.896721E-03  0.184E-01    0.26       1.0  T
   3    -42.6329043 -0.104114E-02  0.150E-02    0.36       1.3  T
   4    -42.6329049 -0.607537E-06  0.855E-03    0.36       2.3  T
   5    -42.6329058 -0.894998E-06  0.400E-03    0.36       5.0  T
   6    -42.6329062 -0.440716E-06  0.109E-03    0.36      18.3  T
   7    -42.6329063 -0.237912E-07  0.389E-04    0.36      51.4  T
   8    -42.6329063 -0.232775E-08  0.115E-04    0.36     173.5  T
     SCC iter.                  ...        0 min,  0.010 sec
     gradient                   ...        0 min,  0.011 sec
 * total energy  :   -42.1105953 Eh     change       -0.7180266E-04 Eh
   gradient norm :     0.0022949 Eh/α   predicted    -0.3797523E-04 ( -47.11%)
   displ. norm   :     0.1032249 α      lambda       -0.7238841E-04
   maximum displ.:     0.0980643 α      in ANC's #2, #3, #7, ...

........................................................................
.............................. CYCLE   47 ..............................
........................................................................

 iter      E             dE          RMSdq      gap      omega  full diag
   1    -42.6328389 -0.426328E+02  0.731E-02    0.41       0.0  T
   2    -42.6319057  0.933192E-03  0.187E-01    0.27       1.0  T
   3    -42.6329887 -0.108300E-02  0.124E-02    0.37       1.6  T
   4    -42.6329898 -0.114224E-05  0.674E-03    0.37       3.0  T
   5    -42.6329902 -0.416852E-06  0.354E-03    0.37       5.7  T
   6    -42.6329905 -0.305685E-06  0.993E-04    0.37      20.1  T
   7    -42.6329906 -0.201484E-07  0.354E-04    0.37      56.5  T
     SCC iter.                  ...        0 min,  0.009 sec
     gradient                   ...        0 min,  0.011 sec
 * total energy  :   -42.1106635 Eh     change       -0.6826337E-04 Eh
   gradient norm :     0.0029961 Eh/α   predicted    -0.3661211E-04 ( -46.37%)
   displ. norm   :     0.1157285 α      lambda       -0.7818054E-04
   maximum displ.:     0.1092400 α      in ANC's #2, #3, #4, ...

........................................................................
.............................. CYCLE   48 ..............................
........................................................................

 iter      E             dE          RMSdq      gap      omega  full diag
   1    -42.6328719 -0.426329E+02  0.863E-02    0.43       0.0  T
   2    -42.6315478  0.132403E-02  0.222E-01    0.26       1.0  T
   3    -42.6330844 -0.153654E-02  0.132E-02    0.39       1.5  T
   4    -42.6330860 -0.163684E-05  0.710E-03    0.38       2.8  T
   5    -42.6330865 -0.478981E-06  0.382E-03    0.38       5.2  T
   6    -42.6330868 -0.317517E-06  0.117E-03    0.38      17.2  T
   7    -42.6330868 -0.275383E-07  0.425E-04    0.38      47.1  T
   8    -42.6330868 -0.261510E-08  0.125E-04    0.38     160.3  T
     SCC iter.                  ...        0 min,  0.010 sec
     gradient                   ...        0 min,  0.011 sec
 * total energy  :   -42.1107352 Eh     change       -0.7170474E-04 Eh
   gradient norm :     0.0047775 Eh/α   predicted    -0.3961512E-04 ( -44.75%)
   displ. norm   :     0.1629346 α      lambda       -0.1002333E-03
   maximum displ.:     0.1528447 α      in ANC's #2, #3, #4, ...

........................................................................
.............................. CYCLE   49 ..............................
........................................................................

 iter      E             dE          RMSdq      gap      omega  full diag
   1    -42.6326493 -0.426326E+02  0.130E-01    0.47       0.0  T
   2    -42.6296063  0.304298E-02  0.337E-01    0.22       1.0  T
   3    -42.6331374 -0.353110E-02  0.192E-02    0.41       1.0  T
   4    -42.6331411 -0.374600E-05  0.102E-02    0.40       2.0  T
   5    -42.6331422 -0.103252E-05  0.558E-03    0.40       3.6  T
   6    -42.6331428 -0.639361E-06  0.187E-03    0.40      10.7  T
   7    -42.6331429 -0.708830E-07  0.679E-04    0.40      29.5  T
   8    -42.6331429 -0.697742E-08  0.194E-04    0.40     103.2  T
     SCC iter.                  ...        0 min,  0.010 sec
     gradient                   ...        0 min,  0.012 sec
 * total energy  :   -42.1108199 Eh     change       -0.8470793E-04 Eh
   gradient norm :     0.0082818 Eh/α   predicted    -0.5145139E-04 ( -39.26%)
   displ. norm   :     0.3283861 α      lambda       -0.1613167E-03
   maximum displ.:     0.3063295 α      in ANC's #2, #3, #4, ...

........................................................................
.............................. CYCLE   50 ..............................
........................................................................

 iter      E             dE          RMSdq      gap      omega  full diag
   1    -42.6304722 -0.426305E+02  0.294E-01    0.62       0.0  T
   2    -42.6148690  0.156032E-01  0.763E-01    0.05       1.0  T
   3    -42.6329903 -0.181213E-01  0.458E-02    0.47       1.0  T
   4    -42.6330170 -0.267749E-04  0.223E-02    0.46       1.0  T
   5    -42.6330221 -0.502399E-05  0.125E-02    0.45       1.6  T
   6    -42.6330251 -0.305049E-05  0.483E-03    0.45       4.1  T
   7    -42.6330256 -0.495916E-06  0.173E-03    0.45      11.5  T
   8    -42.6330257 -0.496378E-07  0.449E-04    0.45      44.5  T
   9    -42.6330257 -0.265224E-09  0.241E-04    0.45      83.1  T
     SCC iter.                  ...        0 min,  0.011 sec
     gradient                   ...        0 min,  0.011 sec
 * total energy  :   -42.1108736 Eh     change       -0.5369063E-04 Eh
   gradient norm :     0.0216903 Eh/α   predicted    -0.8938303E-04 (  66.48%)
   displ. norm   :     0.0515689 α      lambda       -0.1241733E-03
   maximum displ.:     0.0472979 α      in ANC's #2, #1, #3, ...

........................................................................
.............................. CYCLE   51 ..............................
........................................................................

 iter      E             dE          RMSdq      gap      omega  full diag
   1    -42.6330769 -0.426331E+02  0.498E-02    0.42       0.0  T
   2    -42.6326415  0.435371E-03  0.128E-01    0.51       1.0  T
   3    -42.6331526 -0.511080E-03  0.591E-03    0.44       3.4  T
   4    -42.6331529 -0.354032E-06  0.324E-03    0.44       6.2  T
   5    -42.6331530 -0.687762E-07  0.210E-03    0.44       9.5  T
   6    -42.6331531 -0.729540E-07  0.641E-04    0.44      31.2  T
   7    -42.6331531 -0.749159E-08  0.221E-04    0.44      90.6  T
     SCC iter.                  ...        0 min,  0.009 sec
     gradient                   ...        0 min,  0.011 sec
 * total energy  :   -42.1109553 Eh     change       -0.8169319E-04 Eh
   gradient norm :     0.0100953 Eh/α   predicted    -0.6226179E-04 ( -23.79%)
   displ. norm   :     0.1607423 α      lambda       -0.1396944E-03
   maximum displ.:     0.1207770 α      in ANC's #2, #1, #4, ...

........................................................................
.............................. CYCLE   52 ..............................
........................................................................

 iter      E             dE          RMSdq      gap      omega  full diag
   1    -42.6326177 -0.426326E+02  0.122E-01    0.53       0.0  T
   2    -42.6301430  0.247475E-02  0.304E-01    0.30       1.0  T
   3    -42.6330306 -0.288763E-02  0.223E-02    0.47       1.0  T
   4    -42.6330337 -0.308859E-05  0.120E-02    0.47       1.7  T
   5    -42.6330351 -0.139205E-05  0.627E-03    0.46       3.2  T
   6    -42.6330361 -0.984421E-06  0.202E-03    0.47       9.9  T
   7    -42.6330361 -0.753799E-07  0.808E-04    0.47      24.8  T
   8    -42.6330361 -0.568114E-08  0.279E-04    0.47      71.6  T
     SCC iter.                  ...        0 min,  0.010 sec
     gradient                   ...        0 min,  0.012 sec
 * total energy  :   -42.1110953 Eh     change       -0.1400289E-03 Eh
   gradient norm :     0.0053866 Eh/α   predicted    -0.7165377E-04 ( -48.83%)
   displ. norm   :     0.2197221 α      lambda       -0.1925002E-03
   maximum displ.:     0.1697541 α      in ANC's #2, #1, #4, ...

........................................................................
.............................. CYCLE   53 ..............................
[...]
H           -2.91853600163453        1.95930665801498       -0.09374962525214
H           -1.78701005737080        2.85440676884596        0.93262589518739
H           -1.29487601699991       -3.16771288488797        0.79785881848980
H           -1.33512329200284       -3.09723046147010       -0.98763337641434
H           -2.66650553915627       -2.40979341670551       -0.03622907143345
H            1.17866151595107       -3.12727403830940       -0.08826845487359

 Bond Distances (Angstroems)
 ---------------------------
C1-N2=1.3235         C1-H15=1.0696        C1-H16=1.0712        N2-C1=1.3235         N2-C3=1.3537         N2-C6=1.4067         
C3-N2=1.3537         C3-N4=1.3723         C3-H18=1.0672        N4-C3=1.3723         N4-C5=1.3408         N4-H25=1.0078        
C5-N4=1.3408         C5-C6=1.4101         C5-N13=1.3576        C6-N2=1.4067         C6-C5=1.4101         C6-C7=1.3923         
C7-C6=1.3923         C7-O8=1.3265         C7-N9=1.3772         O8-C7=1.3265         O8-H17=0.9759        N9-C7=1.3772         
N9-C10=1.4579        N9-C11=1.4050        C10-N9=1.4579        C10-H19=1.0910       C10-H20=1.0908       C10-H21=1.0925       
C11-N9=1.4050        C11-O12=1.1993       C11-N13=1.3897       O12-C11=1.1993       N13-C5=1.3576        N13-C11=1.3897       
N13-C14=1.4502       C14-N13=1.4502       C14-H22=1.0900       C14-H23=1.0899       C14-H24=1.0887       H15-C1=1.0696        
H16-C1=1.0712        H17-O8=0.9759        H18-C3=1.0672        H19-C10=1.0910       H20-C10=1.0908       H21-C10=1.0925       
H22-C14=1.0900       H23-C14=1.0899       H24-C14=1.0887       H25-N4=1.0078        
 C  H  Rav=1.0834 sigma=0.0101  Rmin=1.0672  Rmax=1.0925     9
 C  C  Rav=1.4012 sigma=0.0089  Rmin=1.3923  Rmax=1.4101     2
 N  H  Rav=1.0078 sigma=0.0000  Rmin=1.0078  Rmax=1.0078     1
 N  C  Rav=1.3850 sigma=0.0406  Rmin=1.3235  Rmax=1.4579    11
 O  H  Rav=0.9759 sigma=0.0000  Rmin=0.9759  Rmax=0.9759     1
 O  C  Rav=1.2629 sigma=0.0636  Rmin=1.1993  Rmax=1.3265     2

 selected bond angles (degree)
 --------------------
H15-C1-N2=119.31               H16-C1-N2=119.17               H16-C1-H15=121.52              C3-N2-C1=128.03                
C6-N2-C1=125.50                C6-N2-C3=106.48                N4-C3-N2=110.06                H18-C3-N2=125.15               
H18-C3-N4=124.79               C5-N4-C3=108.60                H25-N4-C3=124.45               H25-N4-C5=126.94               
C6-C5-N4=107.87                N13-C5-N4=129.38               N13-C5-C6=122.74               C5-C6-N2=106.99                
C7-C6-N2=133.91                C7-C6-C5=119.09                O8-C7-C6=123.25                N9-C7-C6=116.51                
N9-C7-O8=120.24                H17-O8-C7=113.42               C10-N9-C7=118.88               C11-N9-C7=125.32               
C11-N9-C10=115.80              H19-C10-N9=110.61              H20-C10-N9=107.24              H20-C10-H19=108.07             
H21-C10-N9=111.21              H21-C10-H19=111.16             H21-C10-H20=108.39             

 selected dihedral angles (degree)
 ---------------------------------
C3-N2-C1-H15=180.47           C3-N2-C1-H16=  0.07           C6-N2-C1-H15=  0.68           C6-N2-C1-H16=180.27           
N4-C3-N2-C1=180.07            N4-C3-N2-C6=359.89            H18-C3-N2-C1=  0.00           H18-C3-N2-C6=179.84           
C5-N4-C3-N2=  0.09            C5-N4-C3-H18=180.14           H25-N4-C3-N2=180.10           H25-N4-C3-H18=  0.14          
C6-C5-N4-C3=359.97            C6-C5-N4-H25=179.96           N13-C5-N4-C3=180.91           N13-C5-N4-H25=  0.90          
C5-C6-N2-C1=179.92            C5-C6-N2-C3=  0.09            C7-C6-N2-C1=  0.05            C7-C6-N2-C3=180.22            
N2-C6-C5-N4=359.97            N2-C6-C5-N13=179.10           C7-C6-C5-N4=179.86            C7-C6-C5-N13=359.00           
O8-C7-C6-N2=359.34            O8-C7-C6-C5=179.48            N9-C7-C6-N2=179.33            N9-C7-C6-C5=359.47            
H17-O8-C7-C6=180.03           H17-O8-C7-N9=  0.04           C10-N9-C7-C6=182.02           C10-N9-C7-O8=  2.01           
C11-N9-C7-C6=  2.02           C11-N9-C7-O8=182.01           H19-C10-N9-C7= 58.60          H19-C10-N9-C11=238.60         
H20-C10-N9-C7=176.22          H20-C10-N9-C11=356.22         H21-C10-N9-C7=294.57          H21-C10-N9-C11=114.56         
           -------------------------------------------------
          |                Final Singlepoint                |
           -------------------------------------------------

          ...................................................
          :                      SETUP                      :
          :.................................................:
          :  # basis functions                  67          :
          :  # atomic orbitals                  67          :
          :  # shells                           39          :
          :  # electrons                        74          :
          :  max. iterations                   250          :
          :  Hamiltonian                  GFN2-xTB          :
          :  restarted?                      false          :
          :  GBSA solvation                  false          :
          :  PC potential                    false          :
          :  electronic temp.         5000.0000000     K    :
          :  accuracy                    1.0000000          :
          :  -> integral cutoff          0.2500000E+02      :
          :  -> integral neglect         0.1000000E-07      :
          :  -> SCF convergence          0.1000000E-05 Eh   :
          :  -> wf. convergence          0.1000000E-03 e    :
          :  Broyden damping             0.4000000          :
          ...................................................

 iter      E             dE          RMSdq      gap      omega  full diag
   1    -42.7200747 -0.427201E+02  0.173E-04    1.42       0.0  T
   2    -42.7200747  0.120458E-08  0.269E-04    1.42      74.4  T
   3    -42.7200747 -0.197011E-08  0.292E-05    1.42     684.3  T

   *** convergence criteria satisfied after 3 iterations ***

         #    Occupation            Energy/Eh            Energy/eV
      -------------------------------------------------------------
         1        2.0000           -0.8974423             -24.4206
       ...           ...                  ...                  ...
        31        1.9999           -0.6185491             -16.8316
        32        1.9999           -0.6087231             -16.5642
        33        1.9998           -0.6034951             -16.4219
        34        1.9996           -0.5900162             -16.0552
        35        1.9991           -0.5748190             -15.6416
        36        1.9966           -0.5544513             -15.0874
        37        1.6668           -0.4789457             -13.0328 (HOMO)
        38        0.3119           -0.4267132             -11.6115 (LUMO)
        39        0.0232           -0.3830994             -10.4247
        40        0.0031           -0.3508336              -9.5467
        41        0.0001           -0.2884185              -7.8483
        42        0.0000           -0.2082135              -5.6658
       ...           ...                  ...                  ...
        67                          0.5317115              14.4686
      -------------------------------------------------------------
                  HL-Gap            0.0522325 Eh            1.4213 eV
             Fermi-level           -0.4534522 Eh          -12.3391 eV

 SCC (total)                   0 d,  0 h,  0 min,  0.020 sec
 SCC setup                      ...        0 min,  0.000 sec (  0.892%)
 Dispersion                     ...        0 min,  0.000 sec (  0.791%)
 classical contributions        ...        0 min,  0.000 sec (  0.317%)
 integral evaluation            ...        0 min,  0.004 sec ( 20.580%)
 iterations                     ...        0 min,  0.004 sec ( 20.734%)
 molecular gradient             ...        0 min,  0.011 sec ( 56.118%)
 printout                       ...        0 min,  0.000 sec (  0.534%)

         :::::::::::::::::::::::::::::::::::::::::::::::::::::
         ::                     SUMMARY                     ::
         :::::::::::::::::::::::::::::::::::::::::::::::::::::
         :: total energy             -42.199071412632 Eh    ::
         :: gradient norm              0.002527313887 Eh/a0 ::
         :: HOMO-LUMO gap              1.421319512129 eV    ::
         ::.................................................::
         :: SCC energy               -42.720074656581 Eh    ::
         :: -> isotropic ES            0.124077275447 Eh    ::
         :: -> anisotropic ES         -0.005482310381 Eh    ::
         :: -> anisotropic XC          0.011788703034 Eh    ::
         :: -> dispersion             -0.023007571892 Eh    ::
         :: repulsion energy           0.520874716067 Eh    ::
         :: add. restraining           0.000011284996 Eh    ::
         :: total charge               0.999999999994 e     ::
         :::::::::::::::::::::::::::::::::::::::::::::::::::::

           -------------------------------------------------
          |                Property Printout                |
           -------------------------------------------------

    * Orbital Energies and Occupations

         #    Occupation            Energy/Eh            Energy/eV
      -------------------------------------------------------------
         1        2.0000           -0.8974423             -24.4206
       ...           ...                  ...                  ...
        25        2.0000           -0.6645321             -18.0828
        26        2.0000           -0.6596218             -17.9492
        27        2.0000           -0.6564787             -17.8637
        28        2.0000           -0.6498524             -17.6834
        29        2.0000           -0.6457933             -17.5729
        30        2.0000           -0.6225700             -16.9410
        31        1.9999           -0.6185491             -16.8316
        32        1.9999           -0.6087231             -16.5642
        33        1.9998           -0.6034951             -16.4219
        34        1.9996           -0.5900162             -16.0552
        35        1.9991           -0.5748190             -15.6416
        36        1.9966           -0.5544513             -15.0874
        37        1.6668           -0.4789457             -13.0328 (HOMO)
        38        0.3119           -0.4267132             -11.6115 (LUMO)
        39        0.0232           -0.3830994             -10.4247
        40        0.0031           -0.3508336              -9.5467
        41        0.0001           -0.2884185              -7.8483
        42        0.0000           -0.2082135              -5.6658
        43                         -0.1667614              -4.5378
        44                         -0.1360781              -3.7029
        45                         -0.1225365              -3.3344
        46                         -0.1149259              -3.1273
        47                         -0.0649826              -1.7683
        48                         -0.0461346              -1.2554
       ...                                ...                  ...
        67                          0.5317115              14.4686
      -------------------------------------------------------------
                  HL-Gap            0.0522325 Eh            1.4213 eV
             Fermi-level           -0.4534522 Eh          -12.3391 eV

     #   Z          covCN         q      C6AA      α(0)
     1   6 C        2.790    -0.103    30.582     9.059
     2   7 N        2.795     0.117    19.242     6.515
     3   6 C        3.028    -0.009    28.213     8.713
     4   7 N        2.768    -0.061    22.421     7.033
     5   6 C        3.020     0.099    25.794     8.331
     6   6 C        3.085    -0.020    28.406     8.737
     7   6 C        2.773     0.200    23.742     7.980
     8   8 O        1.659    -0.328    19.511     5.963
     9   7 N        2.743    -0.085    22.903     7.108
    10   6 C        3.701    -0.072    22.033     6.712
    11   6 C        2.722     0.315    21.639     7.615
    12   8 O        0.859    -0.372    21.125     6.162
    13   7 N        2.737    -0.058    22.356     7.022
    14   6 C        3.699    -0.071    22.033     6.713
    15   1 H        0.927     0.099     1.792     2.093
    16   1 H        0.926     0.088     1.894     2.152
    17   1 H        0.804     0.353     0.582     1.198
    18   1 H        0.927     0.105     1.742     2.064
    19   1 H        0.924     0.082     1.960     2.189
    20   1 H        0.924     0.130     1.535     1.938
    21   1 H        0.924     0.083     1.945     2.181
    22   1 H        0.925     0.083     1.951     2.184
    23   1 H        0.925     0.083     1.945     2.181
    24   1 H        0.925     0.124     1.584     1.968
    25   1 H        0.860     0.218     1.018     1.581

 Mol. C6AA /au·bohr⁶  :       6646.295211
 Mol. C8AA /au·bohr⁸  :     153270.540245
 Mol. α(0) /au        :        125.392811


Wiberg/Mayer (AO) data.
largest (>0.10) Wiberg bond orders for each atom

 ---------------------------------------------------------------------------
     #   Z sym  total        # sym  WBO       # sym  WBO       # sym  WBO
 ---------------------------------------------------------------------------
     1   6 C    3.580 --     2 N    1.347    16 H    0.970    15 H    0.968
                             3 C    0.162
     2   7 N    3.733 --     1 C    1.347     3 C    1.233     6 C    1.065
     3   6 C    3.681 --     2 N    1.233     4 N    1.176    18 H    0.960
                             1 C    0.162
     4   7 N    3.550 --     5 C    1.262     3 C    1.176    25 H    0.924
     5   6 C    3.849 --     4 N    1.262     6 C    1.232    13 N    1.162
     6   6 C    3.906 --     7 C    1.310     5 C    1.232     2 N    1.065
     7   6 C    3.750 --     6 C    1.310     9 N    1.161     8 O    1.160
     8   8 O    2.177 --     7 C    1.160    17 H    0.836
     9   7 N    3.498 --     7 C    1.161    11 C    1.066    10 C    0.976
                            12 O    0.128
    10   6 C    3.928 --     9 N    0.976    19 H    0.968    21 H    0.967
                            20 H    0.959
    11   6 C    3.944 --    12 O    1.698    13 N    1.090     9 N    1.066
    12   8 O    2.058 --    11 C    1.698    13 N    0.134     9 N    0.128
    13   7 N    3.510 --     5 C    1.162    11 C    1.090    14 C    0.974
                            12 O    0.134
    14   6 C    3.927 --    13 N    0.974    22 H    0.971    23 H    0.970
                            24 H    0.966
    15   1 H    0.990 --     1 C    0.968
    16   1 H    0.991 --     1 C    0.970
    17   1 H    0.875 --     8 O    0.836
    18   1 H    0.988 --     3 C    0.960
    19   1 H    0.989 --    10 C    0.968
    20   1 H    0.983 --    10 C    0.959
    21   1 H    0.988 --    10 C    0.967
    22   1 H    0.989 --    14 C    0.971
    23   1 H    0.989 --    14 C    0.970
    24   1 H    0.984 --    14 C    0.966
    25   1 H    0.952 --     4 N    0.924
 ---------------------------------------------------------------------------

Topologies differ in total number of bonds
Writing topology from bond orders to xtbtopo.mol

molecular dipole:
                 x           y           z       tot (Debye)
 q only:        1.425      -0.491      -0.023
   full:        1.508      -0.577      -0.028       4.103
molecular quadrupole (traceless):
                xx          xy          yy          xz          yz          zz
 q only:       -2.270      -8.386      21.146       0.192       0.938     -18.876
  q+dip:       -6.759     -11.723      24.357       0.020       1.067     -17.598
   full:       -7.611     -11.242      23.950       0.039       0.981     -16.339

           -------------------------------------------------
          |                Geometry Summary                 |
           -------------------------------------------------

      molecular mass/u    :      195.1988581
   center of mass at/Å    :        0.1237103      -0.0656450       0.0074454
  moments of inertia/u·Å² :        0.4873202E+03   0.7049216E+03   0.1185603E+04
rotational constants/cm⁻¹ :        0.3459252E-01   0.2391419E-01   0.1421861E-01

 * 26 selected distances

     #   Z          #   Z                                           value/Å
     1   6 C        2   7 N                                       1.3235487
     2   7 N        3   6 C                                       1.3537269
     3   6 C        4   7 N                                       1.3722881
     4   7 N        5   6 C                                       1.3408062
     2   7 N        6   6 C                                       1.4067089
     5   6 C        6   6 C                                       1.4101491
     6   6 C        7   6 C                                       1.3922768
     7   6 C        8   8 O                                       1.3264719
     7   6 C        9   7 N                                       1.3772463
     9   7 N       10   6 C                                       1.4578791 (max)
     9   7 N       11   6 C                                       1.4050032
    11   6 C       12   8 O                                       1.1993394
     5   6 C       13   7 N                                       1.3576167
    11   6 C       13   7 N                                       1.3896928
    13   7 N       14   6 C                                       1.4501751
     1   6 C       15   1 H                                       1.0695977
     1   6 C       16   1 H                                       1.0711555
     8   8 O       17   1 H                                       0.9758937 (min)
     3   6 C       18   1 H                                       1.0672103
    10   6 C       19   1 H                                       1.0909632
    10   6 C       20   1 H                                       1.0907855
    10   6 C       21   1 H                                       1.0924517
    14   6 C       22   1 H                                       1.0900219
    14   6 C       23   1 H                                       1.0899194
    14   6 C       24   1 H                                       1.0887158
     4   7 N       25   1 H                                       1.0078096

 * 6 distinct bonds (by element types)

   Z      Z             #   av. dist./Å        max./Å        min./Å
   1 H    6 C           9     1.0834245     1.0924517     1.0672103
   6 C    6 C           2     1.4012129     1.4101491     1.3922768
   1 H    7 N           1     1.0078096     1.0078096     1.0078096
   6 C    7 N          11     1.3849720     1.4578791     1.3235487
   1 H    8 O           1     0.9758937     0.9758937     0.9758937
   6 C    8 O           2     1.2629057     1.3264719     1.1993394


optimized geometry written to: xtbopt.xyz


           -------------------------------------------------
          | TOTAL ENERGY              -42.199071412632 Eh   |
          | GRADIENT NORM               0.002527313887 Eh/α |
          | HOMO-LUMO GAP               1.421319512129 eV   |
           -------------------------------------------------

------------------------------------------------------------------------
 * finished run on 2024/06/05 at 19:57:52.379     
------------------------------------------------------------------------
 total:
 * wall-time:     0 d,  0 h,  0 min,  2.587 sec
 *  cpu-time:     0 d,  0 h,  0 min,  2.570 sec
 * ratio c/w:     0.993 speedup
 SCF:
 * wall-time:     0 d,  0 h,  0 min,  0.033 sec
 *  cpu-time:     0 d,  0 h,  0 min,  0.033 sec
 * ratio c/w:     1.000 speedup
 ANC optimizer:
 * wall-time:     0 d,  0 h,  0 min,  2.529 sec
 *  cpu-time:     0 d,  0 h,  0 min,  2.526 sec
 * ratio c/w:     0.999 speedup

