25
 energy: 0.000000000000 xtb: 6.6.1 (8d0f1dd)
C            3.23720163006194        1.16630919979326        0.08434469647475
N            2.29877817382611        0.07527477071623        0.03981603040599
C            2.58028210190900       -1.21425402444508        0.03006176031096
N            1.43813958087363       -1.93419271955128        0.00098261760884
C            0.39035688448383       -1.05887472636071       -0.00790371836672
C            0.93510056364412        0.21347819449412        0.01709077491437
C            0.09450143893243        1.40504303904423       -0.00410947031874
O            0.49712751527797        2.54126714362870       -0.00342325688240
N           -1.25076640035757        1.06271879480407       -0.03085478223738
C           -2.21907211982101        2.15522099834493       -0.05001256985998
C           -1.81739487048744       -0.20012725993278       -0.04692818574614
O           -2.99983886758376       -0.37846417018721       -0.07008878229737
N           -0.92618586207120       -1.30210215599479       -0.03682761578324
C           -1.46982264913417       -2.64643102187190       -0.06029820460571
H            3.71247264356769        1.21471455160235        1.06488849150277
H            4.00791497605742        1.03430808813993       -0.67357694370751
H            2.69910007168542        2.09770118228144       -0.09130154882931
H            3.56654120610678       -1.63682992603973        0.04233140067262
H           -1.67107961066214        3.09322851271934       -0.02552706933167
H           -2.82428953597071        2.09428624779827       -0.95318082946668
H           -2.87644029173232        2.07745725625962        0.81450067533302
H           -1.17061996399332       -3.19584890659852        0.83242232437030
H           -1.14560257411436       -3.17511610292205       -0.95688275822323
H           -2.55549792440841       -2.55659984320617       -0.07459039797972
H            1.38130855184625       -2.94313852034425       -0.01389874181052
25
 energy: -5.396814076476 xtb: 6.6.1 (8d0f1dd)
C            3.24408887938655        1.17790578002210        0.08675488732381
N            2.30832098169103        0.09582436400438        0.03773398107093
C            2.59997925216328       -1.23227185151927        0.03007548699730
N            1.42795686078443       -1.94007445094169        0.00083570831121
C            0.39666185185498       -1.05622231140172       -0.00826593536431
C            0.93044418360329        0.22261855709212        0.01525558937706
C            0.10188627760983        1.39604211176116       -0.00526005998017
O            0.49843124670539        2.56194345069927       -0.00463882666051
N           -1.26007531194968        1.05052275379065       -0.03111468913693
C           -2.22035388257019        2.14659736331783       -0.04985282742734
C           -1.82329237011467       -0.20080936336747       -0.04731914420156
O           -3.01992595863151       -0.38318494821253       -0.07042750297019
N           -0.93400419232875       -1.30115617978351       -0.03705938832379
C           -1.47287653480740       -2.64302053133050       -0.06023198964947
H            3.72243741404594        1.22381980544489        1.06876476556677
H            4.01212727250419        1.04327418403797       -0.67631254273310
H            2.69727456195327        2.10254287403311       -0.08867724660955
H            3.57826010470964       -1.65843403255339        0.04273203006095
H           -1.65884854801951        3.07789935395963       -0.02535176684011
H           -2.82573343165107        2.09310195418132       -0.95426011143242
H           -2.87791723848441        2.07645607631573        0.81601665370933
H           -1.17037149821072       -3.19473572410576        0.83186529853044
H           -1.14531295609748       -3.17421113906585       -0.95604400240669
H           -2.55811838981426       -2.55161473911046       -0.07460565704830
H            1.36117609360403       -2.94378475509603       -0.01357881401611
25
 energy: -6.564799911691 xtb: 6.6.1 (8d0f1dd)
C            3.25296906720396        1.18726793572798        0.08981268709633
N            2.31753608253677        0.10840526993936        0.03396802037315
C            2.61181129951383       -1.24709066297045        0.03016910112668
N            1.41531520746198       -1.93844219667607        0.00114477500434
C            0.40068604768895       -1.05117472309857       -0.00919182065697
C            0.92825730522404        0.23141318718508        0.01203235763942
C            0.10825007875496        1.38368656788273       -0.00813221578523
O            0.48499580394646        2.56638508559090       -0.00835215767627
N           -1.27072912987275        1.03722288577477       -0.03202650474822
C           -2.22067273898409        2.13694105050438       -0.04960404480424
C           -1.82694063018483       -0.20349186151926       -0.04793305189938
O           -3.02828024894412       -0.39222737018403       -0.07053904372223
N           -0.94012753534674       -1.29796452055840       -0.03746918462265
C           -1.47549390422112       -2.63773919127463       -0.06002364734650
H            3.74038184343425        1.23776344255444        1.06973598762524
H            4.01989684689494        1.06419668357770       -0.67862842812295
H            2.69910887265864        2.10924122656876       -0.07956755018915
H            3.58273347702668       -1.68266861903897        0.04366553984842
H           -1.63748464905134        3.05566557533429       -0.02511825130227
H           -2.82721382415766        2.09239084939101       -0.95442731898362
H           -2.87850298702473        2.07588497805651        0.81748205773094
H           -1.17231141443521       -3.19197591990544        0.83151789797398
H           -1.14708679511236       -3.17209745066983       -0.95490627214705
H           -2.56066151214791       -2.54275669440806       -0.07456108142263
H            1.33577810507364       -2.93980692561219       -0.01201395484184
25
 energy: -6.477553655175 xtb: 6.6.1 (8d0f1dd)
C            3.25959139118729        1.19313643198464        0.09260738302213
N            2.32485496443422        0.11095962665588        0.03016549118954
C            2.61442437672072       -1.25562049593149        0.02988454865595
N            1.40826750982801       -1.93548879829197        0.00197453563252
C            0.40210802565287       -1.04768272838787       -0.01052275211854
C            0.93050653141046        0.23592267448855        0.00835342659336
C            0.10984722650323        1.37839996633608       -0.01292596550281
O            0.46716845224622        2.56685104100479       -0.01508216273668
N           -1.27789431864655        1.02860369208180       -0.03405595007450
C           -2.21970019871093        2.13089893451785       -0.04949133138498
C           -1.82951043435807       -0.20873438958738       -0.04890755188343
O           -3.03052358171272       -0.40406737259848       -0.07047111767964
N           -0.94103015272200       -1.29653506686108       -0.03808809768327
C           -1.47673297952879       -2.63463827283703       -0.05952485842069
H            3.75858524902147        1.24550239680626        1.06782931360478
H            4.02474783993816        1.09076281710126       -0.68201610006860
H            2.70103277591735        2.11580130096298       -0.06311581220891
H            3.58009408105841       -1.70290328678305        0.04487794573565
H           -1.61729024085480        3.03742935172985       -0.02533608322563
H           -2.82805880012416        2.09342109687795       -0.95352605360696
H           -2.87648840759851        2.07666179682843        0.81898631059457
H           -1.17624497793569       -3.18928479769709        0.83267303049652
H           -1.15068474966759       -3.17083534468095       -0.95419033780944
H           -2.56181016716884       -2.53320406673179       -0.07427997064761
H            1.31695525304641       -2.93632790481609       -0.00878394432606
25
 energy: -5.007675121964 xtb: 6.6.1 (8d0f1dd)
C            3.27311109207224        1.20723000669829        0.10172163635231
N            2.34355319269895        0.11238500236151        0.01919438929350
C            2.61704469062095       -1.27250123423458        0.02751268134664
N            1.39613744020916       -1.92868287663705        0.00483421532520
C            0.40482938687689       -1.03961997661758       -0.01520775228334
C            0.93995120249752        0.24465380245354       -0.00369207853850
C            0.11147399276937        1.37012729495084       -0.03116273070098
O            0.42258142306096        2.56808769950949       -0.04106543445912
N           -1.29203946068454        1.00857288113417       -0.04271950892578
C           -2.21477455407728        2.11832258977956       -0.04964245772264
C           -1.83557259399538       -0.22445168568822       -0.05280498814849
O           -3.03421526069846       -0.43590116798865       -0.06988510847999
N           -0.93913714460102       -1.29559757224898       -0.04049670138085
C           -1.47927110054336       -2.62965820815873       -0.05717292272162
H            3.80947874469581        1.24880933401490        1.06070622603983
H            4.02617436296427        1.17206695655036       -0.69747360569801
H            2.69860377695415        2.13237634220692        0.00030295856829
H            3.56880703072498       -1.75206944351989        0.04886964632835
H           -1.56772649071658        2.99563203305088       -0.02767046454995
H           -2.83035723062301        2.09926336633000       -0.94947643551752
H           -2.86566685344664        2.08081507850719        0.82436033967868
H           -1.18921397621916       -3.18350045425966        0.83839818827311
H           -1.16241870821327       -3.17139534462666       -0.95127362489521
H           -2.56373751245428       -2.50771455968757       -0.07272795854939
H            1.27459921806394       -2.92822126170803        0.00360538751279
25
 energy: 4.385522394858 xtb: 6.6.1 (8d0f1dd)
C            3.29774531271317        1.23840121570481        0.12638656742017
N            2.38452697800692        0.11248631095644       -0.00776922720838
C            2.62132316923462       -1.30570510282711        0.01936873371946
N            1.37501165368884       -1.91503894656433        0.01192473739741
C            0.41066944536948       -1.02277396319322       -0.02795778573938
C            0.96326926478317        0.26145204988567       -0.03540288824074
C            0.11623510784177        1.35501840789418       -0.08169263215722
O            0.33224142951298        2.56935124317705       -0.11350629335485
N           -1.31845144542847        0.96675329770537       -0.06801492549711
C           -2.20134151038509        2.09397618626129       -0.05066811018724
C           -1.84757898762813       -0.25923942267788       -0.06388437621706
O           -3.04043137968977       -0.50412103793070       -0.06792355930202
N           -0.93180507170169       -1.29622917353271       -0.04746124777679
C           -1.48445633583074       -2.62196345531936       -0.04998829436081
H            3.93165402500161        1.23007383931146        1.04136840675898
H            4.00824665094381        1.37256438329592       -0.74179589553343
H            2.68088757098806        2.16783803846114        0.17671350233461
H            3.54119596077816       -1.85740887097497        0.05932312059357
H           -1.46514323388242        2.91070846411044       -0.03612644591202
H           -2.83710026075456        2.11564823777164       -0.93763801871694
H           -2.83343818923321        2.09132320456563        0.83913456025648
H           -1.22048550333666       -3.17198717811534        0.85494371257356
H           -1.19051445208494       -3.17895976636831       -0.94156537909756
H           -2.56711045791239       -2.45218547123797       -0.06770664126674
H            1.18706492694158       -2.91095388818710        0.03697227566131
25
 energy: 12.373655444403 xtb: 6.6.1 (8d0f1dd)
C            3.30699182096441        1.25618491623058        0.14673585232665
N            2.40764599926029        0.10897986663095       -0.02617904658652
C            2.62137548904408       -1.32112047951817        0.01318486775548
N            1.36850834941126       -1.90821124652792        0.01721432772181
C            0.41342833316950       -1.01372177306185       -0.03941011030409
C            0.97956457863430        0.26853874106380       -0.06159335220383
C            0.12342318003519        1.35078667711726       -0.12560727986263
O            0.29597067483856        2.56499687459556       -0.17660859543804
N           -1.32912940059581        0.94868152658662       -0.09064438506194
C           -2.19446680226555        2.08399203384238       -0.04951254364421
C           -1.85275166470109       -0.27691222155947       -0.07357542685344
O           -3.04103071382370       -0.53888717757931       -0.06533393448595
N           -0.92432183071241       -1.29835550377643       -0.05474666025796
C           -1.48589353473441       -2.62080471857498       -0.04430899009402
H            4.01090331831280        1.19852998351845        1.02329250552353
H            3.97543293630090        1.50275260860840       -0.76453348301068
H            2.66819942767869        2.18289748596952        0.30947690275015
H            3.52043198636928       -1.91475831986629        0.06723656318521
H           -1.42616587440528        2.87240818785079       -0.04176143763813
H           -2.84638020434103        2.12796003063254       -0.92405865360282
H           -2.80700854278718        2.09380773369452        0.85383006866639
H           -1.23977506866762       -3.16564508007518        0.86806620893288
H           -1.20827416547057       -3.18990176185480       -0.93274943312463
H           -2.56682575393509       -2.42301125085752       -0.06336281368958
H            1.14236213035654       -2.90015853091741        0.06198274514362
25
 energy: 16.866801664600 xtb: 6.6.1 (8d0f1dd)
C            3.29959578201274        1.26958995918098        0.17306707400154
N            2.42602757716833        0.09162995565325       -0.04930777652505
C            2.61023524091484       -1.31723206602353        0.00684224532762
N            1.38524078727124       -1.90484189932087        0.02654019537945
C            0.41212533087131       -1.00727829771605       -0.05622573558094
C            1.00464186899441        0.26581421754463       -0.09924299631593
C            0.13707785039663        1.36516974788095       -0.18800852637795
O            0.30396305399510        2.54742171624736       -0.26648725452253
N           -1.32352051939449        0.95060960562308       -0.12417334850649
C           -2.18840470996971        2.08956261793490       -0.04605696662811
C           -1.85416072734520       -0.28844230145700       -0.08711963841499
O           -3.03300932634937       -0.55794191730022       -0.06097065970428
N           -0.90514510690586       -1.30765362847635       -0.06651223602776
C           -1.48173022517725       -2.63186274912130       -0.03695376571813
H            4.09195061174042        1.11838521964828        0.98453870085098
H            3.88710389202998        1.64396123869720       -0.77845139655874
H            2.64905353537181        2.17682946677691        0.48661531456755
H            3.48483263594420       -1.94993426246851        0.07929192428908
H           -1.44556028253463        2.87026021110122       -0.04968011504095
H           -2.85854349727819        2.14749763072993       -0.90102746884881
H           -2.76747491698645        2.09292178125222        0.87528008870630
H           -1.26055199543560       -3.16553183676492        0.88627279665015
H           -1.22728479882255       -3.21505781307421       -0.92051963665738
H           -2.55938850835461       -2.40680317674819       -0.05768204384590
H            1.12514111577892       -2.88804481762772        0.09700512164852
25
 energy: 15.367113712342 xtb: 6.6.1 (8d0f1dd)
C            3.27939663337885        1.27095641422270        0.19929669303052
N            2.42735507930611        0.08185762267187       -0.06765962523010
C            2.60098694558191       -1.28932908992218        0.00581392230234
N            1.40884669797772       -1.90434292826609        0.03394832756566
C            0.40804466276502       -1.00525747605132       -0.07250483811262
C            1.01765400514509        0.25848115846060       -0.13710914671195
C            0.14502762806222        1.38097160726183       -0.24329048421069
O            0.33139785993039        2.55129936801575       -0.37393621402760
N           -1.30163819108354        0.95492736780046       -0.15275786261124
C           -2.17769671661356        2.09934439687872       -0.03519392882963
C           -1.85143888287744       -0.28974658535596       -0.09927073890634
O           -3.02768035231258       -0.54659517807698       -0.05307486424168
N           -0.89249358834231       -1.32151692213242       -0.08022437961659
C           -1.47850125222724       -2.64927044162004       -0.03391974499626
H            4.11488785602102        1.04047863411394        0.94444263287415
H            3.78455753424471        1.70891771642884       -0.75000551707501
H            2.64386259551869        2.13542442754630        0.61162739590532
H            3.46201028392560       -1.93034230491386        0.08976736017591
H           -1.47383399469932        2.89768340507821       -0.05212811225592
H           -2.87218915130757        2.16806470418499       -0.86877890206073
H           -2.72215619267677        2.08713666667078        0.90696136939292
H           -1.26904284486134       -3.17097829831122        0.89714929664372
H           -1.23584657388554       -3.24386071650244       -0.91088732389963
H           -2.55202301570872       -2.41862491024866       -0.05577681090366
H            1.14272764267453       -2.87665003576174        0.12454539194635
25
 energy: 13.306934825365 xtb: 6.6.1 (8d0f1dd)
C            3.25640446851030        1.27155692731000        0.23739157029987
N            2.42583426213590        0.08540661020376       -0.09553065725411
C            2.60128500498602       -1.25339030899111        0.01151875493856
N            1.42642151282568       -1.90445765657028        0.04188690071311
C            0.40550822265766       -1.00176697023738       -0.09498508300589
C            1.02252786033408        0.25333675568451       -0.19351957172725
C            0.14948857657632        1.38806805907913       -0.31869675004864
O            0.36808132618166        2.56379131317249       -0.54428124224111
N           -1.27233551178731        0.95341940035658       -0.18711033820618
C           -2.16137123597810        2.10255570497566       -0.01499507960964
C           -1.84521948363968       -0.28602853112533       -0.11555751576909
O           -3.02548328442533       -0.52296829131621       -0.04030620273677
N           -0.88745876648146       -1.33776309491549       -0.10152635897372
C           -1.48017523858748       -2.66601686935573       -0.03272584928139
H            4.13323226332933        0.95288110300946        0.88439819468036
H            3.64648803366926        1.79091705688641       -0.69511183344874
H            2.64285153611946        2.06020242239590        0.77953820033026
H            3.45108175429019       -1.89576896231538        0.10550487942259
H           -1.48466625162222        2.92952075512092       -0.05376825182807
H           -2.89480231935246        2.18669671599868       -0.81663520383273
H           -2.65836931123391        2.06974870224938        0.95698337559663
H           -1.27499236150740       -3.17339050677697        0.90709322243529
H           -1.24274904380373       -3.27901238246635       -0.89793123385187
H           -2.54861612782801       -2.43516615214814       -0.05609422821725
H            1.15924878256710       -2.86334319805241        0.16149419776300
25
 energy: 7.574580634395 xtb: 6.6.1 (8d0f1dd)
C            3.23081649444845        1.26416343951649        0.27292258149612
N            2.40923546757356        0.11124046716470       -0.12725542372744
C            2.61482499893576       -1.21799998424433        0.03746941495711
N            1.43068368041254       -1.90874461793286        0.04324313657012
C            0.40836667549798       -1.00211275413722       -0.12085746992153
C            1.00469549234926        0.24948095081534       -0.26168783878617
C            0.13921345393074        1.37866825338203       -0.40176686702269
O            0.42405392423625        2.56156025655897       -0.69621357020911
N           -1.23996961104880        0.95720299612585       -0.21559190016323
C           -2.14321424915418        2.10196655879936        0.01094836858962
C           -1.82927760580073       -0.26613405319642       -0.13396765621723
O           -3.02162954682297       -0.47564785393861       -0.02762149965490
N           -0.89597867037369       -1.34923461590952       -0.12933921683832
C           -1.48674045585571       -2.67298527173391       -0.03411041098240
H            4.11797284862717        0.89498496211040        0.79958593735614
H            3.49742083724186        1.84856792851859       -0.60693849207657
H            2.65877359029190        1.94092301198469        0.92434408611609
H            3.46983693418339       -1.83663728144440        0.12369292127423
H           -1.49089483027417        2.97346738924554       -0.05247629788181
H           -2.91761492877196        2.18963192860720       -0.75363668439784
H           -2.59428697448761        2.03962581402585        1.00728989230499
H           -1.26728607797398       -3.16837155776655        0.91175748518181
H           -1.23951277122506       -3.30870002096571       -0.88313779091117
H           -2.55203913763013       -2.45778382661018       -0.05744462316965
H            1.18476512962595       -2.85810351680315        0.19782581426102
25
 energy: 11.548712412266 xtb: 6.6.1 (8d0f1dd)
C            3.20995661580761        1.26140695009570        0.31265646276329
N            2.40205335624252        0.13230204869469       -0.16872216840779
C            2.62810726423049       -1.20850400952658        0.06424232445798
N            1.42253479762884       -1.90789120583039        0.04433100648288
C            0.41649837657053       -1.00345026202481       -0.15056535871279
C            0.99138370132877        0.24806844131827       -0.33518878896261
C            0.13568320817570        1.36033254870164       -0.50968836821209
O            0.44599047651294        2.54969750552978       -0.82447021427041
N           -1.22411996260643        0.95639891926391       -0.25580923894573
C           -2.12402321690940        2.09751220217015        0.02598136687303
C           -1.81269522971504       -0.25262515621783       -0.15496053671836
O           -3.01152161684684       -0.44948153707436       -0.01956844194496
N           -0.90243499772489       -1.35320231236761       -0.15966105748478
C           -1.49230820574472       -2.67037449228166       -0.02866934767376
H            4.18011310803755        0.81051312121079        0.69309300933284
H            3.33252406596086        2.00629924514125       -0.56328961420339
H            2.66002683575223        1.83642969084160        1.16221085690643
H            3.48436804188230       -1.82051817965733        0.14183232709667
H           -1.47908495514703        2.99000837256963       -0.05980059331903
H           -2.94188202929826        2.19086453732367       -0.69751872965673
H           -2.52655382731542        2.01665323847987        1.04680414833013
H           -1.27004248864517       -3.15051972852767        0.92927914702439
H           -1.23761505148336       -3.33747036142865       -0.85665717842360
H           -2.55698954809222       -2.46120428528099       -0.05776781469750
H            1.18224594933414       -2.85221668895094        0.24894069851313
25
 energy: 11.881162702010 xtb: 6.6.1 (8d0f1dd)
C            3.16986854868475        1.22710427550230        0.31953610200360
N            2.34547866403192        0.18059359836233       -0.20104247126632
C            2.65015233208600       -1.22874960230542        0.13147937437441
N            1.37861342943438       -1.90432818932172        0.01690967339752
C            0.44144841042680       -1.03478936482258       -0.17402368995262
C            0.92574340693223        0.24071320932956       -0.38640882872270
C            0.10208851728983        1.30948141425450       -0.62272509970838
O            0.45713038959881        2.49883027267031       -0.76225577464618
N           -1.23111578298785        0.99348069814534       -0.27046843421059
C           -2.10586457091965        2.10322720054267        0.03238842435363
C           -1.77113181770883       -0.20814702505760       -0.15620689348653
O           -2.97621584592156       -0.39373759926821       -0.01959123046392
N           -0.93304307721957       -1.32696252539601       -0.19264606508450
C           -1.49702876953296       -2.63377276885524       -0.02735932353535
H            4.14583637403235        0.83345470006486        0.57180986520358
H            3.23820219554062        2.04010449274243       -0.45917693663739
H            2.70034098999565        1.68405559545464        1.21805996403992
H            3.57251479156333       -1.75789488635687        0.13713124614245
H           -1.47029513074012        3.01685123844444       -0.05194827071735
H           -2.94992672223307        2.15284001720007       -0.65002984412096
H           -2.48376543536404        1.99438408547934        1.04778967588414
H           -1.23848187095769       -3.11462754790349        0.93228030935162
H           -1.20450193578066       -3.33074524422400       -0.83105627497915
H           -2.57717106014240       -2.47667772536116       -0.06041851440936
H            1.22333863782746       -2.87565971714831        0.28500691333767
25
 energy: 4.592971464110 xtb: 6.6.1 (8d0f1dd)
C            3.13191349937872        1.23324250085752        0.35991411813308
N            2.34753776283200        0.15344890830193       -0.22173115886549
C            2.62867777416875       -1.20048350865502        0.12549989846426
N            1.41233316333111       -1.90656901498176        0.03921859095560
C            0.42911705457656       -1.03690589864191       -0.20965543541030
C            0.94932519113646        0.22566771571853       -0.43488974022511
C            0.10928427001885        1.33592247368627       -0.69875902340173
O            0.46539714417296        2.49546752211107       -0.94532447762678
N           -1.21385463754415        1.00458074937725       -0.31772100181355
C           -2.08697568672457        2.11853575146132        0.05759608376905
C           -1.77790773240965       -0.21899126303215       -0.17599002132136
O           -2.97316623431332       -0.39231794070011       -0.00232085461560
N           -0.91683417678090       -1.33721547711867       -0.22582805809870
C           -1.49406284931301       -2.64902698819192       -0.02923193919275
H            4.14337166584096        0.79215820769560        0.53581207793735
H            3.14382081478438        2.08297395839898       -0.36247145022656
H            2.70059518255714        1.63917865107525        1.32974316611035
H            3.54882664093178       -1.73364990432302        0.13288020476127
H           -1.47213619058205        3.02724123388075       -0.04139160088206
H           -2.97761517693583        2.18051633832699       -0.58530087065571
H           -2.40503818459531        1.97937660841087        1.10979570965021
H           -1.23853941766817       -3.10131358565745        0.94015191783714
H           -1.21728256545304       -3.35301970699867       -0.82484225645088
H           -2.57243176469687       -2.48524540333554       -0.05609022574148
H            1.24785912122283       -2.86454332549396        0.32797024305694
25
 energy: 4.000179500497 xtb: 6.6.1 (8d0f1dd)
C            3.09242999415878        1.21844439414789        0.40133559880786
N            2.34035264621946        0.13476670345838       -0.23393042094826
C            2.60799585670999       -1.18767914514777        0.14342380312388
N            1.42486935022960       -1.90709213204925        0.05699786325328
C            0.42299543084504       -1.05109026872531       -0.24625246395625
C            0.95719608389433        0.20484830458803       -0.47803775725875
C            0.11285053456881        1.33176308526208       -0.76688175145641
O            0.46805001878268        2.46789059643565       -1.11380180900506
N           -1.20573642245778        1.01631239693432       -0.35100288542961
C           -2.05564445540030        2.12984918773429        0.08645257371315
C           -1.77591000804825       -0.22029627549276       -0.19649243088977
O           -2.96279112173389       -0.37963096877436        0.01650449154902
N           -0.91212608201821       -1.33469257025367       -0.26847430381308
C           -1.49167864458953       -2.64599549873245       -0.03456927533376
H            4.10528190780171        0.81169414290884        0.48667226510671
H            3.04371709498680        2.14327932612729       -0.25384097671330
H            2.69655884649733        1.52661429042983        1.41461379719643
H            3.54654542811654       -1.69788578838944        0.10506437146091
H           -1.46464125607133        3.03431814500293       -0.02108968028691
H           -2.97833549975219        2.19544005204034       -0.50884887129990
H           -2.32512811710815        1.96833811557261        1.14686830186879
H           -1.22447201916576       -3.06395547254848        0.94509761233528
H           -1.21788907749542       -3.35917336186211       -0.81668312576240
H           -2.57208013335143       -2.49181219892126       -0.05342405299044
H            1.27980431231679       -2.85522645757344        0.36733302287583
25