25
 energy: -52.497068151855 gnorm: 6.403261071289 xtb: 6.6.1 (8d0f1dd)
C            3.21786164340000        1.13591514650000        0.01837059260000
N            2.27034809790000        0.05199982890000        0.00038279530000
C            2.54167221030000       -1.23971668410000       -0.00834188300000
N            1.39367826450000       -1.95088267900000       -0.00850347120000
C            0.35269634020000       -1.06748964300000        0.00059917290000
C            0.90759959010000        0.20069750900000        0.00663590170000
C            0.07590235260000        1.39864294500000       -0.00284827040000
O            0.48715076820000        2.53168346660000       -0.01725767220000
N           -1.27221500230000        1.06666939660000        0.00165480230000
C           -2.23229981500000        2.16656245330000       -0.00245172030000
C           -1.84872931540000       -0.19179276200000        0.00496135950000
O           -3.03273030250000       -0.36103538130000        0.00858583760000
N           -0.96599111670000       -1.30060631840000        0.00174701630000
C           -1.52030655580000       -2.64076660390000       -0.00239033190000
H            3.71480285180000        1.18589984860000        0.98803183970000
H            3.97079415090000        0.99383197990000       -0.75543416370000
H            2.68321036910000        2.07051068580000       -0.15067179540000
H            3.52469367910000       -1.66989040330000       -0.01523639120000
H           -1.67672429040000        3.10039111610000        0.00486339690000
H           -2.85755792270000        2.10547813320000       -0.89185337000000
H           -2.87119733260000        2.09858159720000        0.87661144540000
H           -1.20589108080000       -3.18768007210000        0.88663215920000
H           -1.21982032550000       -3.17678505510000       -0.90288069810000
H           -2.60531402170000       -2.54255916880000        0.00649952960000
H            1.32879827740000       -2.95942079410000       -0.01653446370000
25
 energy: -59.836492878097 gnorm: 8.292685133170 xtb: 6.6.1 (8d0f1dd)
C            3.21783788688459        1.13596355717253        0.01837631892400
N            2.27047852221834        0.05241714093772        0.00037859869670
C            2.54185153204539       -1.23987650218455       -0.00834177307488
N            1.39355617644507       -1.95096563213103       -0.00850315723991
C            0.35292586507687       -1.06739725503285        0.00059630528883
C            0.90893830106563        0.20251535957195        0.00660142000166
C            0.06620825989058        1.39932033976642       -0.00281361210142
O            0.12836053593830        2.62824303291418       -0.01355550018467
N           -1.27332189970949        1.06264339810504        0.00168877652832
C           -2.22734764462910        2.16873689040000       -0.00245549653337
C           -1.84868188597684       -0.19212855823090        0.00495732065193
O           -3.03283784301187       -0.36106106437788        0.00858558615248
N           -0.96608753444490       -1.30061631860487        0.00174803461480
C           -1.52029641808524       -2.64075325512750       -0.00239051758067
H            3.71479786678232        1.18592804955141        0.98803584034016
H            3.97078497387618        0.99386098095935       -0.75543626866142
H            2.68327138629189        2.07051892924624       -0.15067665857000
H            3.52469802659570       -1.66986768278995       -0.01523613459158
H           -1.31439313403113        3.00187840999659        0.00111907925592
H           -2.85727114182707        2.10610447601324       -0.89202474674892
H           -2.87089978995372        2.09924548916899        0.87680347864252
H           -1.20586434452141       -3.18769015072277        0.88663004375964
H           -1.21979282837772       -3.17679538282858       -0.90287940325787
H           -2.60529922737521       -2.54258467846332        0.00649833093150
H            1.32881587293285       -2.95940103170946       -0.01653424734374
25
 energy: -69.017294066861 gnorm: 9.585512921860 xtb: 6.6.1 (8d0f1dd)
C            3.21776023141935        1.13605018351953        0.01839620863337
N            2.27075363041077        0.05291568674953        0.00036580205746
C            2.54210262421970       -1.24008388501934       -0.00834077986831
N            1.39337178231355       -1.95095610830430       -0.00849954118675
C            0.35288386862107       -1.06725331531432        0.00059281719488
C            0.90991208477659        0.20543212127714        0.00655420059617
C            0.05644915161482        1.40054155939727       -0.00277520917371
O           -0.23032755218017        2.72407345910897       -0.00984598651665
N           -1.27541865253765        1.05719686166887        0.00171896400707
C           -2.22189737398632        2.17123269306795       -0.00245171829561
C           -1.84878457873108       -0.19246536441696        0.00495814604500
O           -3.03301240706945       -0.36122254886875        0.00858502978710
N           -0.96602183532246       -1.30075859595972        0.00174930068574
C           -1.52025116137824       -2.64077773143753       -0.00239171053686
H            3.71479763921621        1.18598545680014        0.98804536915809
H            3.97076918825775        0.99392926406989       -0.75544187120786
H            2.68333842879636        2.07054338842940       -0.15069209166591
H            3.52471198920098       -1.66982446028821       -0.01523463677442
H           -0.95155797620534        2.90327105229088       -0.00263259916038
H           -2.85675762272809        2.10686153152566       -0.89208286687280
H           -2.87037189654840        2.10003929359127        0.87688325418634
H           -1.20582447460435       -3.18770923242228        0.88662825715264
H           -1.21975223465190       -3.17681461819294       -0.90287935602683
H           -2.60527108345659       -2.54260952056898        0.00649680698458
H            1.32882974465290       -2.95935862910319       -0.01653417130237
25
 energy: 219.169196084258 gnorm: 20150.610544489853 xtb: 6.6.1 (8d0f1dd)
C            3.21768286175953        1.13620073258008        0.01843462404227
N            2.27098857082775        0.05396441166700        0.00034219060649
C            2.54261749814014       -1.24069287066524       -0.00834060122669
N            1.39306597987979       -1.95086931519136       -0.00849477850503
C            0.35305638202954       -1.06727361082023        0.00058884871723
C            0.91040225765240        0.20953777034101        0.00651134129282
C            0.04715363168139        1.40049379250101       -0.00273528179528
O           -0.58705421621150        2.81949194054258       -0.00619113108128
N           -1.27792043428103        1.05152383497713        0.00174856217593
C           -2.22079641849962        2.17104505522188       -0.00244316489815
C           -1.84891258696409       -0.19300204327168        0.00495930167245
O           -3.03338924808681       -0.36141552917866        0.00858313066439
N           -0.96624529113302       -1.30096980504304        0.00175014177445
C           -1.52016775603213       -2.64080366522625       -0.00239407666822
H            3.71478685974466        1.18611276987137        0.98806234576631
H            3.97073525109523        0.99406934071311       -0.75544720935633
H            2.68338167942727        2.07059533843467       -0.15071438445966
H            3.52473835671370       -1.66971574835383       -0.01523079842408
H           -0.58564551859567        2.80835667459109       -0.00633861189045
H           -2.85637195482389        2.10747196536757       -0.89224020784825
H           -2.86999264751057        2.10066223991232        0.87705788018742
H           -1.20572109258785       -3.18775216459763        0.88662581059313
H           -1.21964717860743       -3.17685763968635       -0.90288184578022
H           -2.60519316242101       -2.54268251119650        0.00649303989640
H            1.32887969090324       -2.95925242189005       -0.01653350755564
