72
 energy: -99.625638732513 gnorm: 0.133376016205 xtb: 6.6.1 (8d0f1dd)
N           -1.47310948490000        2.74401344020000        2.22063962890000
C           -1.55658908660000        2.16490325710000        1.13274294970000
C           -2.74549250730000        2.05621270340000        0.23826252860000
C           -3.31377614600000        0.64333423480000        0.32332518650000
C           -4.30230235840000        0.24487114700000       -0.58026172470000
C           -4.85238853070000       -1.02286509430000       -0.53363598620000
O           -5.81420080700000       -1.48606061760000       -1.36157907990000
C           -6.39655751930000       -0.60827011470000       -2.29568516900000
C           -4.39972583170000       -1.94646138300000        0.44396937360000
O           -4.98748403830000       -3.16146055820000        0.41085999630000
C           -4.66362214440000       -4.10093903850000        1.40909153890000
C           -3.42072576950000       -1.54561413490000        1.33436571020000
C           -2.88302853110000       -0.26315805280000        1.27400174410000
C           -2.19303838800000        2.30467043070000       -1.18742999140000
C           -1.26651561740000        1.17243391200000       -1.65249460350000
C            0.01082525140000        1.09745474840000       -0.89354820080000
N            0.61779404940000       -0.02034948430000       -0.57705533220000
C            2.00145247490000       -0.02376006830000       -0.15611402500000
C            2.92554988940000       -0.53865292670000       -1.27700112500000
C            4.35756923930000       -0.43050765220000       -0.83075559740000
C            5.07346229610000        0.73206422670000       -1.03980985120000
C            6.38628105150000        0.84224457050000       -0.60344833900000
C            7.00047394670000       -0.20824760200000        0.05722315480000
O            8.26703810540000       -0.21011317000000        0.52410953370000
C            9.06912396130000        0.92943618280000        0.31863063920000
C            6.27040080620000       -1.40439780020000        0.28033471210000
O            6.94830068840000       -2.38012969870000        0.92752016290000
C            6.31537434930000       -3.61583267180000        1.15217733090000
C            4.96302886720000       -1.49347499580000       -0.16064433340000
C           -0.05511212390000       -1.29906271910000       -0.62085697840000
C           -3.86758108790000        3.07992657580000        0.58498071070000
C           -4.49286243030000        2.77383544520000        1.94313325540000
C           -3.39165242810000        4.52917750630000        0.54797533640000
H           -4.66030112940000        0.94509084900000       -1.31640593250000
H           -6.85038055670000        0.25803166980000       -1.80468878800000
H           -7.17287575700000       -1.18600132850000       -2.79318209390000
H           -5.66836922630000       -0.26952971320000       -3.04040311660000
H           -4.88416811300000       -3.71589529470000        2.40913586890000
H           -5.29223668820000       -4.96637550910000        1.20969259350000
H           -3.61139880150000       -4.39919916960000        1.35529382990000
H           -3.07077853590000       -2.21868806880000        2.10002701660000
H           -2.14562794240000        0.02067851080000        2.01001381680000
H           -3.02188931450000        2.38238056520000       -1.88813580090000
H           -1.65198561550000        3.25146761010000       -1.20556306940000
H           -1.81103407850000        0.23006528910000       -1.62116331710000
H           -0.99335706960000        1.37490237710000       -2.69443306970000
H           -0.67628076910000        1.65183917700000        0.61785738610000
H            0.63525852980000        1.98466406620000       -0.92314038320000
H            2.11132591670000       -0.65949705080000        0.72532626690000
H            2.30680515860000        0.98978270070000        0.11078974850000
H            2.76694250160000        0.06750736400000       -2.17075292480000
H            2.67954631090000       -1.57455657020000       -1.51167771570000
H            4.62170084310000        1.56295641050000       -1.56123607970000
H            6.92357803100000        1.75715848550000       -0.79119611400000
H            8.65159273530000        1.81001856910000        0.81701570320000
H            9.20136341880000        1.14042878990000       -0.74699005810000
H           10.03429024200000        0.69003252980000        0.76064952080000
H            7.05567305890000       -4.23621250400000        1.65347596620000
H            5.43848101970000       -3.50813623270000        1.79970599180000
H            6.02060153620000       -4.09420573090000        0.21253286580000
H            4.40102840160000       -2.40127310930000       -0.00490198340000
H           -0.22071303810000       -1.61775613620000       -1.65116039620000
H           -1.01972276930000       -1.24102740460000       -0.10935208860000
H            0.55899964520000       -2.04486123870000       -0.12333732710000
H           -4.63991961830000        2.95501147630000       -0.18098091430000
H           -3.76095286260000        2.90314758830000        2.73380871780000
H           -4.87457704480000        1.75695674120000        1.97884639820000
H           -5.31925651250000        3.45579274450000        2.12325603650000
H           -2.60025638380000        4.69225133210000        1.27368941860000
H           -3.03987462820000        4.81897741740000       -0.43870983200000
H           -4.22191819010000        5.18069744220000        0.80616708920000
H           -0.59832444890000        2.77744746490000        2.72959035090000
72
 energy: -99.655691562880 gnorm: 0.063907024012 xtb: 6.6.1 (8d0f1dd)
N           -1.48062096933271        2.76658682723228        2.24838782663159
C           -1.54614841819194        2.13556134860204        1.16982192535232
C           -2.72325832565859        2.04438577016862        0.25203947758617
C           -3.30308185317582        0.63768243986619        0.33282704118015
C           -4.28912046620020        0.23840601538853       -0.57215415658342
C           -4.84403791524807       -1.02656863525835       -0.52465403736641
O           -5.80980976722749       -1.49139875049892       -1.35781247976531
C           -6.37740984552994       -0.61322940938020       -2.29822049648601
C           -4.40192894519337       -1.94732653220250        0.45574999874356
O           -5.00032134684115       -3.16497391526870        0.42379974863349
C           -4.68090082915768       -4.09983300475923        1.42511180479917
C           -3.42690248831966       -1.54833031236592        1.34969898359139
C           -2.88382310974539       -0.26864982933530        1.28825037994454
C           -2.14728052612575        2.29537094893975       -1.16364262456102
C           -1.26836877086983        1.16125109540961       -1.69379654322338
C           -0.00118146151235        1.10799964632441       -0.91693548733542
N            0.61706150370975       -0.04740705660062       -0.56977641589399
C            1.98952239778760       -0.03246238772543       -0.15808897673218
C            2.91893984181482       -0.52292459869659       -1.28479414173782
C            4.34524559342694       -0.41590150830505       -0.84294569601005
C            5.05931200074346        0.75093555516433       -1.03790316136399
C            6.36942302694519        0.85956494725159       -0.59605396125408
C            6.98217361236903       -0.19530723460694        0.05856959214780
O            8.25661530698140       -0.20198126760225        0.52698642682724
C            9.05377602994467        0.93867247088673        0.32426257748188
C            6.25282165165524       -1.39005065366844        0.27485255967837
O            6.93315908171232       -2.37290293054721        0.92062307523921
C            6.29551496949807       -3.60617061956015        1.13806318991999
C            4.94895074013445       -1.47943801027094       -0.17146302741018
C           -0.06271859360744       -1.31396723954478       -0.62227697695132
C           -3.84668141086689        3.07049694553754        0.57163668154334
C           -4.48704000990914        2.77408796907887        1.92451283315167
C           -3.36214119665591        4.51749403506356        0.54015698796342
H           -4.63635635470386        0.93632078717730       -1.31584874370568
H           -6.82813444512207        0.25912239272541       -1.81424620036711
H           -7.15406623360007       -1.18821908034735       -2.79945787211009
H           -5.64122876729925       -0.28102369468843       -3.03799992633901
H           -4.90112319846552       -3.71062165763833        2.42423969505725
H           -5.31246523593945       -4.96393853613239        1.22697858178297
H           -3.62928904068569       -4.40155007677231        1.37538110899741
H           -3.08004527495892       -2.22318885298360        2.11620790137358
H           -2.14117418796316        0.01194905962729        2.01913013993503
H           -2.96360685368939        2.43138921809207       -1.87017459862396
H           -1.52977328315371        3.20476837978730       -1.12770546212441
H           -1.82017286419745        0.22300596617983       -1.64691789124840
H           -1.03755257849655        1.37222755957909       -2.74728974238653
H           -0.66780236085002        1.62647484669677        0.67212209341734
H            0.63923477984762        1.97664510793767       -0.99491933895221
H            2.10730128906277       -0.66606737964132        0.72450055933915
H            2.27374458445095        0.98788110655387        0.11160021530316
H            2.74871111163427        0.09472327716817       -2.16840144668864
H            2.66854409831866       -1.55538857783100       -1.52827160504313
H            4.60477276677976        1.58525213506165       -1.55115694327848
H            6.90736741302992        1.77605228339440       -0.77745058178391
H            8.63585130319004        1.81741614030066        0.82648867505822
H            9.18342991389567        1.15563789766180       -0.74106644425332
H           10.02012087643169        0.69800782430209        0.76356683811170
H            7.03393861851672       -4.23061464050480        1.63800288130044
H            5.41708608867201       -3.49930730398635        1.78382885340782
H            5.99941872356087       -4.08026518015781        0.19622876141749
H            4.38372402877536       -2.38586808456141       -0.01785964218144
H           -0.21815778661511       -1.63592389471877       -1.65613792816855
H           -1.03573439294157       -1.24802974989097       -0.12702077336563
H            0.54092786088913       -2.05776974415196       -0.11078484110355
H           -4.61266604182779        2.95153210594431       -0.20314316670778
H           -3.75528622652124        2.89823481024984        2.71626057634137
H           -4.87186365321240        1.75789740808066        1.95685565724317
H           -5.31151045825331        3.46184905744926        2.09717237800961
H           -2.57652412182074        4.67192041774873        1.27380140847430
H           -2.99300012975759        4.80020104812736       -0.44243326552017
H           -4.19147611372313        5.17681453472191        0.78623238144672
H           -0.60300495971041        2.77207367792276        2.75734151699411
72
 energy: -99.701447705059 gnorm: 0.076448011162 xtb: 6.6.1 (8d0f1dd)
N           -1.49111288819326        2.79681719204267        2.28066478557595
C           -1.52019013860481        2.09523217240134        1.21938401203797
C           -2.68363750739171        2.02140884872239        0.27030625634239
C           -3.27981928473451        0.62359545282247        0.34444123515491
C           -4.26451010584855        0.22582018231502       -0.56129886667087
C           -4.82958374375007       -1.03342512253983       -0.50948171683231
O           -5.80171818231761       -1.49950897647632       -1.35046976988688
C           -6.34360314039344       -0.62159737215697       -2.30244471525517
C           -4.40584554985826       -1.94940661590809        0.47636845763951
O           -5.02247764692487       -3.16979225428094        0.44723851438950
C           -4.71095618791051       -4.09735784635304        1.45316966388828
C           -3.43604373890984       -1.55558315808827        1.37612820350661
C           -2.88131210118824       -0.28240728578320        1.31014183416876
C           -2.07269028439067        2.28763138637363       -1.12830615358382
C           -1.27542883500673        1.13581184812967       -1.74188839761214
C           -0.01580335366027        1.11120673549632       -0.96159152798682
N            0.60858532163242       -0.08635114493198       -0.55904993005487
C            1.96488105441422       -0.03951368945405       -0.16110071032217
C            2.90398998658744       -0.49352056918943       -1.29665845976207
C            4.32150887203061       -0.38815140570232       -0.85772186887921
C            5.03394703187003        0.78350758439797       -1.03277031111066
C            6.34111576953339        0.88925545610582       -0.58382339661437
C            6.95016040491560       -0.17285701400096        0.05982016806584
O            8.23536852805657       -0.18698923798148        0.53050522527134
C            9.02579613281058        0.95484845328877        0.33387094113940
C            6.22245238504180       -1.36516824810965        0.26455468172777
O            6.90539133969531       -2.35956066338193        0.90716191734103
C            6.26037388227400       -3.58887252341287        1.11313929922294
C            4.92270197957131       -1.45401624337747       -0.18879914650740
C           -0.07972254686218       -1.33446880508566       -0.62780559820129
C           -3.80556679946704        3.05359895982554        0.55100470610959
C           -4.47592103346768        2.77284436444419        1.89294114611678
C           -3.30873203985492        4.49764776702479        0.52528993019366
H           -4.59466083634213        0.92136817672616       -1.31584120465478
H           -6.79015888965834        0.26091892840707       -1.83144276347078
H           -7.12064897965200       -1.19164056538170       -2.81018796267281
H           -5.59400128372773       -0.30147550630803       -3.03445661918164
H           -4.93123242134857       -3.70210733595498        2.45089690168527
H           -5.34763531190944       -4.95901683150537        1.25741146244225
H           -3.66072287553267       -4.40641018875113        1.41048564872693
H           -3.09715760645895       -2.23167215461421        2.14620601606819
H           -2.13475514932157       -0.00547954518787        2.03748081226925
H           -2.86663442840368        2.53478039313124       -1.83830413122010
H           -1.32511130239706        3.12717359130302       -0.99582064730188
H           -1.83801109396929        0.20404275280501       -1.68310233887764
H           -1.10739514504730        1.36347199716171       -2.81028548532478
H           -0.65133762679968        1.57719344930105        0.76191173519619
H            0.64900387225622        1.94926712013469       -1.10547560682869
H            2.10150910008238       -0.67457823954929        0.72013584314683
H            2.21907562325015        0.98905407777927        0.11745297958293
H            2.71743166559848        0.14342192036955       -2.16382873278378
H            2.64859797755881       -1.52060260008901       -1.55887519590860
H            4.57530230949470        1.62297424096007       -1.53393321217370
H            6.87916188116760        1.80883097857998       -0.75323265798096
H            8.60886869973749        1.83060736471085        0.84349300533413
H            9.15254289987029        1.18244546973386       -0.73053458078831
H            9.99417309074560        0.71180136260844        0.76836597751404
H            6.99553568814955       -4.22016317133624        1.61054761427695
H            5.37992862254456       -3.48401296183150        1.75679518128159
H            5.96292919480346       -4.05637695834213        0.16774211238821
H            4.35250589743705       -2.35869403433470       -0.04126431233415
H           -0.21328209838480       -1.66687112831369       -1.66572024614663
H           -1.06686666598089       -1.26065491245503       -0.16077530567422
H            0.50648329819525       -2.07478660403309       -0.09045965484390
H           -4.55840938620598        2.94183315734372       -0.23983872149355
H           -3.74858886869628        2.89004252222763        2.68940024274546
H           -4.86907112037260        1.75926816057705        1.92045854838222
H           -5.29571083796054        3.47102084056730        2.05019892777186
H           -2.53595540842363        4.63997038401199        1.27462997440778
H           -2.91078813527813        4.76882256360520       -0.45005820671199
H           -4.13691774527688        5.16810263330588        0.75010309226318
H           -0.60769578253976        2.75674513266093        2.78928783907616
72
 energy: -99.749795392657 gnorm: 0.145323876855 xtb: 6.6.1 (8d0f1dd)
N           -1.50280083941379        2.81753508841082        2.31374889103937
C           -1.48995997279418        2.05961719295004        1.26627483730319
C           -2.64195084976538        1.99739687864132        0.28787243435011
C           -3.25321081829644        0.60779882325261        0.35515224662779
C           -4.23743053506798        0.21227601974449       -0.55110022348691
C           -4.81399727923867       -1.04065072580005       -0.49360637368407
O           -5.79295771098908       -1.50731961355184       -1.34229270458913
C           -6.30754998549344       -0.63045249380930       -2.30675986451417
C           -4.40994539065607       -1.95147805776761        0.49830858205888
O           -5.04562121544562       -3.17417025514857        0.47246785767716
C           -4.74284875801968       -4.09430054058026        1.48294117883310
C           -3.44494535662655       -1.56380617423961        1.40415311984192
C           -2.87701167448539       -0.29805649022629        1.33232679452123
C           -1.99321687460296        2.28199643870083       -1.09175131987866
C           -1.28394698498194        1.10985061586823       -1.78712826515400
C           -0.02839767017984        1.11024324228529       -1.01498229668365
N            0.59724290519679       -0.12615504672234       -0.54827621286072
C            1.93770838036293       -0.04444603643623       -0.16397672795865
C            2.88695299539151       -0.46127460296467       -1.30896182277519
C            4.29555459570927       -0.35785600949973       -0.87117876349851
C            5.00681823522780        0.81816388124361       -1.02670572305662
C            6.31128968328210        0.92079647860846       -0.57107873130333
C            6.91594563163023       -0.14918027347644        0.06081468748047
O            8.21171032796659       -0.17073159836662        0.53389217557868
C            8.99569016398559        0.97186547416793        0.34406363021540
C            6.19017811825191       -1.33902451845520        0.25350023400935
O            6.87525966082002       -2.34530815109057        0.89255514992627
C            6.22293200880679       -3.57044148156072        1.08676447999605
C            4.89411537481760       -1.42701701297869       -0.20631459269198
C           -0.09874334240784       -1.35523772289434       -0.63468656014107
C           -3.76109466687891        3.03584032717886        0.53040156079356
C           -4.46382290378489        2.77119912488689        1.85988027552353
C           -3.25150966142760        4.47688091762226        0.50926712531943
H           -4.55048347663868        0.90575509781802       -1.31592573952059
H           -6.75020206604843        0.26265941080304       -1.84999714008143
H           -7.08483832539168       -1.19526594209981       -2.82144299137220
H           -5.54405129842899       -0.32344638154205       -3.03079659080507
H           -4.96349561378331       -3.69327732680484        2.47930928562281
H           -5.38495195249360       -4.95333765769726        1.28972914707985
H           -3.69424963312693       -4.41178083483473        1.44790093821671
H           -3.11559842731275       -2.24042555441661        2.17877506162765
H           -2.12813610944297       -0.02452090093101        2.05792032662560
H           -2.75885982861616        2.64553968041630       -1.80009964461962
H           -1.11972117227434        3.04326536767427       -0.86242298625748
H           -1.85750075240997        0.18497235123949       -1.71885728833553
H           -1.17930589579876        1.35392985448214       -2.86879994609746
H           -0.63381276692288        1.52660804286430        0.85800475555289
H            0.66016764647541        1.91475793650879       -1.21783267835540
H            2.09612440681372       -0.68266381579748        0.71459075298605
H            2.16223582644792        0.99125746268625        0.12516791714998
H            2.68466962152312        0.19557543118508       -2.15900781218137
H            2.62699188820213       -1.48273128265124       -1.59186886339031
H            4.54406832311340        1.66270449800169       -1.51587223314896
H            6.84908208712757        1.84350979505502       -0.72782828740572
H            8.58055029271936        1.84463790326893        0.86172480613541
H            9.11998164262681        1.21082632414369       -0.71919747857626
H            9.96625143669441        0.72625258219281        0.77342407338818
H            6.95466515266979       -4.20885093084915        1.58144539228870
H            5.34056493478184       -3.46791850016192        1.72852096782152
H            5.92442431870805       -4.03132501644739        0.13771710233609
H            4.31893806374365       -2.33007174082580       -0.06617007514594
H           -0.20772552245818       -1.69964197293599       -1.67596696086808
H           -1.10032317917640       -1.27432013461519       -0.19762292882200
H            0.46861669134384       -2.09202766761651       -0.06946162652944
H           -4.49882978176110        2.93000561109338       -0.27780194686919
H           -3.74296952406108        2.88175916877822        2.66258545760452
H           -4.86662805922449        1.76091387006010        1.88218317461020
H           -5.27801802716529        3.48037438217691        1.99971315502839
H           -2.49356104820030        4.60810494529330        1.27564923523471
H           -2.82366762163553        4.73589814699618       -0.45794932140951
H           -4.07843371256728        5.15804694137315        0.71122617478572
H           -0.61050572804171        2.73898986532306        2.81623647367562
72
 energy: -99.799145432422 gnorm: 0.211199713734 xtb: 6.6.1 (8d0f1dd)
N           -1.52243654430678        2.82827396061512        2.34122887556781
C           -1.45218384916322        2.03864331575621        1.30398834615799
C           -2.60208123968408        1.97390124186321        0.30130452221788
C           -3.22478001901357        0.59134208468018        0.36272484502736
C           -4.21109424378989        0.19904408881235       -0.54240426448139
C           -4.79826407496129       -1.04759721972103       -0.47759155287223
O           -5.78587181081931       -1.51428053151757       -1.33429101756753
C           -6.27218186453296       -0.63944560455101       -2.31015935013801
C           -4.41377675486137       -1.95232118872394        0.51930481768094
O           -5.06843738406401       -3.17867592571816        0.49715641442991
C           -4.77338458887179       -4.09031406658210        1.51081151847083
C           -3.45288734321187       -1.57261234920115        1.43187124221486
C           -2.87165795579158       -0.31536948479948        1.35269827889345
C           -1.91432899025523        2.28160873743934       -1.05975532887298
C           -1.29491038387494        1.08525334898726       -1.82033206613045
C           -0.03532251899412        1.10515308596287       -1.08517568633067
N            0.58127936636800       -0.16310199506826       -0.53310560070202
C            1.90692164911058       -0.04261217689558       -0.16759124786011
C            2.86951288962475       -0.42837379338264       -1.32001729056752
C            4.26912316787564       -0.32753937272386       -0.88077302472563
C            4.98087589152339        0.85085500236785       -1.02041998906103
C            6.28350039317452        0.95095686300575       -0.55914121615550
C            6.88154556050278       -0.12680161186098        0.06081371260519
O            8.18837208005421       -0.15458719611712        0.53681879389427
C            8.96559067569829        0.98747387389348        0.35383780038588
C            6.15924003556736       -1.31311324215732        0.24222852553773
O            6.84601152378499       -2.33196420607671        0.87833156354475
C            6.18679531815846       -3.55195812425621        1.06131386278414
C            4.86558189548474       -1.40071385808746       -0.22240295952990
C           -0.11915852988924       -1.37061822260907       -0.64327510744261
C           -3.71566254160268        3.01775139263033        0.51192927782880
C           -4.45180679551375        2.76892974574482        1.82780414358605
C           -3.19573768173734        4.45723640109304        0.49280963149639
H           -4.50826615787850        0.89118926262218       -1.31563992437538
H           -6.71212170876034        0.26377511531001       -1.86817982509361
H           -7.04975330715001       -1.19849435553938       -2.83227615804103
H           -5.49616530444268       -0.34500841919011       -3.02692470568777
H           -4.99479287075041       -3.68524218038243        2.50658879346371
H           -5.42043136642486       -4.94744661383132        1.32095463130665
H           -3.72653110521963       -4.41725982772900        1.48400278988187
H           -3.13347787432265       -2.24879788836159        2.21102845315061
H           -2.12250744830572       -0.04373853882318        2.07893449403690
H           -2.64068621868888        2.76075838663651       -1.75241830905373
H           -0.92770100184207        2.94739691722035       -0.73317874702307
H           -1.87426139921283        0.16507266786784       -1.75325297669027
H           -1.25276908190754        1.34523285117950       -2.91189038581404
H           -0.62117409265125        1.47965729285869        0.96439929017930
H            0.67215462649374        1.87025337208091       -1.32377993259812
H            2.09384331705632       -0.68823626428107        0.70649141946803
H            2.10764663007619        0.99607915772347        0.13540696837800
H            2.65301096846403        0.24631498828112       -2.15372238504531
H            2.60480540968798       -1.44461946574833       -1.62480038457314
H            4.51362631521448        1.69972477369896       -1.49860252178260
H            6.81987774312894        1.87678697348453       -0.70321121735870
H            8.55385553810996        1.85815683043424        0.87943975552295
H            9.08895875420080        1.23815770663621       -0.70809095166103
H            9.93892254025542        0.74026884796343        0.77791450694305
H            6.91497557632313       -4.19761691161646        1.55324885321111
H            5.30277668462904       -3.45254187606000        1.70174554811510
H            5.88779020448137       -4.00743779638379        0.10900084890794
H            4.28553048331963       -2.30217540346188       -0.09078202339156
H           -0.20174732489681       -1.73072010869772       -1.68583039914044
H           -1.13298423071416       -1.28817354515405       -0.23487502927775
H            0.42942725357185       -2.10528060793748       -0.04978516741825
H           -4.43743257327507        2.91600713376927       -0.31350603131522
H           -3.73889790092366        2.87434272434480        2.63697289395344
H           -4.86517839776703        1.76277739418363        1.84541454165710
H           -5.25872353977411        3.48852493508058        1.94996190758138
H           -2.45445092096554        4.57845991023308        1.27648765820800
H           -2.73986691544124        4.70433209172015       -0.46512677374057
H           -4.02071007152793        5.14668437748013        0.67310993967843
H           -0.61305816325427        2.71770582678560        2.82671682234836
72
 energy: -99.848279450879 gnorm: 0.266818065881 xtb: 6.6.1 (8d0f1dd)
N           -1.54895265428947        2.82236498672296        2.35700991119896
C           -1.40616660817705        2.03916219667052        1.33176054594976
C           -2.56887681299095        1.95287474349249        0.30848057691129
C           -3.19796977537642        0.57585647559784        0.36796730774425
C           -4.18791905226924        0.18761634425215       -0.53654969137354
C           -4.78348579621402       -1.05367531409211       -0.46256423315895
O           -5.78018670423092       -1.51823676511148       -1.32792465164717
C           -6.23906924396022       -0.64795748026763       -2.31239701414972
C           -4.41778147846219       -1.95102898287187        0.53808828024826
O           -5.08774693882578       -3.18240110948129        0.51975347616376
C           -4.80069026469353       -4.08496658627025        1.53446661345380
C           -3.45870931798864       -1.58142073925420        1.45799092509115
C           -2.86568518093831       -0.33344578079067        1.37032898107948
C           -1.84294273936125        2.29132640915631       -1.03876236059361
C           -1.30781776772997        1.07123328324224       -1.83381168005413
C           -0.02907552772303        1.08916644792561       -1.18284831932933
N            0.55477953633939       -0.18786028269402       -0.51282909815110
C            1.87247409663202       -0.03085357662490       -0.17255425605629
C            2.85129552686375       -0.39722721752101       -1.33070732788067