25
 energy: 0.000000000000 xtb: 6.6.1 (8d0f1dd)
C            3.23720132972391        1.16630909158653        0.08434468864950
N            2.29877796055224        0.07527476373246        0.03981602671198
C            2.58028186251803       -1.21425391179017        0.03006175752192
N            1.43813944744728       -1.93419254010258        0.00098261751768
C            0.39035684826767       -1.05887462812143       -0.00790371763344
C            0.93510047688824        0.21347817468824        0.01709077332874
C            0.09450143016486        1.40504290868848       -0.00410946993748
O            0.49712746915594        2.54126690785742       -0.00342325656480
N           -1.25076628431515        1.06271869620815       -0.03085477937476
C           -2.21907191394203        2.15522079838987       -0.05001256521996
C           -1.81739470187490       -0.20012724136556       -0.04692818139228
O           -2.99983858926755       -0.37846413507442       -0.07008877579474
N           -0.92618577614240       -1.30210203518959       -0.03682761236648
C           -1.46982251276835       -2.64643077634382       -0.06029819901142
H            3.71247229913541        1.21471443890471        1.06488839270555
H            4.00791460421487        1.03430799217987       -0.67357688121503
H            2.69909982127087        2.09770098766290       -0.09130154035862
H            3.56654087521359       -1.63682977417947        0.04233139674524
H           -1.67107945562430        3.09322822573871       -0.02552706696334
H           -2.82428927394145        2.09428605349656       -0.95318074103337
H           -2.87644002486466        2.07745706351925        0.81450059976605
H           -1.17061985538665       -3.19584861009707        0.83242224714061
H           -1.14560246782873       -3.17511580834413       -0.95688266944647
H           -2.55549768731684       -2.55659960601237       -0.07459039105944
H            1.38130842369251       -2.94313824728853       -0.01389874052104
25
 energy: -3.060408284786 xtb: 6.6.1 (8d0f1dd)
C            3.24936169932345        1.18766267564546        0.08910825898046
N            2.31275843279316        0.10391920322886        0.04126025954828
C            2.60737258113669       -1.22196540481555        0.03444402322754
N            1.43682508431991       -1.93421244279775        0.00489779512068
C            0.39589072544986       -1.05746629208519       -0.00732250997286
C            0.93360599601546        0.22393727401851        0.01757344590132
C            0.10983884512349        1.39950689153102       -0.00405200561467
O            0.50888374199264        2.56454525661105       -0.00310732505229
N           -1.25154862089413        1.05570568013431       -0.03284763016398
C           -2.20904899388269        2.15395906597483       -0.05681336495954
C           -1.81987307921644       -0.19411788956009       -0.04639489991658
O           -3.01667560782795       -0.36971430158369       -0.07467566607393
N           -0.94357589532469       -1.30370219508864       -0.03287227547848
C           -1.51313135387992       -2.64520894268535       -0.05281382246905
H            3.74013962424514        1.22739487349544        1.06545115129725
H            4.01100923261945        1.06182393572117       -0.68224182097329
H            2.70273759154747        2.11473673556163       -0.07285405659701
H            3.58869210420293       -1.64204489176874        0.05020879685213
H           -1.64795932048985        3.08563212096436       -0.03246843822584
H           -2.81149597375231        2.09846853901844       -0.96291703120570
H           -2.86882085663049        2.08505526954402        0.80729188754267
H           -1.12702659328294       -3.22552415220281        0.78504900910876
H           -1.22725049959748       -3.15269976336582       -0.95266168034610
H           -2.62816952526109       -2.68864931358564       -0.04722661493086
H            1.37967496624279       -2.93801314316577       -0.00698157340435
25
 energy: 6.137715466617 xtb: 6.6.1 (8d0f1dd)
C            3.26311859948972        1.21535959512873        0.09675403682743
N            2.32537231796679        0.13714136074496        0.04523231446689
C            2.63515784080329       -1.22248395350911        0.04538447984677
N            1.43820625207420       -1.92576712456410        0.01508309280625
C            0.39702531570082       -1.06174415105119       -0.00199648747004
C            0.92747542896340        0.23308914490187        0.02006104008229
C            0.13259313428067        1.38740676729098       -0.00354233677796
O            0.51785382731715        2.57462917317312       -0.00230273806717
N           -1.25105729885903        1.04934393863953       -0.03754092542645
C           -2.18870899550692        2.15889165149755       -0.07213670778490
C           -1.81828535055720       -0.18620247090495       -0.04618374978427
O           -3.02387242588782       -0.35379700640590       -0.08556030619174
N           -0.97247754098875       -1.31096364891309       -0.02045113229678
C           -1.57827287498641       -2.65314300877652       -0.04098924367971
H            3.78858338006504        1.24298376476299        1.05999921804106
H            4.00911417911548        1.11391733299906       -0.69854347937297
H            2.70983433933682        2.14392746339424       -0.03282863455070
H            3.61410503264640       -1.63389190821872        0.06779178555755
H           -1.60703220993723        3.07969572298231       -0.04810781736016
H           -2.78540868154504        2.10978073436383       -0.98291625375787
H           -2.85417418124665        2.10415380558091        0.78911119185242
H           -1.03893061237437       -3.28672092568546        0.69715113063655
H           -1.39266159574077       -3.10948529284578       -0.98280546353249
H           -2.72945056876186       -2.89035418295388        0.03821890932300
H            1.39410699360468       -2.92673799288732        0.00815198880753
25
 energy: 22.029560155464 xtb: 6.6.1 (8d0f1dd)
C            3.27212966223208        1.24222106696195        0.10262539119582
N            2.33527884484682        0.16211483732207        0.05183258117200
C            2.65743957732483       -1.21543772643717        0.05989291313430
N            1.45071912218845       -1.91674201671359        0.03254446329624
C            0.39890994067155       -1.07401968387057        0.01489103917017
C            0.92422747424300        0.23447434725226        0.02700255038961
C            0.15218348159911        1.38095489118766       -0.00223990455127
O            0.52407398032071        2.57870325928129       -0.00303977018063
N           -1.24748022785585        1.04677110902431       -0.04319014263285
C           -2.16654947257376        2.16669688536724       -0.09324233655187
C           -1.81266944868009       -0.18402412385772       -0.04348067872290
O           -3.02271023238190       -0.34353827215584       -0.09783978486620
N           -0.99502200252190       -1.32723521776831        0.00885562332105
C           -1.64198705066427       -2.67461173255810       -0.02691288196683
H            3.83838331832069        1.25405200443430        1.04739738836779
H            3.99714432540122        1.17401718934132       -0.72093882039423
H            2.71413624923625        2.17566495441534        0.01558757614556
H            3.63964071738597       -1.61399820193634        0.08945023712944
H           -1.56588412836998        3.07653509579958       -0.07031699397534
H           -2.75530192524269        2.12180881899878       -1.00938708036437
H           -2.83862689282982        2.12817241978481        0.76384821899297
H           -0.95078464443012       -3.36772087335771        0.57705190463939
H           -1.60999205311331       -3.04634279292842       -1.04247869881911
H           -2.81440828746159       -3.07120454196842        0.15835841140042
H            1.42936397732700       -2.91828290687466        0.03076270686537
25
 energy: 39.068607437249 xtb: 6.6.1 (8d0f1dd)
C            3.27864283547751        1.26603763257939        0.10329470533007
N            2.34515316703560        0.17848478917776        0.05854440673164
C            2.67577552896930       -1.20158698182565        0.07347768298473
N            1.47457620162080       -1.90643366368766        0.05561045866455
C            0.40496611157801       -1.08990984142331        0.04500504750131
C            0.92690857559067        0.23045729451598        0.03799247967423
C            0.16871992739425        1.38105153548188       -0.00026334203861
O            0.52854566473867        2.57744315273363       -0.00369200437155
N           -1.24027159670939        1.04706553899527       -0.04850242841861
C           -2.14614370481681        2.17363944140305       -0.11301475778707
C           -1.80128285962348       -0.18715828106215       -0.04192343013620
O           -3.01103535008958       -0.34081700265284       -0.11145773809440
N           -1.00663611199444       -1.34836110950358        0.05399428005273
C           -1.69941997139730       -2.70320036323387       -0.01383724562779
H            3.88500838494021        1.26076893386012        1.02592474533211
H            3.97838288763392        1.23379425275287       -0.74869593333404
H            2.71726219579814        2.20420562072556        0.06180191078520
H            3.66521993140713       -1.58509987665616        0.10765107961935
H           -1.53222315567868        3.07484026113126       -0.09112796272200
H           -2.72746580320289        2.13143101403816       -1.03348537917620
H           -2.82352842840586        2.14992585877978        0.74002153181774
H           -0.91380550811802       -3.43622893597449        0.43625657645194
H           -1.83436329337747       -2.97043070787224       -1.07647273768140
H           -2.88259362003743       -3.24001016728041        0.25370878574802
H            1.48182229623952       -2.91087960625827        0.05622318088878
25
 energy: 51.482678827155 xtb: 6.6.1 (8d0f1dd)
C            3.28209061375257        1.27839985466525        0.09960282839792
N            2.35215265804866        0.17860470687537        0.06298731616419
C            2.68021501183479       -1.18148123647656        0.08189877278568
N            1.50373252613962       -1.89386786716236        0.07665597233127
C            0.41153082990453       -1.10380458630514        0.07755104911087
C            0.93582250204185        0.22237397663497        0.04820763549001
C            0.17885968232517        1.39025655505479        0.00070369732425
O            0.53039123290009        2.56858821231598       -0.00295091441958
N           -1.22971246633851        1.05218580977164       -0.05242988962736
C           -2.13174921914916        2.17917035636858       -0.12557366947362
C           -1.78742999964581       -0.19401172808816       -0.04474051866356
O           -2.99026928954337       -0.34414431150691       -0.12678531302059
N           -1.00532236169725       -1.36746629310731        0.10218011667123
C           -1.73679638335188       -2.73512040851137       -0.00457711270959
H            3.91567204830634        1.25959501429854        1.00012802353586
H            3.95790894505489        1.27620703586884       -0.77075265998720
H            2.72301743312687        2.21982085931641        0.09415608445281
H            3.67996381882876       -1.55321751013394        0.11909621564107
H           -1.51395575691052        3.07612410640394       -0.10388886622292
H           -2.70832485272060        2.13795548165572       -1.04792321916885
H           -2.81121377634122        2.16446012459523        0.72462883313382
H           -0.93127549876649       -3.45490794585232        0.28791614011257
H           -2.00932214581734       -2.88723819768036       -1.04750417536362
H           -2.92270926396869       -3.39620413934893        0.30230196639084
H            1.53893801695901       -2.90324908090778        0.07614559930898
25
 energy: 63.160686463541 xtb: 6.6.1 (8d0f1dd)
C            3.28319936055028        1.27728637354266        0.09618303673707
N            2.35704763154535        0.16963968538485        0.06687074827129
C            2.67568764556657       -1.16189945338129        0.08956279266227
N            1.52669797275057       -1.88544536264372        0.09838965314318
C            0.41909980727470       -1.10541856720187        0.10305710222601
C            0.94691576166587        0.21974641351681        0.05811256179334
C            0.18390492232818        1.39864332066449        0.00269794022315
O            0.53745900847540        2.56319785237418       -0.00923191737168
N           -1.21632504036353        1.05358084334974       -0.05008044627170
C           -2.12640057544979        2.17636209056472       -0.13872185961179
C           -1.77577399907388       -0.20096486876244       -0.03258824741385
O           -2.97210829499072       -0.35175481188244       -0.14331993235684
N           -0.99098867448149       -1.36990524543652        0.14958694427227
C           -1.74887169493571       -2.74813733754720        0.00416606200007
H            3.92078752392805        1.24987242696049        0.98354369274425
H            3.94093757530050        1.27968703230063       -0.77807642912479
H            2.72686644248753        2.21374434425262        0.10112292889144
H            3.68093587909767       -1.53003479325723        0.13187602311960
H           -1.51814406455221        3.07876324875483       -0.12044003451948
H           -2.70025346133565        2.13045357049234       -1.06222589097324
H           -2.80858789137447        2.16838605472719        0.70907472703059
H           -0.89449581830031       -3.46947307001786        0.10540808409772
H           -2.16420512777825       -2.74388968493649       -0.99921970950475
H           -2.94652530792341       -3.52789657122586        0.36123557498722
H            1.57535472456111       -2.89551470184853        0.10005050714318
25
 energy: 74.623668542034 xtb: 6.6.1 (8d0f1dd)
C            3.28348727279207        1.27059063777909        0.09390280717938
N            2.36052807119044        0.15459370375734        0.06729206125699
C            2.66579074930485       -1.14126267324810        0.08913122583182
N            1.54503387146210       -1.88220523562195        0.11328190742520
C            0.42862560653188       -1.09768223486793        0.11117579001029
C            0.95982143418105        0.22191773757644        0.06530298386252
C            0.18098684716810        1.40474898332355        0.00667625961206
O            0.54602067668618        2.56089730636411       -0.01621634986756
N           -1.19990921147686        1.05060197227108       -0.04268553977943
C           -2.12537551915650        2.16764819999705       -0.14124977066502
C           -1.76264779545006       -0.21169929727081       -0.02864420766027
O           -2.95064449462246       -0.36488294640719       -0.16056594332428
N           -0.95810342199732       -1.36310367217100        0.16936145044492
C           -1.72800555700868       -2.75004993945926        0.00971405587184
H            3.91778622702856        1.23652866839680        0.97568702238474
H            3.92806670080572        1.26650181139606       -0.78189955182399
H            2.72488951550267        2.20092636038672        0.09927435430465
H            3.67336536508377       -1.51539761203651        0.13422476402722
H           -1.53250636500408        3.08145758765948       -0.12554967259110
H           -2.69882566250545        2.11622448680648       -1.06508670854601
H           -2.80990797252001        2.15927331510020        0.70468635235478
H           -0.90913566526526       -3.41826036504866       -0.06095304112350
H           -2.26835752833785       -2.61174762700651       -0.86412815914451
H           -2.94858063657501       -3.65627536690469        0.36014118747495
H            1.58981179715446       -2.89031501202771        0.11416063467888
25
 energy: 87.841432281663 xtb: 6.6.1 (8d0f1dd)
C            3.28834915038999        1.27193391805044        0.09590968850361
N            2.36838878808558        0.15170947293676        0.07021072692253
C            2.66893557037432       -1.12406469861922        0.09522671286234
N            1.56197131178261       -1.88180263643045        0.13295573971563
C            0.44271214919141       -1.08533083546167        0.11807140508614
C            0.97261729962653        0.23086040538058        0.07385913475256
C            0.18067909925784        1.40808681332321        0.00813162529613
O            0.56097912672287        2.56757422344538       -0.02993019834987
N           -1.18173237568356        1.04848556481479       -0.03686592948763
C           -2.12129988695097        2.16072686346805       -0.15039266849071
C           -1.74426301158377       -0.21874779313926       -0.02301989530582
O           -2.92734992730973       -0.37258496470168       -0.17495164648639
N           -0.91995580057173       -1.35191190388955        0.18851773165786
C           -1.71077979625667       -2.74385002079471        0.03048072308093
H            3.92174830816003        1.23137707955187        0.97585137705142
H            3.92258203676645        1.25876515001200       -0.78474154423882
H            2.72226168885475        2.19599905921341        0.10044498501786
H            3.67570098685787       -1.50484211560146        0.14381288118000
H           -1.54250759805062        3.08623903558171       -0.13880615847377
H           -2.69254494885956        2.10023210094639       -1.07591879486892
H           -2.81022409871319        2.15206642805969        0.69247347247506
H           -0.86664458255604       -3.40724672286124       -0.27983826151876
H           -2.46481328031255       -2.42625715989807       -0.72805108283664
H           -2.99000849998955       -3.87223856773186        0.39011974338067
H            1.59741259574000       -2.88614990691094        0.13348414526913
25
 energy: 96.461871285474 xtb: 6.6.1 (8d0f1dd)
C            3.29291527884992        1.27791979677576        0.10007580598224
N            2.37077377648009        0.16643611673944        0.07146345032765
C            2.68552835840950       -1.12862346389701        0.09907861675837
N            1.55441138465935       -1.89200822744592        0.13019382880746
C            0.44928797796334       -1.06449751194679        0.09920315750502
C            0.97540965598410        0.24642151668862        0.07471969142666
C            0.17402638917370        1.40511539903354        0.00587505383484
O            0.57736007289224        2.58194807701411       -0.03473935812388
N           -1.17263442310836        1.05512702034003       -0.03384450814939
C           -2.11949654697391        2.16492574266086       -0.14695558019551
C           -1.73222606551004       -0.21000778670656       -0.02540636102205
O           -2.91989122810177       -0.35505214920066       -0.17049263446282
N           -0.88862536562405       -1.32929663151704        0.14529517205862
C           -1.68677693811300       -2.70957573135429        0.04398166563845
H            3.92044537156651        1.23855546562469        0.99405334349173
H            3.93870596845813        1.24814885970655       -0.78082059147720
H            2.71676364018253        2.20165593163029        0.09217382040982
H            3.68394155331797       -1.51756600015539        0.14172337981342
H           -1.54606800435344        3.09574259966051       -0.13622249093797
H           -2.69080663498877        2.09629782772128       -1.07283601829311
H           -2.80928751822526        2.14499166768400        0.69550215699265
H           -0.83558330817724       -3.39181171379143       -0.35635028783592
H           -2.51520626011080       -2.37280659512685       -0.57925401026576
H           -3.07556573524816       -4.07124022846037        0.34567016110182
H            1.56481290556974       -2.89177119293327        0.12494644880942
25
 energy: 104.187530211451 xtb: 6.6.1 (8d0f1dd)
C            3.30113175775700        1.28634485951013        0.10189066643859
N            2.37285437429547        0.20411260486619        0.07264466645125
C            2.72878987383290       -1.14867454144700        0.10252624535361
N            1.53678440353412       -1.90756335136806        0.11018461379620
C            0.46342070610680       -1.03214760680733        0.07340337625203
C            0.97729037246656        0.27177027515018        0.07130592294557
C            0.16154166363939        1.39345414328603        0.00023807018612
O            0.59262903553362        2.60403039275039       -0.02622272529013
N           -1.17056385782985        1.06769889409909       -0.03407210474675
C           -2.12266828221458        2.17201243666374       -0.13358273322241
C           -1.71559569325459       -0.19292153884913       -0.02937034698321
O           -2.91941477204101       -0.32803303373463       -0.14765841064666
N           -0.84162142583542       -1.29772261366994        0.05303234534596
C           -1.61853742452802       -2.62576951082226        0.04192930415657
H            3.91624811725491        1.25530382944576        1.02499857817771
H            3.97888455021519        1.23116953548683       -0.77416067608508
H            2.71356338903410        2.21461852535830        0.07017686506554
H            3.70748937278102       -1.53981956748003        0.12861798765243
H           -1.55033270689065        3.10244734882070       -0.12190273964798
H           -2.69547406821391        2.09204873529581       -1.05827463570850
H           -2.81013710464171        2.13077617005714        0.71075589811976
H           -0.85413733143013       -3.36261550395495       -0.29804663178576
H           -2.50470016162215       -2.40797732987342       -0.42728316823326
H           -3.25041130418253       -4.29080910739735        0.21615850595900
H            1.51518082120578       -2.90270525664211        0.09974503864395
25
 energy: 104.092545141151 xtb: 6.6.1 (8d0f1dd)
C            3.30967808948569        1.28687513229397        0.10397417977278
N            2.37749931590909        0.22412247257574        0.07482326667404
C            2.75491605347043       -1.15602001964003        0.10120750034766
N            1.53501423486814       -1.90873008560958        0.09061341578404
C            0.48121796334857       -1.00723760762941        0.05881659421740
C            0.99203203783227        0.29050271495520        0.06592427711050
C            0.15623612344281        1.39553919073406       -0.00432860667802
O            0.60103964987707        2.61968145493988       -0.01648548786548
N           -1.16714350757698        1.08431613739348       -0.03896480414001
C           -2.12503386277664        2.17979041546284       -0.12300511546233
C           -1.70069694416673       -0.17985323653354       -0.04226586617010
O           -2.91131750930350       -0.31566420114724       -0.13230141524727
N           -0.80105385056109       -1.27709994270627       -0.01263831034596
C           -1.51868978871810       -2.53885727971048        0.03848035001099
H            3.91004302287524        1.26515270804047        1.04278520234976
H            4.00829251270384        1.21961536176386       -0.76108031393795
H            2.72199835453903        2.21900337315225        0.05559854524908
H            3.72299475907015       -1.54703783400052        0.11934426242346
H           -1.55644606115085        3.10920846393822       -0.10841915750786
H           -2.69907180078863        2.09246490096323       -1.04575514629975
H           -2.80955375327430        2.12161589841500        0.72253011695245
H           -0.86556874762886       -3.32946664471061       -0.28418338626006
H           -2.56012782281945       -2.42372427471728       -0.24939106194835
H           -3.44320360498461       -4.53110039484301        0.09074023721115
H            1.49915944129978       -2.90406791463612        0.08101463595439
25
 energy: 96.966777886182 xtb: 6.6.1 (8d0f1dd)
C            3.31307199438744        1.27465514222808        0.09930196862691
N            2.37899028568604        0.21712902715448        0.07735724318440
C            2.74836530303268       -1.16432807062740        0.09064119400657
N            1.53925703259293       -1.88822277609792        0.06515263523475
C            0.49083364420256       -1.00856192251579        0.06853299192138
C            1.01677440592576        0.28947986173211        0.05731296237446
C            0.17100609334200        1.41599351233955       -0.00164826149871
O            0.59179410500623        2.61693466192353       -0.00492968949087
N           -1.17632905686540        1.10803107162141       -0.04492349363866
C           -2.12733502597309        2.19033534452635       -0.11175731743414
C           -1.70692383095521       -0.16108519670244       -0.05614784445743
O           -2.91465526479184       -0.31486611644076       -0.11651300598087
N           -0.81879754859006       -1.28592329947015       -0.03913036648582
C           -1.39244981625146       -2.42161233336299       -0.00576295113774
H            3.90620907456274        1.26807393034256        1.03169803538216
H            4.01503218198164        1.22344915482741       -0.75166899049893
H            2.74056888153764        2.21384860607626        0.05175068567641
H            3.72358748693595       -1.54450696640351        0.10813304752038
H           -1.55752708815066        3.10934649689106       -0.09384111063229
H           -2.70157584862438        2.10003856008745       -1.03123620667488
H           -2.80648209235337        2.12479252654036        0.73516379749014
H           -0.87916884842872       -3.34167096654697       -0.19061457119724
H           -2.46717957630210       -2.51827163459317       -0.14066521527579
H           -3.69486018071689       -4.61731652092981       -0.03958559433725
H            1.52000799378196       -2.89671330385560        0.07041396951760
25
 energy: 85.547309474866 xtb: 6.6.1 (8d0f1dd)
C            3.32455393044091        1.27424539974433        0.10500764221126
N            2.39453164664656        0.18660464746650        0.07619457197795
C            2.71652821251168       -1.13759674250081        0.08236022649577
N            1.57145700041621       -1.85900449135687        0.05305660123595
C            0.49839773128221       -1.00994706857269        0.05238097738213
C            1.04088213323011        0.29251478298704        0.04188245225940
C            0.20213198972689        1.45209937684932       -0.00134403861156
O            0.59398231029135        2.61351668722244        0.00030512667724
N           -1.15593048255064        1.12034605839902       -0.04790677274086
C           -2.12070832710628        2.19271536370458       -0.10841536099896
C           -1.69887917278975       -0.14545255105181       -0.07319132417283
O           -2.89249216779627       -0.31759381231893       -0.12811692376466
N           -0.83115912832163       -1.28933055779132       -0.03021110982740
C           -1.42274747401428       -2.46312758307068       -0.00728299312531
H            3.90286580186261        1.26889030188612        1.02598242869547
H            4.01241828641264        1.22863086191095       -0.73479491605518
H            2.75767873148655        2.20669241151755        0.05354108621852
H            3.71501326555866       -1.52107122223110        0.11134894174301
H           -1.56676936706682        3.12265687511030       -0.08646421269587
H           -2.70185947294061        2.10860648523043       -1.02477561904896
H           -2.80035608568777        2.12402689119327        0.73844492175594
H           -0.85317803395249       -3.33418555900311       -0.21611913547720
H           -2.47348762700585       -2.51710514793295       -0.03825247526554
H           -3.85949751968433       -4.73399741266570       -0.07939515507885
H            1.55883812402270       -2.87410520598187        0.06279897240511
25
 energy: 83.633429535979 xtb: 6.6.1 (8d0f1dd)
C            3.33544466908567        1.27905198153989        0.11321829545660
N            2.41085789191916        0.17396578704447        0.07644476453754
C            2.70962363218321       -1.12105827997861        0.07553635428174
N            1.59488675430901       -1.84919568801729        0.03142784648434
C            0.50895851734103       -0.99970490101316        0.01318808012341
C            1.04742090558182        0.31026222034449        0.02696349098065
C            0.21862595097581        1.46828866305326        0.00120876868216
O            0.59136865184205        2.63156225522465        0.01360647834193
N           -1.14508312870648        1.11645079283200       -0.05006909766741
C           -2.11859052188601        2.19341481847286       -0.10308882534167
C           -1.69272994882710       -0.13325247283747       -0.08134067896841
O           -2.88694908847132       -0.32820281317688       -0.12406174572181
N           -0.81295878273887       -1.27577032632773       -0.06652905065682
C           -1.39803665660165       -2.47670626093502       -0.00565487894609
H            3.90257816128191        1.27054970662345        1.04290881184409
H            4.02533886795442        1.22863372496857       -0.72695121089517
H            2.75833043738388        2.20562842879773        0.05423505748699
H            3.71405021079549       -1.50950230554962        0.10803005841615
H           -1.56965846860168        3.13203278908259       -0.07646238697769
H           -2.70816559590916        2.12260242712675       -1.01791066651002
H           -2.79960268424221        2.12513091215267        0.74625631963432
H           -0.79685027672210       -3.36890494502640       -0.10767179040217
H           -2.47943473064262       -2.61630362879045        0.03740455036587
H           -4.06600030060506       -4.72891871046197       -0.19621349926370
H            1.56878983827319       -2.86102538640471        0.04255886690971
25