72
 energy: 0.000000000000 xtb: 6.6.1 (8d0f1dd)
N           -1.47310934822924        2.74401318561852        2.22063942287560
C           -1.55658894218425        2.16490305624665        1.13274284460745
C           -2.74549225258129        2.05621251263064        0.23826250649470
C           -3.31377583855761        0.64333417511334        0.32332515650284
C           -4.30230195924506        0.24487112428158       -0.58026167086503
C           -4.85238808050968       -1.02286499940159       -0.53363593669082
O           -5.81420026757557       -1.48606047972767       -1.36157895357670
C           -6.39655692584623       -0.60827005826649       -2.29568495601309
C           -4.39972542350640       -1.94646120241305        0.44396933240983
O           -4.98748357557592       -3.16146026488900        0.41085995818162
C           -4.66362171172287       -4.10093865802695        1.40909140816864
C           -3.42072545213514       -1.54561399150247        1.33436558640148
C           -2.88302826362110       -0.26315802838497        1.27400162590187
C           -2.19303818453636        2.30467021687947       -1.18742988123374
C           -1.26651549989641        1.17243380322503       -1.65249445018642
C            0.01082525039567        1.09745464658138       -0.89354811789923
N            0.61779399208289       -0.02034948241203       -0.57705527866251
C            2.00145228921113       -0.02376006609561       -0.15611401051620
C            2.92554961797610       -0.53865287672537       -1.27700100652360
C            4.35756883501756       -0.43050761225877       -0.83075552032494
C            5.07346182539911        0.73206415878124       -1.03980975472950
C            6.38628045899965        0.84224449235903       -0.60344828301384
C            7.00047329721665       -0.20824758267940        0.05722314949100
O            8.26703733840855       -0.21011315050632        0.52410948507466
C            9.06912311989339        0.92943609656965        0.31863060963839
C            6.27040022445068       -1.40439766990411        0.28033468609137
O            6.94830004375713       -2.38012947787858        0.92752007684741
C            6.31537376337817       -3.61583233633369        1.15217722400438
C            4.96302840674480       -1.49347485723979       -0.16064431849589
C           -0.05511211878686       -1.29906259857679       -0.62085692079872
C           -3.86758072907722        3.07992629005348        0.58498065642721
C           -4.49286201346546        2.77383518785172        1.94313307512182
C           -3.39165211343248        4.52917708609625        0.54797528556046
H           -4.66030069703099        0.94509076131725       -1.31640581036773
H           -6.85037992114187        0.25803164586058       -1.80468862056629
H           -7.17287509152171       -1.18600121846629       -2.79318183475679
H           -5.66836870040540       -0.26952968819383       -3.04040283452035
H           -4.88416765986127       -3.71589494995018        2.40913564538747
H           -5.29223619720187       -4.96637504833431        1.20969248126828
H           -3.61139846644506       -4.39919876145526        1.35529370415983
H           -3.07077825100221       -2.21868786295666        2.10002682176568
H           -2.14562774333496        0.02067850888151        2.01001363031684
H           -3.02188903413801        2.38238034416975       -1.88813562572432
H           -1.65198546223364        3.25146730843841       -1.20556295755141
H           -1.81103391047759        0.23006526775522       -1.62116316669324
H           -0.99335697743926        1.37490224954061       -2.69443281971844
H           -0.67628070635666        1.65183902374723        0.61785732877701
H            0.63525847086258        1.98466388206871       -0.92314029755375
H            2.11132572081740       -0.65949698961381        0.72532619960637
H            2.30680494458141        0.98978260887088        0.11078973822125
H            2.76694224489122        0.06750735773687       -2.17075272340394
H            2.67954606229959       -1.57455642411728       -1.51167757545099
H            4.62170041431221        1.56295626549351       -1.56123593485311
H            6.92357738865082        1.75715832247601       -0.79119604059515
H            8.65159193263071        1.81001840117181        0.81701562739969
H            9.20136256512460        1.14042868409438       -0.74698998879646
H           10.03428931104811        0.69003246578081        0.76064945022918
H            7.05567240429544       -4.23621211097668        1.65347581279537
H            5.43848051513375       -3.50813590722545        1.79970582482858
H            6.02060097762632       -4.09420535105165        0.21253284608183
H            4.40102799328555       -2.40127288651695       -0.00490198294521
H           -0.22071301762289       -1.61775598610935       -1.65116024301020
H           -1.01972267469312       -1.24102728946113       -0.10935207845464
H            0.55899959333766       -2.04486104898380       -0.12333731565713
H           -4.63991918782192        2.95501120214274       -0.18098089750912
H           -3.76095251366987        2.90314731895452        2.73380846416528
H           -4.87457659255110        1.75695657819473        1.97884621460846
H           -5.31925601899505        3.45579242388173        2.12325583951056
H           -2.60025614255587        4.69225089676674        1.27368930043085
H           -3.03987434616939        4.81897697030947       -0.43870979129779
H           -4.22191779840287        5.18069696155015        0.80616701440619
H           -0.59832439338922        2.77744720721660        2.72959009765665
72
 energy: -4.498785277970 xtb: 6.6.1 (8d0f1dd)
N           -1.49055754208100        2.78879294789656        2.23980361723499
C           -1.55949145833239        2.16118411028809        1.15898753307047
C           -2.74203814605086        2.06313909597216        0.24491895541004
C           -3.31634095140661        0.65042472136138        0.31797129576421
C           -4.30411741472009        0.24284193461960       -0.58881534155338
C           -4.86593073601836       -1.02557629253032       -0.54507636172099
O           -5.86038671946759       -1.50525128996002       -1.35817244762976
C           -6.47662171027922       -0.65428713341439       -2.29278529302794
C           -4.39757548588971       -1.94048618901254        0.43355814952995
O           -4.98134345982162       -3.16476541364195        0.40408644967236
C           -4.65271530635144       -4.09551035436650        1.40627182958742
C           -3.42310756691518       -1.53538395089620        1.32899864179787
C           -2.88946737886409       -0.25190149002732        1.27353128427990
C           -2.18395254498343        2.31047901064201       -1.18103292857020
C           -1.25177204829552        1.19394234985758       -1.67481365474952
C            0.01886145241577        1.12901052281436       -0.89696492958598
N            0.63904380738503       -0.03344982805353       -0.56627741501544
C            2.01402984556419       -0.03223995332102       -0.15708113914140
C            2.94291272916979       -0.53668410947972       -1.27917588518427
C            4.37059284825512       -0.43279550765858       -0.83890139662196
C            5.08680953574435        0.73238227032840       -1.03644669456872
C            6.39683037544288        0.84049670601123       -0.59399428231206
C            7.00830118099172       -0.21383418936260        0.06268805436311
O            8.28227943874902       -0.22054680776186        0.53253831180260
C            9.07977497436787        0.91989940428212        0.32986177504604
C            6.27783517044568       -1.40773265278616        0.27985458127560
O            6.95759713549738       -2.39077959230037        0.92608655165052
C            6.31943771936599       -3.62382481092225        1.14328299787075
C            4.97363188997671       -1.49618466235885       -0.16613971425206
C           -0.04442184295832       -1.29900247345102       -0.62233454504564
C           -3.86872184452777        3.08225118801083        0.57978740890619
C           -4.49533979205033        2.77970415359926        1.93875119883701
C           -3.39444650358872        4.53333548860037        0.54684543094183
H           -4.64912934403759        0.94392868471707       -1.32980271143173
H           -6.97464975000446        0.18064914149318       -1.79710943527298
H           -7.24778683732003       -1.22229859790171       -2.81635453304450
H           -5.70385696721804       -0.29731782402151       -2.98816637823987
H           -4.87798564131546       -3.70786366032787        2.40484405459054
H           -5.27692215562427       -4.96474201295567        1.20738750407733
H           -3.59857172376784       -4.38890581732748        1.35865389439377
H           -3.07060685828845       -2.20803754086138        2.09625490012496
H           -2.15007056381146        0.03354736771482        2.00737895368241
H           -3.01311903534258        2.40090767865135       -1.88293332836337
H           -1.63747167885320        3.25490141637553       -1.19166053183830
H           -1.79115345060047        0.24848291431559       -1.63109374854690
H           -1.00775193815347        1.39725768766269       -2.72653614346637
H           -0.67966277911508        1.65579394418172        0.66014470617231
H            0.65713597928205        2.00077039118210       -0.95236358467955
H            2.12755748440942       -0.66477213124095        0.72750783399997
H            2.30900199034863        0.98512727648207        0.11052672718614
H            2.77591475360444        0.07503919680500       -2.16732490532423
H            2.68891126419598       -1.57015823274321       -1.51576355720639
H            4.63350041140387        1.56646990361319       -1.55115269639234
H            6.93573620454960        1.75623623542178       -0.77654788292030
H            8.66074572985404        1.79928205343209        0.83011140553403
H            9.21136876114457        1.13547058495150       -0.73551590327754
H           10.04531735368402        0.67998107836916        0.77136374478249
H            7.05768066254472       -4.24896537641583        1.64264192727097
H            5.44125885469017       -3.51681943249222        1.78934684431470
H            6.02277871988142       -4.09726816512926        0.20129703310126
H            4.40777246439837       -2.40202130787214       -0.01140226599715
H           -0.21461971071789       -1.61416484863715       -1.65643672297345
H           -1.01052977231936       -1.23328668127050       -0.11353051910532
H            0.56304797010327       -2.04968203731546       -0.12441963910302
H           -4.64125848727430        2.96058384420922       -0.18786168336807
H           -3.75856873290978        2.90870143111748        2.72539918815194
H           -4.87160241401591        1.76031299709079        1.97409526771377
H           -5.32455076340210        3.46001968647429        2.11960939283050
H           -2.60258337710344        4.69209090901643        1.27307396391893
H           -3.03691121545282        4.82084172645465       -0.43877151232180
H           -4.22576440583903        5.18694970138130        0.80225147224014
H           -0.61029185549392        2.79460238449270        2.74553336318544
72
 energy: -0.815925234548 xtb: 6.6.1 (8d0f1dd)
N           -1.52139471194405        2.85669676306574        2.25429234072151
C           -1.56041183610646        2.16434665113289        1.19015324642902
C           -2.73651329301950        2.07212073791940        0.24943577698313
C           -3.31982846267986        0.65729489969237        0.29952139708816
C           -4.31030240411279        0.23697917792675       -0.60914550465052
C           -4.89345267880904       -1.02979277138968       -0.56352692394707
O           -5.94616856343907       -1.54230508050072       -1.33855214589732
C           -6.61648223786239       -0.73562603540765       -2.27908359724610
C           -4.39657295292897       -1.93019406014490        0.41536029370267
O           -4.96789193943705       -3.16977518465502        0.39279395533285
C           -4.63174552095295       -4.08564094980684        1.40167703574008
C           -3.42743095288131       -1.52030171446575        1.31663320985678
C           -2.90000386492389       -0.23621378113373        1.26724053755398
C           -2.16453482232765        2.32942270425653       -1.17164688086806
C           -1.22804800506155        1.22414317652791       -1.69135303000766
C            0.03742947417564        1.17105539447017       -0.90161263414186
N            0.66638400076066       -0.04014525493247       -0.55476015230033
C            2.03151994326035       -0.03499119736304       -0.15941938880914
C            2.96942436750467       -0.53024631854032       -1.28159064608074
C            4.39168524122438       -0.43375171339528       -0.84446192128728
C            5.11105039453996        0.73264609580638       -1.02681325264775
C            6.41860349774943        0.83618174339904       -0.57686934315824
C            7.02403492741937       -0.22485204182583        0.07186064754130
O            8.30662667808146       -0.23951905285741        0.54635507218234
C            9.09904930874174        0.90168572196631        0.35117830404625
C            6.29280267113348       -1.41516867944698        0.27765800098114
O            6.97302341047213       -2.40992141705346        0.92110629378681
C            6.32666021211223       -3.63896741770948        1.12575146603623
C            4.99157901924781       -1.50038758085234       -0.17480238105675
C           -0.03008017640549       -1.28892167111657       -0.62940863741227
C           -3.86636031553294        3.08726349882209        0.57178252968591
C           -4.49849272384199        2.78828417557468        1.93030202738596
C           -3.39721389746549        4.54207910547274        0.54296228038901
H           -4.63633782462565        0.94253942370329       -1.35592704879762
H           -7.20676056346463        0.04138106529780       -1.78078912493101
H           -7.36538286681871       -1.29939976810667       -2.85207631330371
H           -5.78734269179571       -0.33939162201815       -2.89929486173882
H           -4.86682968489879       -3.69387257817228        2.39726403975541
H           -5.24682387214741       -4.96226605467120        1.20382761950687
H           -3.57411770561016       -4.36989972475576        1.36514567309155
H           -3.07261581249401       -2.19027949022739        2.08779190285725
H           -2.16374338179721        0.05566036649945        2.00350518568067
H           -2.99466804527105        2.43912246473052       -1.87346549884168
H           -1.61006441237895        3.27043220680940       -1.16598647172639
H           -1.75817283227465        0.27296997467899       -1.64376888892804
H           -1.01998604125470        1.43631030148414       -2.75315487564095
H           -0.68385592490692        1.65377985949125        0.73152317796738
H            0.70007493901242        2.01711488275521       -0.98761704759545
H            2.15563995163205       -0.66867897338411        0.72701552392616
H            2.31890638081760        0.98398185210774        0.11380964920248
H            2.79464665063444        0.08978466516364       -2.16237339960956
H            2.70578207794160       -1.56046799845612       -1.52489391912592
H            4.65663206407514        1.57181805366195       -1.53223492108568
H            6.95924551318328        1.75385528817565       -0.74834970100484
H            8.67921479463318        1.77884907069757        0.85590898199820
H            9.23159123176766        1.12600281703557       -0.71311151473944
H           10.06510216724769        0.66036306467298        0.79175590640253
H            7.06101980861781       -4.27273797759163        1.62117159905155
H            5.44703424444801       -3.53388155206580        1.77040127372059
H            6.02777593255249       -4.10388606163945        0.17957940858037
H            4.41977192553013       -2.40354186977064       -0.02478472651299
H           -0.20357491276259       -1.60402485253002       -1.66692229550118
H           -0.99809206680651       -1.21913998438810       -0.12435891347426
H            0.56799201894084       -2.04853974992400       -0.13058798047618
H           -4.63719796166351        2.96733281221654       -0.19924994426520
H           -3.75807557996445        2.92052159613557        2.71297295422820
H           -4.86803027988595        1.76595738961128        1.96653409193265
H           -5.33138771577627        3.46572880063450        2.10970416779187
H           -2.60779688833760        4.69631331882267        1.27247780932049
H           -3.03159443258311        4.82783172592119       -0.44050938284833
H           -4.23123187619903        5.19595073862200        0.79347388219900
H           -0.63179131712275        2.82222036740736        2.75506253946222
72
 energy: 10.203151133103 xtb: 6.6.1 (8d0f1dd)
N           -1.55345737471677        2.91108702997730        2.26592664059448
C           -1.56196801253035        2.17441257856762        1.21589383020905
C           -2.73185192278622        2.08110291764259        0.25058884271874
C           -3.32437123894468        0.66298871595441        0.27612370203735
C           -4.31946054160167        0.23083152970869       -0.63295951899226
C           -4.92663502552132       -1.03301575705159       -0.58162166107494
O           -6.03990017845316       -1.58373332051823       -1.31060575538879
C           -6.77131840347495       -0.82563168696366       -2.25916482674046
C           -4.39830453299528       -1.91951903778712        0.39594423499332
O           -4.95109577291619       -3.17432792785582        0.38041631749948
C           -4.60754463881636       -4.07447283367737        1.39705516150430
C           -3.43258148131103       -1.50539126722829        1.30145888203585
C           -2.91127604339904       -0.22066225898218        1.25731297233017
C           -2.14226843614186        2.35365471868399       -1.16215765934894
C           -1.20333558269969        1.25607443625031       -1.70161378304674
C            0.05945173398212        1.21027193052365       -0.90986256407598
N            0.69196110669815       -0.03925443343524       -0.54691064963810
C            2.05068548859648       -0.03290199201767       -0.16078940600255
C            2.99622391183583       -0.52096892891720       -1.28420741765645
C            4.41458899580149       -0.43300648839973       -0.84618275394985
C            5.13844857403319        0.73372968506685       -1.01376082693294
C            6.44412918278992        0.83134113481468       -0.55732223006121
C            7.04315883296315       -0.23788436041303        0.08220972006990
O            8.33179225012944       -0.26091126093398        0.56121071082498
C            9.12139693358523        0.88051792567472        0.37605611436430
C            6.31033351584211       -1.42540720525277        0.27488463055075
O            6.98894940352150       -2.43156058478690        0.91397263669269
C            6.33487466132911       -3.65706615509611        1.10513397788625
C            5.01105782214210       -1.50549563606662       -0.18312615245367
C           -0.01503863708345       -1.27456181888492       -0.63837335811513
C           -3.86317797848216        3.09398183682340        0.56339218594037
C           -4.50142185251360        2.79734146460793        1.92053523821511
C           -3.39911312068963        4.55228528686100        0.53741669761985
H           -4.62465276857395        0.94177846672811       -1.38582785658181
H           -7.46827536243284       -0.12085482864519       -1.75935056501051
H           -7.48620795033408       -1.39522152751974       -2.88564174893033
H           -5.90445471948531       -0.37764742985595       -2.80633006377593
H           -4.85436841861738       -3.67844852610102        2.38892726190391
H           -5.21131651474598       -4.95977606199925        1.20054507805876
H           -3.54598614018201       -4.34789516171348        1.37280820812047
H           -3.07624784543275       -2.17140785223487        2.07706690963621
H           -2.18195005250834        0.07988844487843        1.99914576431940
H           -2.97075512306103        2.48298897688322       -1.86495482716712
H           -1.57914378250403        3.29019625291361       -1.13717879836565
H           -1.72440229374828        0.29979178884322       -1.65597232016183
H           -1.02239770658582        1.47926943768068       -2.76936427791358
H           -0.68662927178542        1.65372176483486        0.80378307530585
H            0.74548228339721        2.03211945056308       -1.01601379958137
H            2.18504192811425       -0.67042919506259        0.72538236386882
H            2.33473451359508        0.98563234754906        0.11902422152830
H            2.81833365462357        0.10717639189212       -2.15864630556117
H            2.72498676848108       -1.54808118133893       -1.53540859128364
H            4.68427490460114        1.57840110673593       -1.51039944200585
H            6.98640581911851        1.75074947824725       -0.71639680889489
H            8.70158105511293        1.75495311138147        0.88657690484444
H            9.25603779344414        1.11478520861666       -0.68657819099180
H           10.08764856931390        0.63675503112125        0.81577994614529
H            7.06497085261143       -4.30017959324375        1.59584231749843
H            5.45414923755275       -3.55425732101535        1.74888481906187
H            6.03417588734867       -4.11229059747100        0.15427478983870
H            4.43369729526144       -2.40644472171241       -0.04035507930815
H           -0.18906533752692       -1.58938448291873       -1.67856195249604
H           -0.98526869298160       -1.20245418377021       -0.13761330078744
H            0.57359103548250       -2.04366767533244       -0.13887724086193
H           -4.63052502895667        2.97341538675957       -0.21181927686515
H           -3.76064768842665        2.93524269114721        2.70160107248845
H           -4.86459124423302        1.77255497222324        1.95787626137308
H           -5.33802743933659        3.47147753437970        2.09608141126514
H           -2.61434075099454        4.70505928564287        1.27178548933634
H           -3.02602461909910        4.83752016111056       -0.44350189677918
H           -4.23677883386930        5.20445566237097        0.78203515874346
H           -0.65408685392225        2.85595092261169        2.75698388983808
72
 energy: 24.943472973641 xtb: 6.6.1 (8d0f1dd)
N           -1.58069400801339        2.95240240701959        2.27686968904199
C           -1.56604136801068        2.18556542009981        1.23631066765152
C           -2.72843807957897        2.08914722815329        0.24980745043385
C           -3.33051939797377        0.66854338416682        0.25416159195289
C           -4.33037670352359        0.22573424750266       -0.65501923928574
C           -4.95992309919267       -1.03592909152724       -0.59731113199185
O           -6.12488730201765       -1.62256301528994       -1.28579632160235
C           -6.92374883356368       -0.91276889592510       -2.23709576967677
C           -4.40216104877252       -1.91058260753446        0.37811976845899
O           -4.93521383244260       -3.17842281463511        0.36848189585871
C           -4.58374156398971       -4.06388924468197        1.39299606784268
C           -3.43864815360249       -1.49145384257959        1.28643896773905
C           -2.92292746155719       -0.20596383725395        1.24660910966594
C           -2.12066717814421        2.37709785460757       -1.15349390074418
C           -1.17943858527099        1.28732082099150       -1.71055949703637
C            0.08146935869593        1.24507692163329       -0.91746452712667
N            0.71626805594913       -0.03522918110806       -0.54127982579639
C            2.07071318658759       -0.02946151972841       -0.16169101100732
C            3.02162837384404       -0.51083311673892       -1.28651473171974
C            4.43717226869000       -0.43157901957591       -0.84670656280023
C            5.16524696018283        0.73544939859843       -0.99989878580032
C            6.46920776286135        0.82661815441809       -0.53772438618837
C            7.06275039024375       -0.25082574269162        0.09265884465058
O            8.35536325263146       -0.28197673933236        0.57558730709309
C            9.14404148640462        0.85953007766077        0.40106249105358
C            6.32751565164970       -1.43648806049394        0.27229176553248
O            7.00381555129072       -2.45272055288334        0.90610732086558
C            6.34311149423200       -3.67562034536616        1.08440030429912
C            5.02982509601687       -1.51056803649233       -0.19046422036000
C            0.00007429214890       -1.26007253238560       -0.64703820948628
C           -3.86063153717754        3.10104179512844        0.55469676539806
C           -4.50425086951987        2.80643963557879        1.91037224223628
C           -3.40090114875513        4.56219994424381        0.53133111774637
H           -4.61500267069742        0.93997517067813       -1.41498722859520
H           -7.71407631801184       -0.28273665719495       -1.73345440386591
H           -7.60281666633091       -1.49236496068838       -2.90952991837097
H           -6.03615257051488       -0.41095275689376       -2.72339576589605
H           -4.84210622273680       -3.66365587627879        2.38090658521527
H           -5.17574897952139       -4.95786866237541        1.19796781025419
H           -3.51826008642382       -4.32565777497512        1.38005650061055
H           -3.08029096115914       -2.15368061821811        2.06570248734697
H           -2.20054554026056        0.10254657173423        1.99373578985307
H           -2.94538008749423        2.52521331456332       -1.85893118450590
H           -1.54962281260127        3.30934485984557       -1.10916031539676
H           -1.69376492641349        0.32723335460615       -1.66709423323466
H           -1.01845264838522        1.52049518014027       -2.78183756776956
H           -0.68817749890280        1.65667460858664        0.86480864083552
H            0.78634833865491        2.04745899735728       -1.03850818354675
H            2.21095801128504       -0.67076032310533        0.72318388176218
H            2.35228103164323        0.98843340126582        0.12421991727677
H            2.84306885647279        0.12489029835753       -2.15536727031620
H            2.74404432930430       -1.53488064938211       -1.54517748927561
H            4.71228016738053        1.58566275085680       -1.48837234728649
H            7.01347387145651        1.74723559861564       -0.68512958639004
H            8.72441548571497        1.73095901796757        0.91766364074361
H            9.28097935822619        1.10343807045236       -0.65970368675461
H           10.10995189803771        0.61224501970006        0.84022494387156
H            7.06935587345741       -4.32734296833950        1.57032922486208
H            5.46153058475418       -3.57505459657692        1.72752636231040
H            6.04089289760660       -4.12117331333310        0.12898551061463
H            4.44778515173473       -2.40990662401862       -0.05566028730546
H           -0.17352622140800       -1.57259611353016       -1.68994342601139
H           -0.97247824787691       -1.18500880120291       -0.15067936467301
H            0.58007527927153       -2.03712747483737       -0.14737805485918
H           -4.62429433361774        2.97958144764141       -0.22440252525096
H           -3.76471537515158        2.95012986657524        2.69147242696557
H           -4.86124923362367        1.77936831924033        1.94885968857774
H           -5.34475217237506        3.47720246077026        2.08139328435897
H           -2.62107844029139        4.71565758877067        1.27063022697249
H           -3.02085889649839        4.84751978795449       -0.44701768522226
H           -4.24235189227711        5.21245013517937        0.76990827475952
H           -0.67483254585973        2.89112502857926        2.76039661289866
72
 energy: 42.444554891494 xtb: 6.6.1 (8d0f1dd)
N           -1.60798742425977        2.98534858529552        2.28502239064135
C           -1.57071843260499        2.20516862733547        1.25447446441168
C           -2.72484262076694        2.09638735410448        0.24771510645890
C           -3.33582779856577        0.67230325677151        0.23022115926949
C           -4.34103661031414        0.22036131551199       -0.67887808342509
C           -4.99686770996748       -1.03698703852857       -0.61213331967335
O           -6.21667961419119       -1.66105358100399       -1.25219104642298
C           -7.07704605633175       -1.00020289735120       -2.21446404327251
C           -4.40742229497944       -1.90127708132415        0.35949659578689
O           -4.91577036250456       -3.18118220025132        0.35562213851043
C           -4.55901359811980       -4.05239631226084        1.38882671455612
C           -3.44417832328157       -1.47834040291701        1.27006226906459
C           -2.93357684592435       -0.19200979176265        1.23494978445084
C           -2.09768092776377        2.40309024081304       -1.14414084384210
C           -1.15636419113431        1.31769837411317       -1.71494192844898
C            0.10617887857757        1.27389818731041       -0.93161506182032
N            0.73588949561171       -0.02499499795345       -0.53896320483325
C            2.09033114604681       -0.02351426365636       -0.16173691226794
C            3.04490109218655       -0.50036441186804       -1.28936104980393
C            4.45984000542720       -0.42968033399232       -0.84523665842792