72
 energy: 0.000000000000 xtb: 6.6.1 (8d0f1dd)
N           -1.47310921155849        2.74401293103706        2.22063921685122
C           -1.55658879776851        2.16490285539332        1.13274273951491
C           -2.74549199786261        2.05621232186130        0.23826248438941
C           -3.31377553111525        0.64333411542669        0.32332512650568
C           -4.30230156009016        0.24487110156316       -0.58026161703006
C           -4.85238763031941       -1.02286490450319       -0.53363588718165
O           -5.81419972815119       -1.48606034185536       -1.36157882725342
C           -6.39655633239252       -0.60827000183299       -2.29568474302620
C           -4.39972501531283       -1.94646102182611        0.44396929121966
O           -4.98748311285188       -3.16145997157803        0.41085992006324
C           -4.66362127904578       -4.10093827755394        1.40909127743729
C           -3.42072513477031       -1.54561384810496        1.33436546260297
C           -2.88302799614223       -0.26315800396994        1.27400150770375
C           -2.19303798107274        2.30467000305896       -1.18742977106749
C           -1.26651538239283        1.17243369445008       -1.65249429687285
C            0.01082524939134        1.09745454476277       -0.89354803499847
N            0.61779393476578       -0.02034948052406       -0.57705522512502
C            2.00145210352228       -0.02376006389122       -0.15611399603240
C            2.92554934655222       -0.53865282675074       -1.27700088804721
C            4.35756843073516       -0.43050757231754       -0.83075544324989
C            5.07346135469827        0.73206409086248       -1.03980965825901
C            6.38627986649936        0.84224441421807       -0.60344822702769
C            7.00047264773336       -0.20824756335880        0.05722314418200
O            8.26703657141718       -0.21011313101264        0.52410943644933
C            9.06912227848686        0.92943601033931        0.31863058007678
C            6.27039964270142       -1.40439753960823        0.28033466008274
O            6.94829939911432       -2.38012925705718        0.92751999079483
C            6.31537317745639       -3.61583200086742        1.15217711710877
C            4.96302794628964       -1.49347471867959       -0.16064430359178
C           -0.05511211367372       -1.29906247805359       -0.62085686319744
C           -3.86758037025447        3.07992600430699        0.58498060215443
C           -4.49286159663096        2.77383493050346        1.94313289484366
C           -3.39165179876499        4.52917666589254        0.54797523472093
H           -4.66030026466202        0.94509067363451       -1.31640568823548
H           -6.85037928558380        0.25803162192116       -1.80468845313260
H           -7.17287442604349       -1.18600110843259       -2.79318157561361
H           -5.66836817451085       -0.26952966318766       -3.04040255244073
H           -4.88416720672258       -3.71589460520039        2.40913542187496
H           -5.29223570620378       -4.96637458756866        1.20969236903657
H           -3.61139813139015       -4.39919835331056        1.35529357841967
H           -3.07077796610445       -2.21868765711333        2.10002662693138
H           -2.14562754426994        0.02067850696302        2.01001344383370
H           -3.02188875377605        2.38238012313952       -1.88813545054866
H           -1.65198530896729        3.25146700677685       -1.20556284570283
H           -1.81103374245520        0.23006524641044       -1.62116301628650
H           -0.99335688527853        1.37490212198123       -2.69443256973690
H           -0.67628064361333        1.65183887049447        0.61785727145403
H            0.63525841192517        1.98466369793744       -0.92314021190751
H            2.11132552493482       -0.65949692842762        0.72532613231274
H            2.30680473056284        0.98978251704176        0.11078972794250
H            2.76694198818247        0.06750735147374       -2.17075252200790
H            2.67954581369920       -1.57455627803457       -1.51167743520200
H            4.62169998552446        1.56295612048703       -1.56123579000624
H            6.92357674630170        1.75715815945204       -0.79119596719031
H            8.65159112996149        1.81001823324363        0.81701555159939
H            9.20136171144928        1.14042857828877       -0.74698991949293
H           10.03428838009630        0.69003240176163        0.76064937965836
H            7.05567174969094       -4.23621171795340        1.65347565939075
H            5.43848001056755       -3.50813558175093        1.79970565785717
H            6.02060041905269       -4.09420497120334        0.21253282636366
H            4.40102758497114       -2.40127266373392       -0.00490198249042
H           -0.22071299714579       -1.61775583601871       -1.65116008982042
H           -1.01972258008625       -1.24102717432227       -0.10935206830928
H            0.55899954147532       -2.04486085926761       -0.12333730421426
H           -4.63991875734388        2.95501092798550       -0.18098088071825
H           -3.76095216473977        2.90314704960906        2.73380821053058
H           -4.87457614030224        1.75695641518947        1.97884603101694
H           -5.31925552549014        3.45579210326349        2.12325564252114
H           -2.60025590131176        4.69225046143352        1.27368918226171
H           -3.03987406413880        4.81897652321898       -0.43870975059559
H           -4.22191740670577        5.18069648090034        0.80616693961239
H           -0.59832433787845        2.77744694953323        2.72958984441332
72
 energy: -5.626581885302 xtb: 6.6.1 (8d0f1dd)
N           -1.50260020110405        2.79207318539693        2.23923202002910
C           -1.55413747694310        2.15396870121389        1.15850629511365
C           -2.74536296268504        2.06321725044905        0.24472707759024
C           -3.32176942461001        0.65061622000523        0.31081282407793
C           -4.31076130208530        0.24066922838153       -0.59438147177515
C           -4.87200543074453       -1.02533472742571       -0.54210407775704
O           -5.87576894132415       -1.51386755504945       -1.33704738702355
C           -6.48441228060493       -0.65991667247210       -2.27237095354655
C           -4.40055057769581       -1.93746062562639        0.43145938051658
O           -4.98159927821114       -3.16946508298213        0.40105987675369
C           -4.65021211956022       -4.09371242258730        1.40448458392944
C           -3.42686548637182       -1.53440855077592        1.32633758247696
C           -2.89555909052967       -0.25120399066435        1.26990329703659
C           -2.18414906826990        2.31242111689559       -1.17967781266104
C           -1.25439884053872        1.18949453788307       -1.67071231007334
C            0.01698652547982        1.13855659584749       -0.90033163243885
N            0.64355731031948       -0.04158617149535       -0.55832077420052
C            2.01305204416308       -0.03410866460027       -0.15854435694129
C            2.94598423989663       -0.53718136322231       -1.28060135413836
C            4.37018040722458       -0.43342049583151       -0.83964109808528
C            5.08890972744750        0.73100432514836       -1.03702947374210
C            6.39843064985595        0.84000324969403       -0.59382859994432
C            7.00677151390101       -0.21464733612603        0.06258560827544
O            8.28502344826471       -0.22077851403812        0.53447204080974
C            9.08070008698356        0.91784389825925        0.33271441946442
C            6.27835273717953       -1.40625246131559        0.27906131797833
O            6.95966903414467       -2.39254290448921        0.92763672831405
C            6.32097047762193       -3.62446172363413        1.14158351355794
C            4.97378209837428       -1.49571694644990       -0.16664193273743
C           -0.04046366730727       -1.29813630025441       -0.62763644101486
C           -3.86955106440033        3.08222620860265        0.57738101504543
C           -4.49725063467605        2.78114385266757        1.93737696591435
C           -3.39699590889044        4.53531701876600        0.54433939641777
H           -4.65102275172953        0.94271312076202       -1.33826883872272
H           -6.98745680639571        0.18134053867351       -1.78801812601140
H           -7.24148823101381       -1.23812345351980       -2.80888713346631
H           -5.74442153179256       -0.29943995558145       -2.97115067176779
H           -4.87445030517366       -3.70566869591918        2.40388589572090
H           -5.27155414281894       -4.96567690830534        1.20817217196230
H           -3.59542156509610       -4.38559125328729        1.35681834751788
H           -3.07234678360973       -2.20706763525835        2.09204944989749
H           -2.15450037261913        0.03474222275784        2.00242841008064
H           -3.01476441226549        2.40710806223738       -1.87999481180868
H           -1.63596802431866        3.25633886370223       -1.18769361966348
H           -1.79199252616540        0.24243849293621       -1.62818710067605
H           -1.01506250111237        1.39280379303296       -2.72352100570797
H           -0.68564797384976        1.64837834002233        0.67090002238840
H            0.66644096047579        1.99551588378909       -0.96461633160298
H            2.13159132884417       -0.66839570753543        0.72683916428001
H            2.31440493435971        0.98067082033318        0.11322340734762
H            2.77799264192082        0.07794921972089       -2.16615163543486
H            2.69013937041147       -1.56996827424630       -1.51947546295120
H            4.63580036518786        1.56550966002406       -1.55098852570874
H            6.93640430603815        1.75676992715303       -0.77453255955958
H            8.66303153722591        1.79793061630662        0.83341893977816
H            9.21408159991437        1.13447009169054       -0.73252733062753
H           10.04721782360414        0.67864698022433        0.77435034593618
H            7.05814349893166       -4.25109821023097        1.64148347598132
H            5.44199510901158       -3.51890919471246        1.78712621972772
H            6.02472750428104       -4.09772163900791        0.19883381013742
H            4.40779697706215       -2.40164423013585       -0.01328432780110
H           -0.20809697374108       -1.61136774136938       -1.66528686416699
H           -1.00725375836656       -1.23520986333487       -0.11815694449294
H            0.56661977303396       -2.05304112174691       -0.13160429228428
H           -4.64285557343741        2.96138753362919       -0.19021862893260
H           -3.75732992421205        2.91048749368715        2.72076440053807
H           -4.87189151298772        1.76098829498182        1.97367302832041
H           -5.32693996907554        3.46133619464549        2.11833027636005
H           -2.60768577511634        4.69105119924520        1.27244834036023
H           -3.03483929659657        4.82308920841835       -0.43989468442701
H           -4.22800493881259        5.18933333448492        0.79964820345327
H           -0.61268017050189        2.78899493659560        2.73457175827995
72
 energy: -4.563959410747 xtb: 6.6.1 (8d0f1dd)
N           -1.51463305054269        2.81348572784047        2.24316225747971
C           -1.56050148126206        2.15569917874539        1.17336689297511
C           -2.74455126857539        2.06670485236975        0.24466101434297
C           -3.32882613836476        0.65301006524847        0.29662936996276
C           -4.32012085503094        0.23678094865361       -0.61078598606888
C           -4.89603851270422       -1.02731630666877       -0.55251805744337
O           -5.92811367074575       -1.53621049227956       -1.31258528891545
C           -6.57208934213666       -0.70857746746428       -2.24999727810625
C           -4.40429429257450       -1.93296349993253        0.41967936885749
O           -4.97208507817427       -3.17184628551539        0.39188134227543
C           -4.63772592565785       -4.08766864714036        1.40158247878746
C           -3.43200445615442       -1.52661092124187        1.31629810022786
C           -2.90438782558651       -0.24258294537685        1.26322192855856
C           -2.17295549063111        2.32293255009140       -1.17478763734705
C           -1.24390896821767        1.20234818811579       -1.67694719889398
C            0.03127652870357        1.15138106834812       -0.90703033602799
N            0.65399451558442       -0.03430468035505       -0.55416522207635
C            2.02544060073401       -0.03394607706863       -0.15826686184133
C            2.95775444785756       -0.53368144970060       -1.28250882595909
C            4.38210675546187       -0.43376077022873       -0.84231800698879
C            5.10261094129863        0.73096529951087       -1.03209382455780
C            6.41071969458138        0.83768917993435       -0.58431099718338
C            7.01735437242079       -0.22048077086305        0.06815503870864
O            8.29556170202211       -0.23030063763562        0.54089768938579
C            9.09303562201983        0.90774976516514        0.34525033030884
C            6.28741536041114       -1.41200678319055        0.27843298570748
O            6.96687418933880       -2.40234655877323        0.92440192137677
C            6.32552611158455       -3.63458140347220        1.12989260832000
C            4.98312850494563       -1.49800744055124       -0.17047899605839
C           -0.03092139844975       -1.29046714115822       -0.63327416696431
C           -3.87014974660782        3.08732915994293        0.57065032252411
C           -4.49995340545104        2.78706309255121        1.93021076987294
C           -3.39906584343217        4.54158018220351        0.54012616514872
H           -4.64663966556177        0.94109045780502       -1.35948784718458
H           -7.12486061059668        0.10210747587884       -1.76995077134018
H           -7.30407977443751       -1.29516445862788       -2.81942466906047
H           -5.83703047346682       -0.31395023831655       -2.91250838766061
H           -4.86709525248312       -3.69584899760693        2.39842304792752
H           -5.25122571364607       -4.96538022730784        1.20720851149697
H           -3.58080610391644       -4.37207170828129        1.35910639399360
H           -3.07511530693744       -2.19723476911151        2.08318954269521
H           -2.16476843255482        0.04604438486471        1.99761357318618
H           -3.00257103808814        2.43004062632694       -1.87528050003567
H           -1.62046079621600        3.26405542288470       -1.17321128121960
H           -1.77815756820718        0.25403248015601       -1.63267423337653
H           -1.02241896638767        1.40838942643217       -2.73557877431223
H           -0.68862401547383        1.64405784521073        0.70512915701977
H            0.68727110768034        2.00341930143333       -0.98566661511793
H            2.14636509119231       -0.67015093527714        0.72636046821127
H            2.32789941720758        0.98067830526778        0.11586785218933
H            2.79038371907105        0.08751125986025       -2.16377399372603
H            2.70124317247103       -1.56488050405733       -1.52596625848847
H            4.65048463058804        1.56956555283128       -1.53966484864947
H            6.94895464427032        1.75553856066437       -0.75910595142835
H            8.67496205425168        1.78528523936635        0.84973651522794
H            9.22692554141185        1.12897265230283       -0.71883410279763
H           10.05971974364227        0.66663893368721        0.78655307658412
H            7.05993717436458       -4.26647260113810        1.62750195059772
H            5.44574203707290       -3.53018918750110        1.77456773168592
H            6.02838378719653       -4.10142217433862        0.18402335760624
H            4.41501954205494       -2.40288760338818       -0.02030878055903
H           -0.19505562379526       -1.59770333678044       -1.67394244010676
H           -0.99889929954435       -1.22768207021356       -0.12559573678581
H            0.57179409860423       -2.04973046645474       -0.13954203300085
H           -4.64194542717160        2.96657573072956       -0.19897265572791
H           -3.75793064310249        2.91867350530384        2.71136442246658
H           -4.87013966622297        1.76529852646006        1.96755972937835
H           -5.33221384601385        3.46513353384449        2.11001848649978
H           -2.61390511697028        4.69853263565909        1.27219875157076
H           -3.03058027334889        4.82936171305579       -0.44192689142888
H           -4.23176861019471        5.19544762052865        0.79179116740326
H           -0.62891420315229        2.80954384219109        2.74518396119865
72
 energy: -2.643526313453 xtb: 6.6.1 (8d0f1dd)
N           -1.52623894781506        2.83467384127921        2.24527804108972
C           -1.56655207744251        2.15924148467509        1.18579173443426
C           -2.74355403161881        2.07066080548847        0.24306703938508
C           -3.33602902751167        0.65537170521412        0.28162580275465
C           -4.33171193021026        0.23382339685619       -0.62565858389790
C           -4.92042396984244       -1.02861089713069       -0.56067752158207
O           -5.97759296900500       -1.55673908396995       -1.28842880283492
C           -6.65855550015573       -0.75739791634658       -2.22888677018773
C           -4.40799001208448       -1.92912691209864        0.40828360028596
O           -4.95955718708720       -3.17592846533801        0.38261415713724
C           -4.62487359129493       -4.08345416473968        1.39970965924164
C           -3.43698655933133       -1.51895664363374        1.30626767248551
C           -2.91395171716353       -0.23381357588123        1.25606080225926
C           -2.16130581636891        2.33421279400607       -1.17052184471737
C           -1.23270371263108        1.21580244009116       -1.68271791584467
C            0.04647528242919        1.16540300884123       -0.91393681419095
N            0.66560901381928       -0.02536616840228       -0.55144389030713
C            2.03841189566790       -0.03210314887489       -0.15879322860143
C            2.97021981105059       -0.53006942511910       -1.28449060322067
C            4.39412252736451       -0.43377630264382       -0.84341239880366
C            5.11616111692391        0.73124627854951       -1.02580906728455
C            6.42323957922845        0.83526413756233       -0.57479259441714
C            7.02828382778500       -0.22663374034489        0.07332603036276
O            8.30637575652355       -0.23989386846946        0.54677231254745
C            9.10506468618784        0.89796587580994        0.35738793662646
C            6.29688767876064       -1.41811720189517        0.27739954982652
O            6.97426685454218       -2.41290946773627        0.92014715169056
C            6.32934295292228       -3.64488958833510        1.11752417109416
C            4.99274364854078       -1.50050317350988       -0.17393888921198
C           -0.02227573838377       -1.28023166282128       -0.63875203540313
C           -3.86902346859841        3.09278040033180        0.56481634965131
C           -4.50311712097867        2.79301529750814        1.92294046465076
C           -3.40049082184678        4.54840115025459        0.53583748647294
H           -4.64692697197755        0.93884402127687       -1.37996716821190
H           -7.26671920647069        0.01645936908071       -1.75458853210891
H           -7.36034007801016       -1.36163984982746       -2.82512618935918
H           -5.93674707264420       -0.32086378470072       -2.85850405238100
H           -4.86108973037596       -3.68689265789905        2.39304309048744
H           -5.23219995803383       -4.96568694123623        1.20709267881925
H           -3.56645694781091       -4.36344592287723        1.36555307097478
H           -3.07802337908946       -2.18686328299489        2.07496331440086
H           -2.17802630300296        0.05895135610200        1.99371740388546
H           -2.98991121355795        2.45461800106941       -1.87070118745462
H           -1.60318344131620        3.27167207559743       -1.15815073863373
H           -1.76370794574550        0.26607570755932       -1.63841634709773
H           -1.02512919751534        1.42576876596362       -2.74539960588930
H           -0.69026215817543        1.64480625526827        0.73589765833857
H            0.70912846804879        2.01196131266021       -1.00312834571680
H            2.16121812531514       -0.67146068639774        0.72440241271214
H            2.34208855149797        0.98160969308595        0.11885782000185
H            2.80459800095714        0.09588348380583       -2.16276445500108
H            2.71308041436073       -1.55976948381358       -1.53220863936161
H            4.66523149530159        1.57324676856185       -1.52829244210972
H            6.96190966096429        1.75392696877153       -0.74434268536912
H            8.68694851790640        1.77296879064869        0.86605128817423
H            9.23956263201962        1.12420200269771       -0.70548242348184
H           10.07175596833634        0.65451041558679        0.79825599178626
H            7.06075077540674       -4.28230366538317        1.61258787903140
H            5.44909292372751       -3.54111070814633        1.76171545791555
H            6.03111205705118       -4.10537386593107        0.16874762083844
H            4.42302783365976       -2.40480140551662       -0.02776305578272
H           -0.18266198547401       -1.58524086182491       -1.68134567670929
H           -0.99208769782195       -1.21734270809746       -0.13412311259545
H            0.57536773153265       -2.04339377865325       -0.14505218061127
H           -4.63797465550810        2.97057584422873       -0.20738136988160
H           -3.76235057857112        2.92793530084565        2.70469219537501
H           -4.87027447548944        1.77016529394193        1.96089581926218
H           -5.33770181222665        3.46917804367696        2.09930723506576
H           -2.61966026207629        4.70718843870381        1.27194061936669
H           -3.02732356413081        4.83669415580392       -0.44431650481368
H           -4.23567634038468        5.20108371133605        0.78304321927115
H           -0.64338549594829        2.83108789534261        2.75004539894267
72
 energy: 0.209266120699 xtb: 6.6.1 (8d0f1dd)
N           -1.53836659389715        2.85469456553017        2.24912377797333
C           -1.57209945931781        2.16427939221480        1.19848889694870
C           -2.74192266230964        2.07500653299476        0.24145677293746
C           -3.34261342654324        0.65778028282669        0.26531014079172
C           -4.34296508547507        0.23057447673173       -0.64197288129622
C           -4.94700095009663       -1.02977700402486       -0.56872093682179
O           -6.02972169168298       -1.57736897663977       -1.26171354192995
C           -6.74637078958302       -0.80849742744557       -2.20502740837386
C           -4.41367748239803       -1.92439567583576        0.39739993418234
O           -4.94907642125358       -3.17855489853969        0.37487069736444
C           -4.61167341105605       -4.07868740832113        1.39773134855439
C           -3.44165584909805       -1.51095682608410        1.29474320390388
C           -2.92151474475927       -0.22544090971838        1.24584770582532
C           -2.14991918162070        2.34526341805585       -1.16613232731655
C           -1.22077803103145        1.22946393913630       -1.68689431003066
C            0.06326995977814        1.18005863476985       -0.92127694958556
N            0.67815571519913       -0.01469677489554       -0.54892638747341
C            2.05133367856612       -0.02860356223905       -0.15852617175403
C            2.98191624052193       -0.52483168686935       -1.28622117393432
C            4.40536678417870       -0.43318200601972       -0.84376663577650
C            5.12919077231932        0.73173778461077       -1.01923547173337
C            6.43552746768493        0.83260822369174       -0.56573096979365
C            7.03852466797061       -0.23289316032366        0.07827960757519
O            8.31636489172032       -0.24957943631514        0.55329554203591
C            9.11684433399402        0.88782165272792        0.37017698571633
C            6.30540836809666       -1.42434390182412        0.27618220828146
O            6.98100809812678       -2.42324438532370        0.91567660188954
C            6.33371910842272       -3.65527040822058        1.10575521002939
C            5.00140282843280       -1.50301490566374       -0.17731569274824
C           -0.01296220175505       -1.26849992702264       -0.64446950105844
C           -3.86792081943187        3.09837013276668        0.55787043607067
C           -4.50519332427203        2.79944193317128        1.91496935691876
C           -3.40199381141554        4.55522974737926        0.53105361548802
H           -4.64423110951628        0.93627068224940       -1.40309801070548
H           -7.40451560463709       -0.07134945875925       -1.73617316401616
H           -7.41614999090714       -1.42848087079572       -2.83101469244761
H           -6.03611880936121       -0.33175614414195       -2.79994716352004
H           -4.85331528752433       -3.67948183730874        2.38870087906892
H           -5.21183856024195       -4.96601623683634        1.20645424352867
H           -3.55156246961888       -4.35253163311750        1.36896243539104
H           -3.08033244747074       -2.17585515934946        2.06534692967636
H           -2.18815305774977        0.07074029043524        1.98614162094679
H           -2.97623815991388        2.47471915266853       -1.86774383539385
H           -1.58935812204021        3.28108316136726       -1.14317590096399
H           -1.74811312271055        0.27746761750359       -1.64411515196416
H           -1.02546321134186        1.44600931293241       -2.75203026537671
H           -0.69217583685425        1.64354907419471        0.76942440429051
H            0.73361702422632        2.02041420511592       -1.01923062090027
H            2.17399753421629       -0.67249890721781        0.72199578161365
H            2.35534950770055        0.98369360820985        0.12454873677932
H            2.81827995294242        0.10550436721288       -2.16171283537542
H            2.72272463003237       -1.55276190065187       -1.53841974304415
H            4.68001542615469        1.57688275856190       -1.51743615621541
H            6.97471147260676        1.75198358907181       -0.72978771401815
H            8.69878827506303        1.76090934161593        0.88203880658191
H            9.25286831957790        1.11833912367855       -0.69152892876689
H           10.08316831984733        0.64211320544530        0.81141931472458
H            7.06277188725424       -4.29689524136673        1.59893897525237
H            5.45274510625440       -3.55294753900412        1.74924005358914
H            6.03563811245533       -4.11041429835036        0.15422508525504
H            4.42991395800262       -2.40678898946762       -0.03550530257358
H           -0.16706926727521       -1.57117266627765       -1.68861865756872
H           -0.98489809870047       -1.20693113370097       -0.14318037471601
H            0.57887354869447       -2.03516184142599       -0.15099987359476
H           -4.63407191092901        2.97514733363761       -0.21687483724834
H           -3.76508076017910        2.93862265519967        2.69658243411456
H           -4.86865183713724        1.77530185130965        1.95452932848377
H           -5.34221934816172        3.47360204759434        2.08857969361371
H           -2.62560858792543        4.71519711282817        1.27181995384106
H           -3.02458902373506        4.84472092076501       -0.44714729598866
H           -4.23996328368530        5.20613822694533        0.77442220845717
H           -0.65671138297282        2.85299572825868        2.75427912601421
72
 energy: 3.782871944986 xtb: 6.6.1 (8d0f1dd)
N           -1.55084204182418        2.87646576697081        2.25054764081522
C           -1.57796145126259        2.17053796168343        1.20962424965563
C           -2.73993739991473        2.07893894929903        0.23815586340127
C           -3.34664787510703        0.65958574966011        0.24944430834373
C           -4.34863800721442        0.22638828023517       -0.65963281282637
C           -4.96975968578415       -1.03007194639117       -0.57742970993272
O           -6.07852247986731       -1.59596466603386       -1.23372317866426
C           -6.83243138509695       -0.86114032202774       -2.18070133082471
C           -4.41719440746136       -1.91886959431514        0.38590130481171
O           -4.93674130971668       -3.17912368820853        0.36583454746092
C           -4.59906426977608       -4.07228615840882        1.39426533161333
C           -3.44545597441038       -1.50286377994433        1.28392675244936
C           -2.92911532294843       -0.21670583598224        1.23773747911705
C           -2.13814759605318        2.35767677616773       -1.16210167068692
C           -1.20856351899459        1.24492348009618       -1.69084465014039
C            0.08015215053849        1.19560640955707       -0.92982704535221
N            0.68808592813648       -0.00298080908609       -0.54780376848692
C            2.06317646165464       -0.02512316239453       -0.15888740758952
C            2.99350459874249       -0.51978202016060       -1.28792288313884
C            4.41667146616575       -0.43260702339628       -0.84378148711380