25
 energy: 0.000000000000 xtb: 6.6.1 (8d0f1dd)
C            3.23720163006194        1.16630919979326        0.08434469647475
N            2.29877817382611        0.07527477071623        0.03981603040599
C            2.58028210190900       -1.21425402444508        0.03006176031096
N            1.43813958087363       -1.93419271955128        0.00098261760884
C            0.39035688448383       -1.05887472636071       -0.00790371836672
C            0.93510056364412        0.21347819449412        0.01709077491437
C            0.09450143893243        1.40504303904423       -0.00410947031874
O            0.49712751527797        2.54126714362870       -0.00342325688240
N           -1.25076640035757        1.06271879480407       -0.03085478223738
C           -2.21907211982101        2.15522099834493       -0.05001256985998
C           -1.81739487048744       -0.20012725993278       -0.04692818574614
O           -2.99983886758376       -0.37846417018721       -0.07008878229737
N           -0.92618586207120       -1.30210215599479       -0.03682761578324
C           -1.46982264913417       -2.64643102187190       -0.06029820460571
H            3.71247264356769        1.21471455160235        1.06488849150277
H            4.00791497605742        1.03430808813993       -0.67357694370751
H            2.69910007168542        2.09770118228144       -0.09130154882931
H            3.56654120610678       -1.63682992603973        0.04233140067262
H           -1.67107961066214        3.09322851271934       -0.02552706933167
H           -2.82428953597071        2.09428624779827       -0.95318082946668
H           -2.87644029173232        2.07745725625962        0.81450067533302
H           -1.17061996399332       -3.19584890659852        0.83242232437030
H           -1.14560257411436       -3.17511610292205       -0.95688275822323
H           -2.55549792440841       -2.55659984320617       -0.07459039797972
H            1.38130855184625       -2.94313852034425       -0.01389874181052
25
 energy: -4.837423010808 xtb: 6.6.1 (8d0f1dd)
C            3.25180331745431        1.16804092682436        0.08878861833979
N            2.31263054063940        0.08903289498158        0.03846152249733
C            2.60547989242930       -1.23897021742115        0.02309020952105
N            1.43376754648784       -1.94662064186247       -0.00491530232238
C            0.40189066752842       -1.06142007177990       -0.00499421820328
C            0.93286416567638        0.21794509338959        0.02226789673510
C            0.09931097059390        1.39337195785611        0.00847557933830
O            0.50289179866211        2.55639832362731        0.01009231437837
N           -1.26960778672002        1.05982183329902       -0.02160686713875
C           -2.24165118824200        2.16756978163477       -0.06144551987169
C           -1.82156274213973       -0.20047501731914       -0.03358602159388
O           -3.01663076191497       -0.39076725003782       -0.05493124945100
N           -0.92895611597079       -1.30345328985092       -0.02979150382170
C           -1.46119078006133       -2.64934959174670       -0.05847709135598
H            3.73351765049605        1.20892454515239        1.06948385405228
H            4.01805775878336        1.03447839185084       -0.67652968341577
H            2.70637223753663        2.09399674713039       -0.08179734156686
H            3.58452398094427       -1.66516655736720        0.02887819708112
H           -1.69833431844084        3.11148813938912       -0.04228071901815
H           -2.85235024469778        2.12296655278058       -0.96550828914689
H           -2.91550717572636        2.11929991790231        0.79572309324874
H           -1.15591277455668       -3.20573445071735        0.83026017512062
H           -1.13129734350132       -3.17752095786558       -0.95575501917553
H           -2.54664024797460       -2.56402720733119       -0.07241425271879
H            1.36874562065064       -2.95080125034694       -0.02445448536475
25
 energy: -4.194890270678 xtb: 6.6.1 (8d0f1dd)
C            3.27376436163520        1.15810344688259        0.09660412489455
N            2.32409246721136        0.09509761928099        0.03681851435175
C            2.62392496478893       -1.26290507723215        0.00707023821305
N            1.42676590541266       -1.95403730919670       -0.01733941426305
C            0.41224831737588       -1.06265364609596        0.00149069409630
C            0.92844259594665        0.22273977579865        0.03512760607773
C            0.09866135371831        1.37873221468598        0.03346211966789
O            0.49577138828672        2.55581149924945        0.04069849216886
N           -1.30067840724102        1.06546614970520       -0.00471626667075
C           -2.27665194091566        2.19181853502892       -0.08476039470147
C           -1.82570913038834       -0.19805803960257       -0.00791403368054
O           -3.02380858922463       -0.41101805606009       -0.02094633506308
N           -0.93061189952352       -1.30010085477947       -0.01364291027488
C           -1.44218347008506       -2.65247707582188       -0.05339055066674
H            3.77159283609304        1.18752558150688        1.07271156246521
H            4.03410614705893        1.03139159958286       -0.67887983347497
H            2.72916030862837        2.08649501712740       -0.05815018290572
H            3.59650959527321       -1.69487442705664       -0.00257602074897
H           -1.73872658047208        3.14199640628869       -0.07737786400167
H           -2.88582827784679        2.15668432828817       -0.99446837183418
H           -2.97780141347602        2.18703492610557        0.75770095152964
H           -1.12637734691438       -3.21988592087108        0.82734808638418
H           -1.10261656339017       -3.17448856504853       -0.95334316954538
H           -2.52818928525668       -2.58314551712433       -0.06657378034804
H            1.35635733124130       -2.95622400846993       -0.04791936552247
25
 energy: -0.410244397980 xtb: 6.6.1 (8d0f1dd)
C            3.29944573840455        1.13802676697314        0.10760784103562
N            2.33068621877408        0.09402900898468        0.03560390674574
C            2.63087136485014       -1.28118720497949       -0.01684997956526
N            1.42007757565459       -1.95784951216538       -0.03649787560197
C            0.41795204950908       -1.06235830786178        0.01122156163801
C            0.92334954613386        0.22786769371962        0.05496605789884
C            0.09086435628435        1.37316815237248        0.06839962420260
O            0.48027605702666        2.55471009833739        0.08842316348227
N           -1.33656650606746        1.08009559165686        0.01647986662605
C           -2.31828363357906        2.22214106084092       -0.11928987925892
C           -1.83368066076293       -0.19364578221014        0.02803086807068
O           -3.02940287220761       -0.43456521413668        0.03030880775068
N           -0.93097892226021       -1.29310397430893        0.01155118818329
C           -1.41508898728464       -2.65588998744457       -0.04413346355467
H            3.81904519967542        1.14311277208831        1.07568074004447
H            4.05016422443015        1.01996892904498       -0.68099757179691
H            2.76745317497245        2.07832527644270       -0.01960444660369
H            3.59969492999665       -1.71996165538854       -0.05278178352189
H           -1.78756699395490        3.17886782019568       -0.12901249983962
H           -2.91613958486971        2.18196465913933       -1.03992860899201
H           -3.05109318542229        2.26587928855328        0.70225842815049
H           -1.08311814667896       -3.23360522206648        0.82609588923077
H           -1.06153406982867       -3.16234560884512       -0.94986264947484
H           -2.50229364954359       -2.61447807921365       -0.05553461528940
H            1.34808144468429       -2.96013796755655       -0.08510067341304
25
 energy: 7.101123034781 xtb: 6.6.1 (8d0f1dd)
C            3.33478309325999        1.10351475303247        0.12531068919011
N            2.33455814908248        0.08842244377159        0.03367756886295
C            2.62945735365672       -1.29625770167263       -0.05168675460946
N            1.41261911428016       -1.95896118343053       -0.06701335987321
C            0.42039575773452       -1.05958633271742        0.02446041218819
C            0.91690291296132        0.23489174695535        0.08321226128968
C            0.07594735049517        1.37571277868759        0.11669044264658
O            0.45747672082654        2.55503547573251        0.16461392317421
N           -1.38355321876012        1.10502022322617        0.04142604704815
C           -2.37613339171034        2.26384867612479       -0.17208150125020
C           -1.84796561951350       -0.18612721224230        0.07875398928122
O           -3.03636965720175       -0.46448139337682        0.11073640349323
N           -0.93079142752319       -1.28127019530598        0.05013504851922
C           -1.37483678015255       -2.66006870833601       -0.02758409916132
H            3.88338539160802        1.06146572826095        1.08089005486356
H            4.06885393490622        0.99514660018199       -0.68262599164600
H            2.83025694824960        2.06624620750913        0.04371457488588
H            3.59526617269990       -1.74261374416318       -0.13291263329556
H           -1.85839154941604        3.23043893873790       -0.20693840629763
H           -2.95396315678080        2.20451267873542       -1.10927946905957
H           -3.14754648493321        2.36753966722085        0.61796023442935
H           -1.01678398179465       -3.24771339850986        0.82800339408186
H           -1.00058764522887       -3.13881427417288       -0.94294410824252
H           -2.46324295728349       -2.66484072363482       -0.03554405117997
H            1.34247763847407       -2.96203244844213       -0.14394077319152
25
 energy: 14.637842379203 xtb: 6.6.1 (8d0f1dd)
C            3.36618168998638        1.06632336897485        0.14447971999094
N            2.33372528022043        0.08145107377414        0.03015631748410
C            2.61838618664445       -1.29683948468001       -0.08072060562318
N            1.40778308167769       -1.95443728819831       -0.09734095219808
C            0.41754501233033       -1.05411466314480        0.03148201744198
C            0.91271128352857        0.24110810551757        0.10313709366900
C            0.06096021026551        1.38595697628076        0.15188999074213
O            0.43937154087651        2.55620766509008        0.24050927523307
N           -1.42029764807667        1.12877596045300        0.05116263346396
C           -2.42738903139639        2.29866743478842       -0.22088141979347
C           -1.86307772941532       -0.17836962654873        0.11844144728199
O           -3.04055643459425       -0.48582407351597        0.18901487147272
N           -0.93008811651176       -1.26972076319083        0.08323365793125
C           -1.33853279513250       -2.66271915862652       -0.00854635772140
H            3.93385128425273        0.96884946154203        1.08777816845924
H            4.08353332240053        0.96426262143749       -0.67953103538156
H            2.89644613679447        2.05134730317271        0.10882605372542
H            3.58213762958422       -1.74587552457230       -0.21139860592587
H           -1.92547591372123        3.27523746676936       -0.27767594198974
H           -2.98917532176738        2.21523099834346       -1.16948733308260
H           -3.22182868371304        2.44075198159403        0.54028723724523
H           -0.95360746667486       -3.25152441887605        0.83543882277486
H           -0.94783082983583       -3.11433172898405       -0.93203500326427
H           -2.42569591043476       -2.71372343851542       -0.01199741772077
H            1.34313789064831       -2.95766164671273       -0.19918873806766
25
 energy: 17.543642428422 xtb: 6.6.1 (8d0f1dd)
C            3.38340152819049        1.04017002002360        0.16022720030808
N            2.32972249374593        0.07808515929141        0.02487732698137
C            2.60351571735601       -1.28156655593864       -0.09483262270610
N            1.40628050804742       -1.94491226051440       -0.11758432054497
C            0.41093443076084       -1.04698609868127        0.02444261562623
C            0.91260509980376        0.24536985583926        0.10403208576758
C            0.05247023513627        1.39770956354109        0.15885935071887
O            0.43243882704047        2.55756511819086        0.29183873571435
N           -1.43224910203675        1.13972730412204        0.03837162409195
C           -2.45348290326310        2.31200527876521       -0.24790188077908
C           -1.87312397686178       -0.17335108150966        0.13088657431027
O           -3.04012942470864       -0.48933829091445        0.23693258973645
N           -0.92974240739530       -1.26322700502537        0.09487350697269
C           -1.32062934598675       -2.66274304481277        0.00719380112241
H            3.95014977325424        0.89778480407443        1.09548906167800
H            4.09135222397825        0.94002004720321       -0.66979758637380
H            2.94349969530961        2.03663962375475        0.15395178535154
H            3.56542375932173       -1.72575979030718       -0.26163177830669
H           -1.96339873472011        3.29418394062137       -0.31584232295065
H           -3.01016726743613        2.21183026105852       -1.19761033490865
H           -3.24834364417240        2.45689546559073        0.49930732307369
H           -0.91604286361369       -3.24080470448817        0.84793583624277
H           -0.92670541749118       -3.10154277626483       -0.91863392134134
H           -2.40350647231927       -2.74167447327518        0.01009344476096
H            1.34794193599627       -2.94705175817236       -0.22844419839868
25
 energy: 17.338767515173 xtb: 6.6.1 (8d0f1dd)
C            3.39043151509272        1.02942210705465        0.17344987399310
N            2.32638204796980        0.08235934803155        0.01953244915138
C            2.59542136162834       -1.26650404262467       -0.10468420358308
N            1.40400434962799       -1.93658492482838       -0.13109638389770
C            0.40536395956331       -1.03917828709041        0.00932225416130
C            0.91259851752697        0.25078027443664        0.09608668275495
C            0.04912988175591        1.40404762825587        0.15493742991213
O            0.42976601150833        2.56046251236222        0.32040054253994
N           -1.42921052763385        1.13829770686923        0.02057410574489
C           -2.45901889597612        2.30857073418110       -0.26099802701904
C           -1.87786534275482       -0.17064144491912        0.13095330331513
O           -3.04064586407185       -0.48290248102386        0.25970499674969
N           -0.93162598511725       -1.26041667834916        0.09209567947179
C           -1.31698989875229       -2.66168937592620        0.01895786615005
H            3.95084213355728        0.85379701014695        1.10464027268034
H            4.09479716786378        0.93026701535646       -0.65896232942308
H            2.96875577895060        2.03060554376019        0.18621021530140
H            3.55536230825449       -1.70389088197852       -0.29292462045925
H           -1.97327434347095        3.29185145188098       -0.33381772832521
H           -3.01365596773726        2.20065801502832       -1.21007567530151
H           -3.25265531135231        2.44784663364926        0.48536454228217
H           -0.89877511467377       -3.22673001499337        0.86137661018416
H           -0.92798425899254       -3.10217240161528       -0.90607692014073
H           -2.39692737095584       -2.75168649845830        0.03178041091797
H            1.34798851612549       -2.93754034703393       -0.23971745101352
25
 energy: 15.958878241957 xtb: 6.6.1 (8d0f1dd)
C            3.39672294621793        1.02210652728398        0.19309571622973
N            2.32186791986575        0.09293492372353        0.01142007936692
C            2.58910638760757       -1.25130090845427       -0.11950674229084
N            1.39894069830923       -1.92678659206442       -0.14980475626055
C            0.39913190754801       -1.02767881531793       -0.01349422991273
C            0.91052360241666        0.26023803150939        0.08327990773478
C            0.04479227307240        1.40996904715735        0.15031404725997
O            0.42327036435690        2.56473222868995        0.34447302362203
N           -1.42151032393468        1.13246798432464       -0.00328519100220
C           -2.45802310832651        2.29773819315457       -0.27703108585715
C           -1.88134993228628       -0.16724590808646        0.13030184495804
O           -3.04250680737090       -0.47135823321351        0.28170526198843
N           -0.93535044780276       -1.25704415270238        0.08394054406822
C           -1.31657758187933       -2.65965071846503        0.03517919992120
H            3.94961155137066        0.80512261306954        1.11949859737496
H            4.09963564075430        0.92878110722729       -0.64158718637930
H            2.99503362597708        2.02931025261498        0.23255101871140
H            3.54642301164738       -1.68041136133522       -0.33454162798570
H           -1.97459609450599        3.28061601065362       -0.35275506263622
H           -3.01065500394799        2.18129679305273       -1.22518745047434
H           -3.24963306248922        2.42746300286103        0.47404743433049
H           -0.88240908238183       -3.20812931057424        0.88093037303512
H           -0.93833806334806       -3.11035190733669       -0.88854340568740
H           -2.39456618744670       -2.75683701551058        0.06522258613906
H            1.34267043451250       -2.92695319008962       -0.25318900010666
25
 energy: 13.002889479284 xtb: 6.6.1 (8d0f1dd)
C            3.40104614261968        1.01777800760356        0.22121415023421
N            2.31574013161810        0.10910718708175       -0.00185250637803
C            2.58380837070218       -1.23658469547136       -0.13774052683885
N            1.39122521281682       -1.91432131279082       -0.17593009485614
C            0.39221209445356       -1.01258500836844       -0.04433971791343
C            0.90629221623314        0.27329837486597        0.06316588181188
C            0.03830517710828        1.41654030959955        0.14318390946652
O            0.40970017347714        2.57048772494705        0.35765246245515
N           -1.40897740359287        1.12290940527837       -0.03404157772213
C           -2.44774805560410        2.27777567955805       -0.29529878181646
C           -1.88218943875388       -0.16378130015161        0.12751478342173
O           -3.04371259942078       -0.45448840815886        0.30061406198061
N           -0.94006923273228       -1.25295484273746        0.06925656442213
C           -1.31978242119039       -2.65564782966745        0.05794009481697
H            3.94221256126297        0.75331328042322        1.14150007886679
H            4.10728647756384        0.94058095421013       -0.61296707955013
H            3.02057690215316        2.03032334495277        0.29574420218844
H            3.53696461134897       -1.65564737800936       -0.38854280841259
H           -1.96432715370749        3.25847298391856       -0.37088801237356
H           -2.99908060146266        2.15110803770618       -1.24113220002101
H           -3.23318548570182        2.39069327145757        0.46599985042180
H           -0.86797558361096       -3.18325660958204        0.90837080716877
H           -0.96114402030969       -3.12696390058221       -0.86384483018222
H           -2.39664734250710       -2.75284414755374        0.11383933917721
H            1.33168393517233       -2.91428452635710       -0.27238415422043
25
 energy: 9.660175576789 xtb: 6.6.1 (8d0f1dd)
C            3.40404016153893        1.01345017403935        0.25831704843223
N            2.30961864722749        0.12767048138042       -0.02254600606586
C            2.57982352352989       -1.22509994399891       -0.15864904504193
N            1.38167651691766       -1.89936104758657       -0.21222736579077
C            0.38583334535797       -0.99580470876266       -0.07926439869486
C            0.90071546701500        0.28840159840609        0.03777509102441
C            0.02900993238451        1.42390347504657        0.13471449096304
O            0.38686219981010        2.57884286932687        0.36412032168497
N           -1.39735214842938        1.11313330201454       -0.06660296460809
C           -2.43172287255421        2.25222821289605       -0.31797544288972
C           -1.88069212699941       -0.16143529153737        0.12474388184482
O           -3.04350814256056       -0.43797300554688        0.31987861275177
N           -0.94448644846781       -1.24753415766894        0.05179808605312
C           -1.32316893948118       -2.64922906155986        0.08908525561392
H            3.93094427207329        0.69410971903907        1.17075288343766
H            4.11862540507618        0.96622261889138       -0.57232717224370
H            3.04402989135756        2.03024339658388        0.37935051244832
H            3.52585181628527       -1.63302821745423       -0.46031290018274
H           -1.94679384497482        3.23007951183921       -0.39297324799791
H           -2.98064096564561        2.11304097455162       -1.26166341289790
H           -3.21036442676015        2.34869765004904        0.45393446775287
H           -0.85051172325235       -3.15330920019415        0.94322289789243
H           -0.99188389245366       -3.14841982194599       -0.83013177700866
H           -2.39971578249962       -2.74039524667361        0.17852383228423
H            1.31602480344095       -2.89940567896263       -0.30450975261441
25
 energy: 5.619780197118 xtb: 6.6.1 (8d0f1dd)
C            3.40101244446100        1.01007569755929        0.30508864110208
N            2.30472652339689        0.14775913258224       -0.05302552364483
C            2.57762042259729       -1.21588759371946       -0.17938079692307
N            1.37165446265175       -1.88110348006196       -0.26026759611230
C            0.38032005576954       -0.97808044456932       -0.11868478988743
C            0.89604192175388        0.30433098213991        0.00627463917405
C            0.01897221857097        1.43164768517441        0.12145913840237
O            0.35621940386992        2.58894744270535        0.35898986963078
N           -1.38423010382412        1.10197644105238       -0.10034646620282
C           -2.40475841796874        2.21722280007218       -0.34218178750393
C           -1.87538545965221       -0.16187434387145        0.11906651751924
O           -3.03965867938512       -0.42110229080067        0.33265741942251
N           -0.94782091090889       -1.24126333957647        0.02935719314640
C           -1.32890497810145       -2.63867515815254        0.12986331576423
H            3.90587370521667        0.63318054144472        1.20704068601571
H            4.13256076105006        1.00970711730824       -0.51408840959379
H            3.05466794663362        2.02317970441664        0.48130780136760
H            3.51036596469655       -1.60905541047565       -0.55045841349746
H           -1.91518730969138        3.19054718829369       -0.41500984935571
H           -2.95030605563971        2.06420325421746       -1.28342776053879
H           -3.17453497307091        2.29659814444421        0.44034696401935
H           -0.83248911542265       -3.11472865672326        0.98652318038255
H           -1.03636660214144       -3.17496089197075       -0.78441339044857
H           -2.40475805787559       -2.71256472429794        0.26169696145792
H            1.29657950095010       -2.88105119501890       -0.35135364754886
25
 energy: 3.172103873706 xtb: 6.6.1 (8d0f1dd)
C            3.39289477428317        1.00470535955453        0.35280688737154
N            2.30421757071302        0.16253928794147       -0.08819191231256
C            2.57876650848853       -1.21297105863860       -0.20096188730955
N            1.36451642480881       -1.86468139348014       -0.31409132527784
C            0.37842338044740       -0.96504007081038       -0.15106015904440
C            0.89496983404133        0.31621358054082       -0.01916239452546
C            0.01241271450346        1.43721405809537        0.10975606189666
O            0.32725780277237        2.59775525253398        0.35283390186879
N           -1.37774011177558        1.09493022173936       -0.12242208608555
C           -2.38010703032630        2.18649914555435       -0.36851079037552
C           -1.86859732970329       -0.16558981049308        0.11499261838159
O           -3.03365176686270       -0.41363157866533        0.34525071237534
N           -0.94804701110440       -1.23517109221179        0.01178664764132
C           -1.33081565953782       -2.62609952437023        0.17415953567108
H            3.87803200755695        0.57111990483292        1.24203868472779
H            4.14410788548529        1.05910009568152       -0.44958472884138
H            3.04834903914243        2.00870388827409        0.58923924426888
H            3.49149448822233       -1.58942738315396       -0.64945421445209
H           -1.88529119761165        3.15622508942389       -0.44151942332326
H           -2.91962166709866        2.02005356171367       -1.30993446951174
H           -3.14658140403046        2.26190409615190        0.41627525195547
H           -0.80923642495982       -3.07640637955122        1.02907249774046
H           -1.07822498247056       -3.19640329412569       -0.73264395327472
H           -2.40465573870554       -2.67867175427177        0.34718682363892
H            1.27934256165765       -2.86384160009332       -0.41082762705658
25
 energy: 1.548691100638 xtb: 6.6.1 (8d0f1dd)
C            3.37202661812827        1.00337909065140        0.38351934872107
N            2.31056854849097        0.16413924067967       -0.11622856407418
C            2.58596816825239       -1.22041954523328       -0.21504450758391
N            1.36552296121313       -1.85744215384298       -0.35477432404713
C            0.38291267634483       -0.96502656388082       -0.16184484858066
C            0.90127705742527        0.31543312218570       -0.02793447942284
C            0.01746956298804        1.43610884393009        0.10017439317445
O            0.31660998961990        2.59914417361691        0.33075886819872
N           -1.37520339200327        1.09292567818872       -0.11684604744595
C           -2.35773077857224        2.16778616374055       -0.37979314538894
C           -1.85849468636752       -0.17382636378865        0.11022354319934
O           -3.02384627915424       -0.41751594263681        0.33635147757247
N           -0.94286011144494       -1.23364405530255        0.00268923907592
C           -1.33195741107343       -2.61416549452620        0.20508796583541
H            3.84172617196625        0.55314009364540        1.26044041686539
H            4.14448507942860        1.10567454964309       -0.39255937005309
H            3.00053577854934        1.98228915700616        0.65139779882747
H            3.47340735273708       -1.58078880808494       -0.71289128215862
H           -1.85535528324583        3.13422059236512       -0.45269280503294
H           -2.89033695824366        1.99504801742415       -1.32388146916729
H           -3.12658466077597        2.25321578834199        0.39779744910423
H           -0.79638559056387       -3.05070923696153        1.05360701638254
H           -1.11134488874341       -3.20643912866030       -0.69175475266027
H           -2.40214323823584       -2.63827564944857        0.40359842395820
H            1.27194798121612       -2.85522296687991       -0.46236644915221
25
 energy: 1.812593155243 xtb: 6.6.1 (8d0f1dd)
C            3.35654999839428        0.99467533524171        0.42394142797871
N            2.31455565627281        0.16593368405825       -0.14681979899064
C            2.58795262292492       -1.21935483709452       -0.24706465031153
N            1.36565165062466       -1.84852590160014       -0.40121936602249
C            0.38478646915472       -0.96292529618944       -0.17826419329941
C            0.90767716799777        0.31522524050855       -0.03513405411297
C            0.02484537037587        1.43754496974181        0.09056062958894
O            0.31545602875573        2.60025141364016        0.33243775480303
N           -1.37436616606168        1.09329196863835       -0.11486775800705
C           -2.34960503584584        2.15941416995000       -0.40589272694211
C           -1.85463647265269       -0.17869215217118        0.10872326949413
O           -3.01857461196955       -0.42247651095311        0.35042484722129
N           -0.93832208908216       -1.23122799389390       -0.00272641731734
C           -1.32606983750916       -2.60584768314574        0.24447081278538
H            3.82037693886059        0.48269131891080        1.28879046462889
H            4.13971300072314        1.14979829963138       -0.33428957858910
H            2.96750588164267        1.96176578545381        0.75126038132896
H            3.45173126495226       -1.55993035447023       -0.81356553277190
H           -1.84265441438934        3.12358325370717       -0.48636381095505
H           -2.86971135758520        1.97266559140839       -1.35575607675983
H           -3.12769083520891        2.26163135520035        0.35787025057463
H           -0.76153679052030       -3.02041277179693        1.08809306977793
H           -1.13803445819478       -3.21720101189153       -0.64362736976022
H           -2.39125012771181       -2.61874191192215        0.47558448819760
H            1.26786481398793       -2.84410735878943       -0.51953216639266
25