      -----------------------------------------------------------      
     |                   =====================                   |     
     |                           x T B                           |     
     |                   =====================                   |     
     |                         S. Grimme                         |     
     |          Mulliken Center for Theoretical Chemistry        |     
     |                    University of Bonn                     |     
      -----------------------------------------------------------      

   * xtb version 6.6.1 (8d0f1dd) compiled by 'conda@1efc2f54142f' on 2023-08-01

   xtb is free software: you can redistribute it and/or modify it under
   the terms of the GNU Lesser General Public License as published by
   the Free Software Foundation, either version 3 of the License, or
   (at your option) any later version.
   
   xtb is distributed in the hope that it will be useful,
   but WITHOUT ANY WARRANTY; without even the implied warranty of
   MERCHANTABILITY or FITNESS FOR A PARTICULAR PURPOSE.  See the
   GNU Lesser General Public License for more details.
   
   Cite this work as:
   * C. Bannwarth, E. Caldeweyher, S. Ehlert, A. Hansen, P. Pracht,
     J. Seibert, S. Spicher, S. Grimme, WIREs Comput. Mol. Sci., 2020, 11,
     e01493. DOI: 10.1002/wcms.1493
   
   for GFN2-xTB:
   * C. Bannwarth, S. Ehlert and S. Grimme., J. Chem. Theory Comput., 2019,
     15, 1652-1671. DOI: 10.1021/acs.jctc.8b01176
   for GFN1-xTB:
   * S. Grimme, C. Bannwarth, P. Shushkov, J. Chem. Theory Comput., 2017,
     13, 1989-2009. DOI: 10.1021/acs.jctc.7b00118
   for GFN0-xTB:
   * P. Pracht, E. Caldeweyher, S. Ehlert, S. Grimme, ChemRxiv, 2019, preprint.
     DOI: 10.26434/chemrxiv.8326202.v1
   for GFN-FF:
   * S. Spicher and S. Grimme, Angew. Chem. Int. Ed., 2020, 59, 15665-15673.
     DOI: 10.1002/anie.202004239
   
   for ALPB and GBSA implicit solvation:
   * S. Ehlert, M. Stahn, S. Spicher, S. Grimme, J. Chem. Theory Comput.,
     2021, 17, 4250-4261. DOI: 10.1021/acs.jctc.1c00471
   
   for DFT-D4:
   * E. Caldeweyher, C. Bannwarth and S. Grimme, J. Chem. Phys., 2017,
     147, 034112. DOI: 10.1063/1.4993215
   * E. Caldeweyher, S. Ehlert, A. Hansen, H. Neugebauer, S. Spicher,
     C. Bannwarth and S. Grimme, J. Chem. Phys., 2019, 150, 154122.
     DOI: 10.1063/1.5090222
   * E. Caldeweyher, J.-M. Mewes, S. Ehlert and S. Grimme, Phys. Chem. Chem. Phys.
     2020, 22, 8499-8512. DOI: 10.1039/D0CP00502A
   
   for sTDA-xTB:
   * S. Grimme and C. Bannwarth, J. Chem. Phys., 2016, 145, 054103.
     DOI: 10.1063/1.4959605
   
   in the mass-spec context:
   * V. Asgeirsson, C. Bauer and S. Grimme, Chem. Sci., 2017, 8, 4879.
     DOI: 10.1039/c7sc00601b
   * J. Koopman and S. Grimme, ACS Omega 2019, 4, 12, 15120-15133.
     DOI: 10.1021/acsomega.9b02011
   
   for metadynamics refer to:
   * S. Grimme, J. Chem. Theory Comput., 2019, 155, 2847-2862
     DOI: 10.1021/acs.jctc.9b00143
   
   for SPH calculations refer to:
   * S. Spicher and S. Grimme, J. Chem. Theory Comput., 2021, 17, 1701-1714
     DOI: 10.1021/acs.jctc.0c01306
   
   with help from (in alphabetical order)
   P. Atkinson, C. Bannwarth, F. Bohle, G. Brandenburg, E. Caldeweyher
   M. Checinski, S. Dohm, S. Ehlert, S. Ehrlich, I. Gerasimov, C. Hölzer
   A. Katbashev, J. Koopman, C. Lavigne, S. Lehtola, F. März, M. Müller,
   F. Musil, H. Neugebauer, J. Pisarek, C. Plett, P. Pracht, F. Pultar,
   J. Seibert, P. Shushkov, S. Spicher, M. Stahn, M. Steiner, T. Strunk,
   J. Stückrath, T. Rose, and J. Unsleber
   
 * started run on 2024/04/06 at 11:13:53.164     

           -------------------------------------------------
          |                Calculation Setup                |
           -------------------------------------------------

          program call               : xtb struc.xyz --opt loose --input .xc1 --gfn2
          hostname                   : n-62-30-23
          coordinate file            : struc.xyz
          omp threads                :                     1

   ID    Z sym.   atoms
    1    7 N      1, 17
    2    6 C      2-6, 8, 9, 11-16, 18-23, 25, 26, 28-33
    3    8 O      7, 10, 24, 27
    4    1 H      34-72
constraining bond 20 61 to    4.1400000 Å, actual value:    2.1372506 Å

           -------------------------------------------------
          |                 G F N 2 - x T B                 |
           -------------------------------------------------

        Reference                      10.1021/acs.jctc.8b01176
      * Hamiltonian:
        H0-scaling (s, p, d)           1.850000    2.230000    2.230000
        zeta-weighting                 0.500000
      * Dispersion:
        s8                             2.700000
        a1                             0.520000
        a2                             5.000000
        s9                             5.000000
      * Repulsion:
        kExp                           1.500000    1.000000
        rExp                           1.000000
      * Coulomb:
        alpha                          2.000000
        third order                    shell-resolved
        anisotropic                    true
        a3                             3.000000
        a5                             4.000000
        cn-shift                       1.200000
        cn-exp                         4.000000
        max-rad                        5.000000


          ...................................................
          :                      SETUP                      :
          :.................................................:
          :  # basis functions                 171          :
          :  # atomic orbitals                 171          :
          :  # shells                          105          :
          :  # electrons                       180          :
          :  max. iterations                   250          :
          :  Hamiltonian                  GFN2-xTB          :
          :  restarted?                      false          :
          :  GBSA solvation                  false          :
          :  PC potential                    false          :
          :  electronic temp.         5000.0000000     K    :
          :  accuracy                    1.0000000          :
          :  -> integral cutoff          0.2500000E+02      :
          :  -> integral neglect         0.1000000E-07      :
          :  -> SCF convergence          0.1000000E-05 Eh   :
          :  -> wf. convergence          0.1000000E-03 e    :
          :  Broyden damping             0.4000000          :
          ...................................................

 iter      E             dE          RMSdq      gap      omega  full diag
   1   -100.5973919 -0.100597E+03  0.374E+00    3.20       0.0  T
   2   -100.7362642 -0.138872E+00  0.221E+00    1.08       1.0  T
   3   -100.7049001  0.313641E-01  0.141E+00    3.29       1.0  T
   4   -100.7721690 -0.672689E-01  0.526E-01    1.50       1.0  T
   5   -100.7894292 -0.172602E-01  0.190E-01    1.98       1.0  T
   6   -100.7911978 -0.176856E-02  0.792E-02    1.77       1.0  T
   7   -100.7914750 -0.277198E-03  0.375E-02    1.83       1.0  T
   8   -100.7914914 -0.164582E-04  0.140E-02    1.83       1.0  T
   9   -100.7914976 -0.616739E-05  0.474E-03    1.82       2.5  T
  10   -100.7914988 -0.118227E-05  0.172E-03    1.82       6.8  T
  11   -100.7914989 -0.139928E-06  0.766E-04    1.82      15.4  T
  12   -100.7914989 -0.773143E-08  0.318E-04    1.82      37.0  T

   *** convergence criteria satisfied after 12 iterations ***

         #    Occupation            Energy/Eh            Energy/eV
      -------------------------------------------------------------
         1        2.0000           -0.8078051             -21.9815
       ...           ...                  ...                  ...
        84        1.9966           -0.5157491             -14.0342
        85        1.9959           -0.5128261             -13.9547
        86        1.9840           -0.4911498             -13.3649
        87        1.9795           -0.4872543             -13.2589
        88        1.9640           -0.4782114             -13.0128
        89        1.8920           -0.4602041             -12.5228
        90        1.8557           -0.4553147             -12.3897 (HOMO)
        91        0.3166           -0.3884132             -10.5693 (LUMO)
        92        0.0218           -0.3434697              -9.3463
        93        0.0041           -0.3169887              -8.6257
        94        0.0034           -0.3139726              -8.5436
        95        0.0029           -0.3112618              -8.4699
       ...           ...                  ...                  ...
       171                          0.5822580              15.8440
      -------------------------------------------------------------
                  HL-Gap            0.0669015 Eh            1.8205 eV
             Fermi-level           -0.4148687 Eh          -11.2892 eV

 SCC (total)                   0 d,  0 h,  0 min,  0.189 sec
 SCC setup                      ...        0 min,  0.001 sec (  0.611%)
 Dispersion                     ...        0 min,  0.002 sec (  0.904%)
 classical contributions        ...        0 min,  0.000 sec (  0.227%)
 integral evaluation            ...        0 min,  0.018 sec (  9.532%)
 iterations                     ...        0 min,  0.098 sec ( 51.758%)
 molecular gradient             ...        0 min,  0.069 sec ( 36.613%)
 printout                       ...        0 min,  0.001 sec (  0.347%)

         :::::::::::::::::::::::::::::::::::::::::::::::::::::
         ::                     SUMMARY                     ::
         :::::::::::::::::::::::::::::::::::::::::::::::::::::
         :: total energy             -98.687953091363 Eh    ::
         :: gradient norm              0.534438256026 Eh/a0 ::
         :: HOMO-LUMO gap              1.820481192090 eV    ::
         ::.................................................::
         :: SCC energy              -100.791498925389 Eh    ::
         :: -> isotropic ES            0.109302908418 Eh    ::
         :: -> anisotropic ES          0.005415138735 Eh    ::
         :: -> anisotropic XC          0.042392697176 Eh    ::
         :: -> dispersion             -0.075527661009 Eh    ::
         :: repulsion energy           1.386151658689 Eh    ::
         :: add. restraining           0.716177822832 Eh    ::
         :: total charge               1.000000000108 e     ::
         :::::::::::::::::::::::::::::::::::::::::::::::::::::

      ----------------------------------------------------------- 
     |                   =====================                   |
     |                        A N C O P T                        |
     |                   =====================                   |
     |               Approximate Normal Coordinate               |
     |                Rational Function Optimizer                |
      ----------------------------------------------------------- 

          ...................................................
          :                      SETUP                      :
          :.................................................:
          :   optimization level             loose          :
          :   max. optcycles                   200          :
          :   ANC micro-cycles                  20          :
          :   degrees of freedom               210          :
          :.................................................:
          :   RF solver                   davidson          :
          :   write xtbopt.log                true          :
          :   linear?                        false          :
          :   energy convergence         0.5000000E-04 Eh   :
          :   grad. convergence          0.4000000E-02 Eh/α :
          :   maxmium RF displ.          1.0000000          :
          :   Hlow (freq-cutoff)         0.1000000E-01      :
          :   Hmax (freq-cutoff)         5.0000000          :
          :   S6 in model hess.         20.0000000          :
          ...................................................

generating ANC from model Hessian ...
Using Lindh-Hessian (1995)
 Shifting diagonal of input Hessian by   0.13845180732080339     
 Lowest  eigenvalues of input Hessian
    0.010000    0.119373    0.000000    0.000000    0.000000    0.000000
    0.000000    0.000000    0.138506    0.138595    0.138776    0.138900
    0.138974    0.139266    0.139409    0.139662    0.140154    0.140199
 Highest eigenvalues
    2.164418    2.174410    2.188534    2.307895    2.313267    2.315507


........................................................................
.............................. CYCLE    1 ..............................
........................................................................

 iter      E             dE          RMSdq      gap      omega  full diag
   1   -100.7914989 -0.100791E+03  0.114E-04    1.82       0.0  T
   2   -100.7914989 -0.678995E-10  0.713E-05    1.82     165.2  T
   3   -100.7914989  0.665210E-10  0.496E-05    1.82     237.5  T
     SCC iter.                  ...        0 min,  0.026 sec
     gradient                   ...        0 min,  0.069 sec
 * total energy  :   -98.6879531 Eh     change       -0.4035485E-08 Eh
   gradient norm :     0.5344381 Eh/α   predicted     0.0000000E+00 (-100.00%)
   displ. norm   :     0.5417108 α      lambda       -0.2629951E+00
   maximum displ.:     0.1990822 α      in ANC's #113, #135, #154, ...

........................................................................
.............................. CYCLE    2 ..............................
........................................................................

 iter      E             dE          RMSdq      gap      omega  full diag
   1   -100.7419828 -0.100742E+03  0.360E-01    1.85       0.0  T
   2   -100.7422387 -0.255955E-03  0.245E-01    1.88       1.0  T
   3   -100.7411631  0.107562E-02  0.132E-01    1.80       1.0  T
   4   -100.7425467 -0.138357E-02  0.330E-02    1.90       1.0  T
   5   -100.7426402 -0.935009E-04  0.121E-02    1.86       1.0  T
   6   -100.7426453 -0.515211E-05  0.633E-03    1.87       1.9  T
   7   -100.7426465 -0.115388E-05  0.187E-03    1.86       6.3  T
   8   -100.7426466 -0.802863E-07  0.734E-04    1.86      16.1  T
   9   -100.7426466 -0.181111E-07  0.309E-04    1.86      38.2  T
     SCC iter.                  ...        0 min,  0.073 sec
     gradient                   ...        0 min,  0.069 sec
 * total energy  :   -98.8974483 Eh     change       -0.2094952E+00 Eh
   gradient norm :     0.3094042 Eh/α   predicted    -0.1700907E+00 ( -18.81%)
   displ. norm   :     0.6218421 α      lambda       -0.1756829E+00
   maximum displ.:     0.2585248 α      in ANC's #113, #135, #2, ...

........................................................................
.............................. CYCLE    3 ..............................
........................................................................

 iter      E             dE          RMSdq      gap      omega  full diag
   1   -100.6660328 -0.100666E+03  0.292E-01    1.85       0.0  T
   2   -100.6658960  0.136764E-03  0.229E-01    1.92       1.0  T
   3   -100.6660097 -0.113691E-03  0.130E-01    1.86       1.0  T
   4   -100.6669025 -0.892765E-03  0.268E-02    1.88       1.0  T
   5   -100.6669346 -0.321245E-04  0.862E-03    1.89       1.4  T
   6   -100.6669352 -0.655372E-06  0.450E-03    1.89       2.6  T
   7   -100.6669357 -0.414441E-06  0.159E-03    1.89       7.4  T
   8   -100.6669358 -0.136173E-06  0.588E-04    1.89      20.0  T
   9   -100.6669358 -0.749206E-08  0.332E-04    1.89      35.5  T
     SCC iter.                  ...        0 min,  0.073 sec
     gradient                   ...        0 min,  0.069 sec
 * total energy  :   -99.0316238 Eh     change       -0.1341755E+00 Eh
   gradient norm :     0.1666451 Eh/α   predicted    -0.1218088E+00 (  -9.22%)
   displ. norm   :     0.5871977 α      lambda       -0.9079280E-01
   maximum displ.:     0.2618202 α      in ANC's #113, #135, #2, ...

........................................................................
.............................. CYCLE    4 ..............................
........................................................................

 iter      E             dE          RMSdq      gap      omega  full diag
   1   -100.5923451 -0.100592E+03  0.203E-01    1.85       0.0  T
   2   -100.5903977  0.194733E-02  0.257E-01    1.87       1.0  T
   3   -100.5944700 -0.407229E-02  0.105E-01    1.89       1.0  T
   4   -100.5941969  0.273138E-03  0.635E-02    1.83       1.0  T
   5   -100.5944582 -0.261343E-03  0.241E-02    1.90       1.0  T
   6   -100.5945057 -0.474421E-04  0.835E-03    1.87       1.4  T
   7   -100.5945078 -0.215940E-05  0.499E-03    1.88       2.4  T
   8   -100.5945086 -0.818653E-06  0.187E-03    1.88       6.3  T
   9   -100.5945087 -0.910036E-07  0.693E-04    1.88      17.0  T
  10   -100.5945088 -0.265279E-07  0.226E-04    1.88      52.1  T
     SCC iter.                  ...        0 min,  0.081 sec
     gradient                   ...        0 min,  0.069 sec
 * total energy  :   -99.0978773 Eh     change       -0.6625353E-01 Eh
   gradient norm :     0.0894004 Eh/α   predicted    -0.6104986E-01 (  -7.85%)
   displ. norm   :     0.4790446 α      lambda       -0.3728442E-01
   maximum displ.:     0.2128306 α      in ANC's #113, #121, #135, ...

........................................................................
.............................. CYCLE    5 ..............................
........................................................................

 iter      E             dE          RMSdq      gap      omega  full diag
   1   -100.5438510 -0.100544E+03  0.210E-01    1.86       0.0  T
   2   -100.5390617  0.478933E-02  0.294E-01    1.73       1.0  T
   3   -100.5466701 -0.760836E-02  0.934E-02    1.85       1.0  T
   4   -100.5460169  0.653134E-03  0.894E-02    1.77       1.0  T
   5   -100.5466915 -0.674553E-03  0.335E-02    1.85       1.0  T
   6   -100.5467798 -0.883005E-04  0.996E-03    1.82       1.2  T
   7   -100.5467845 -0.473329E-05  0.629E-03    1.83       1.9  T
   8   -100.5467861 -0.156722E-05  0.226E-03    1.83       5.2  T
   9   -100.5467862 -0.131117E-06  0.816E-04    1.83      14.5  T
  10   -100.5467863 -0.311211E-07  0.324E-04    1.83      36.4  T
     SCC iter.                  ...        0 min,  0.080 sec
     gradient                   ...        0 min,  0.070 sec
 * total energy  :   -99.1248320 Eh     change       -0.2695464E-01 Eh
   gradient norm :     0.0688009 Eh/α   predicted    -0.2292030E-01 ( -14.97%)
   displ. norm   :     0.4347324 α      lambda       -0.1896361E-01
   maximum displ.:     0.1763901 α      in ANC's #113, #121, #18, ...

........................................................................
.............................. CYCLE    6 ..............................
........................................................................

 iter      E             dE          RMSdq      gap      omega  full diag
   1   -100.5184647 -0.100518E+03  0.180E-01    1.81       0.0  T
   2   -100.5155976  0.286714E-02  0.195E-01    1.64       1.0  T
   3   -100.5184462 -0.284860E-02  0.109E-01    1.82       1.0  T
   4   -100.5191424 -0.696284E-03  0.438E-02    1.76       1.0  T
   5   -100.5192922 -0.149713E-03  0.153E-02    1.77       1.0  T
   6   -100.5193053 -0.131297E-04  0.759E-03    1.75       1.6  T
   7   -100.5193084 -0.311257E-05  0.531E-03    1.76       2.2  T
   8   -100.5193098 -0.138530E-05  0.187E-03    1.76       6.3  T
   9   -100.5193099 -0.141274E-06  0.612E-04    1.76      19.2  T
  10   -100.5193099 -0.411411E-08  0.367E-04    1.76      32.1  T
     SCC iter.                  ...        0 min,  0.080 sec
     gradient                   ...        0 min,  0.069 sec
 * total energy  :   -99.1395654 Eh     change       -0.1473338E-01 Eh
   gradient norm :     0.0788360 Eh/α   predicted    -0.1127381E-01 ( -23.48%)
   displ. norm   :     0.5161296 α      lambda       -0.1823470E-01
   maximum displ.:     0.1882330 α      in ANC's #113, #18, #121, ...

........................................................................
.............................. CYCLE    7 ..............................
........................................................................

 iter      E             dE          RMSdq      gap      omega  full diag
   1   -100.4992181 -0.100499E+03  0.323E-01    1.57       0.0  T
   2   -100.4933596  0.585855E-02  0.319E-01    1.35       1.0  T
   3   -100.5005349 -0.717535E-02  0.175E-01    1.72       1.0  T
   4   -100.5019786 -0.144365E-02  0.138E-01    1.55       1.0  T
   5   -100.5031720 -0.119341E-02  0.791E-02    1.68       1.0  T
   6   -100.5039778 -0.805780E-03  0.125E-02    1.65       1.0  T
   7   -100.5039883 -0.104998E-04  0.505E-03    1.65       2.3  T
   8   -100.5039894 -0.114608E-05  0.338E-03    1.65       3.5  T
   9   -100.5039898 -0.372122E-06  0.143E-03    1.65       8.3  T
  10   -100.5039899 -0.108287E-06  0.536E-04    1.65      22.0  T
  11   -100.5039899 -0.592222E-08  0.253E-04    1.65      46.5  T
     SCC iter.                  ...        0 min,  0.088 sec
     gradient                   ...        0 min,  0.069 sec
 * total energy  :   -99.1547303 Eh     change       -0.1516497E-01 Eh
   gradient norm :     0.0976899 Eh/α   predicted    -0.1154627E-01 ( -23.86%)
   displ. norm   :     0.6170790 α      lambda       -0.2326270E-01
   maximum displ.:     0.2319201 α      in ANC's #18, #113, #26, ...

........................................................................
.............................. CYCLE    8 ..............................
........................................................................

 iter      E             dE          RMSdq      gap      omega  full diag
   1   -100.4874420 -0.100487E+03  0.524E-01    0.97       0.0  T
   2   -100.4575491  0.298929E-01  0.733E-01    1.13       1.0  T
   3   -100.5030604 -0.455113E-01  0.157E-01    1.10       1.0  T
   4   -100.5027288  0.331576E-03  0.136E-01    1.08       1.0  T
   5   -100.5022726  0.456247E-03  0.114E-01    1.12       1.0  T
   6   -100.5043087 -0.203617E-02  0.234E-02    1.10       1.0  T
   7   -100.5043685 -0.597584E-04  0.805E-03    1.10       1.5  T
   8   -100.5043732 -0.470419E-05  0.408E-03    1.10       2.9  T
   9   -100.5043743 -0.106779E-05  0.212E-03    1.10       5.5  T
  10   -100.5043745 -0.261856E-06  0.776E-04    1.10      15.2  T
  11   -100.5043746 -0.196361E-07  0.346E-04    1.10      34.0  T
     SCC iter.                  ...        0 min,  0.088 sec
     gradient                   ...        0 min,  0.075 sec
 * total energy  :   -99.1744561 Eh     change       -0.1972579E-01 Eh
   gradient norm :     0.1128058 Eh/α   predicted    -0.1606040E-01 ( -18.58%)
   displ. norm   :     0.6053575 α      lambda       -0.3113666E-01
   maximum displ.:     0.2274303 α      in ANC's #18, #20, #26, ...

........................................................................
.............................. CYCLE    9 ..............................
........................................................................

 iter      E             dE          RMSdq      gap      omega  full diag
   1   -100.5061031 -0.100506E+03  0.593E-01    0.64       0.0  T
   2   -100.4321682  0.739349E-01  0.103E+00    1.39       1.0  T
   3   -100.5224935 -0.903253E-01  0.239E-01    0.64       1.0  T
   4   -100.5181016  0.439186E-02  0.269E-01    0.69       1.0  T
   5   -100.5259366 -0.783491E-02  0.123E-01    0.65       1.0  T
   6   -100.5277028 -0.176622E-02  0.231E-02    0.66       1.0  T
   7   -100.5277360 -0.332335E-04  0.125E-02    0.66       1.0  T
   8   -100.5277518 -0.157407E-04  0.531E-03    0.66       2.2  T
   9   -100.5277528 -0.105511E-05  0.218E-03    0.66       5.4  T
  10   -100.5277532 -0.342261E-06  0.661E-04    0.66      17.8  T
  11   -100.5277532 -0.272777E-07  0.319E-04    0.66      37.0  T
     SCC iter.                  ...        0 min,  0.088 sec
     gradient                   ...        0 min,  0.075 sec
 * total energy  :   -99.1998776 Eh     change       -0.2542148E-01 Eh
   gradient norm :     0.0949474 Eh/α   predicted    -0.2127345E-01 ( -16.32%)
   displ. norm   :     0.4898875 α      lambda       -0.3108711E-01
   maximum displ.:     0.1347823 α      in ANC's #197, #51, #18, ...

........................................................................
.............................. CYCLE   10 ..............................
........................................................................

 iter      E             dE          RMSdq      gap      omega  full diag
   1   -100.5472147 -0.100547E+03  0.639E-01    0.62       0.0  T
   2   -100.4071217  0.140093E+00  0.129E+00    1.26       1.0  T
   3   -100.5719014 -0.164780E+00  0.236E-01    0.42       1.0  T
   4   -100.5662163  0.568509E-02  0.286E-01    0.41       1.0  T
   5   -100.5752704 -0.905408E-02  0.850E-02    0.42       1.0  T
   6   -100.5759666 -0.696187E-03  0.235E-02    0.42       1.0  T
   7   -100.5760042 -0.376103E-04  0.132E-02    0.42       1.0  T
   8   -100.5760198 -0.155729E-04  0.577E-03    0.42       2.0  T
   9   -100.5760215 -0.165316E-05  0.123E-03    0.42       9.6  T
  10   -100.5760215 -0.608748E-07  0.790E-04    0.42      14.9  T
  11   -100.5760216 -0.459291E-07  0.313E-04    0.42      37.6  T
     SCC iter.                  ...        0 min,  0.088 sec
     gradient                   ...        0 min,  0.069 sec
 * total energy  :   -99.2117021 Eh     change       -0.1182448E-01 Eh
   gradient norm :     0.1188697 Eh/α   predicted    -0.1927390E-01 (  63.00%)
   displ. norm   :     0.2107207 α      lambda       -0.1332617E-01
   maximum displ.:     0.1088039 α      in ANC's #1, #18, #113, ...

........................................................................
.............................. CYCLE   11 ..............................
........................................................................

 iter      E             dE          RMSdq      gap      omega  full diag
   1   -100.5703560 -0.100570E+03  0.172E-01    0.50       0.0  T
   2   -100.5566696  0.136864E-01  0.388E-01    0.52       1.0  T
   3   -100.5717160 -0.150464E-01  0.831E-02    0.47       1.0  T
   4   -100.5700390  0.167705E-02  0.126E-01    0.47       1.0  T
   5   -100.5719852 -0.194622E-02  0.248E-02    0.47       1.0  T
   6   -100.5720532 -0.679379E-04  0.351E-03    0.47       3.4  T
   7   -100.5720532 -0.148504E-07  0.261E-03    0.47       4.5  T
   8   -100.5720536 -0.403756E-06  0.112E-03    0.47      10.5  T
   9   -100.5720536 -0.684924E-07  0.472E-04    0.47      25.0  T
  10   -100.5720537 -0.176619E-07  0.181E-04    0.47      65.2  T
     SCC iter.                  ...        0 min,  0.081 sec
     gradient                   ...        0 min,  0.069 sec
 * total energy  :   -99.2195558 Eh     change       -0.7853741E-02 Eh
   gradient norm :     0.0476518 Eh/α   predicted    -0.6959028E-02 ( -11.39%)
   displ. norm   :     0.2192805 α      lambda       -0.7412976E-02
   maximum displ.:     0.1099619 α      in ANC's #51, #65, #113, ...

........................................................................
.............................. CYCLE   12 ..............................
........................................................................

 iter      E             dE          RMSdq      gap      omega  full diag
   1   -100.5833188 -0.100583E+03  0.160E-01    0.45       0.0  T
   2   -100.5785564  0.476245E-02  0.233E-01    0.49       1.0  T
   3   -100.5826041 -0.404777E-02  0.129E-01    0.45       1.0  T
   4   -100.5834485 -0.844327E-03  0.798E-02    0.45       1.0  T
   5   -100.5838215 -0.373019E-03  0.429E-02    0.45       1.0  T
   6   -100.5840691 -0.247585E-03  0.863E-03    0.45       1.4  T
   7   -100.5840761 -0.702376E-05  0.281E-03    0.45       4.2  T
   8   -100.5840769 -0.773814E-06  0.125E-03    0.45       9.4  T
   9   -100.5840769 -0.294843E-08  0.727E-04    0.45      16.2  T
  10   -100.5840769 -0.374805E-07  0.286E-04    0.45      41.2  T
     SCC iter.                  ...        0 min,  0.081 sec
     gradient                   ...        0 min,  0.069 sec
 * total energy  :   -99.2251781 Eh     change       -0.5622306E-02 Eh
   gradient norm :     0.0278551 Eh/α   predicted    -0.3884997E-02 ( -30.90%)
   displ. norm   :     0.3911920 α      lambda       -0.6672531E-02
   maximum displ.:     0.2248751 α      in ANC's #1, #51, #65, ...

........................................................................
.............................. CYCLE   13 ..............................
........................................................................

 iter      E             dE          RMSdq      gap      omega  full diag
   1   -100.5920400 -0.100592E+03  0.241E-01    0.41       0.0  T
   2   -100.5741341  0.179059E-01  0.454E-01    0.50       1.0  T
   3   -100.5925607 -0.184266E-01  0.158E-01    0.38       1.0  T
   4   -100.5931994 -0.638642E-03  0.121E-01    0.37       1.0  T
   5   -100.5941814 -0.982054E-03  0.633E-02    0.37       1.0  T
   6   -100.5947103 -0.528857E-03  0.106E-02    0.37       1.1  T
   7   -100.5947197 -0.937837E-05  0.456E-03    0.37       2.6  T
   8   -100.5947221 -0.242492E-05  0.146E-03    0.37       8.0  T
   9   -100.5947220  0.588197E-07  0.102E-03    0.37      11.6  T
  10   -100.5947221 -0.915494E-07  0.351E-04    0.37      33.6  T
  11   -100.5947221 -0.903178E-08  0.189E-04    0.37      62.2  T
     SCC iter.                  ...        0 min,  0.089 sec
     gradient                   ...        0 min,  0.069 sec
 * total energy  :   -99.2291703 Eh     change       -0.3992208E-02 Eh
   gradient norm :     0.0336579 Eh/α   predicted    -0.3846857E-02 (  -3.64%)
   displ. norm   :     0.2583566 α      lambda       -0.3222006E-02
   maximum displ.:     0.1448602 α      in ANC's #51, #1, #65, ...

........................................................................
.............................. CYCLE   14 ..............................
........................................................................

 iter      E             dE          RMSdq      gap      omega  full diag
   1   -100.6005936 -0.100601E+03  0.135E-01    0.40       0.0  T
   2   -100.5968172  0.377637E-02  0.216E-01    0.39       1.0  T
   3   -100.6006001 -0.378284E-02  0.855E-02    0.39       1.0  T
   4   -100.5999148  0.685306E-03  0.986E-02    0.38       1.0  T
   5   -100.6010119 -0.109710E-02  0.234E-02    0.38       1.0  T
   6   -100.6010847 -0.728650E-04  0.381E-03    0.38       3.1  T
   7   -100.6010856 -0.848120E-06  0.223E-03    0.38       5.3  T
   8   -100.6010860 -0.473745E-06  0.755E-04    0.38      15.6  T
   9   -100.6010860 -0.126661E-09  0.337E-04    0.38      35.0  T
     SCC iter.                  ...        0 min,  0.073 sec
     gradient                   ...        0 min,  0.069 sec
 * total energy  :   -99.2307469 Eh     change       -0.1576603E-02 Eh
   gradient norm :     0.0329473 Eh/α   predicted    -0.1718537E-02 (   9.00%)
   displ. norm   :     0.2702690 α      lambda       -0.2887032E-02
   maximum displ.:     0.1963194 α      in ANC's #1, #51, #86, ...

........................................................................
.............................. CYCLE   15 ..............................
........................................................................

 iter      E             dE          RMSdq      gap      omega  full diag
   1   -100.6041000 -0.100604E+03  0.806E-02    0.36       0.0  T
   2   -100.6030069  0.109315E-02  0.131E-01    0.34       1.0  T
   3   -100.6042796 -0.127270E-02  0.404E-02    0.35       1.0  T
   4   -100.6035660  0.713524E-03  0.736E-02    0.34       1.0  T
   5   -100.6043455 -0.779418E-03  0.108E-02    0.35       1.1  T
   6   -100.6043559 -0.104710E-04  0.214E-03    0.35       5.5  T
   7   -100.6043562 -0.298993E-06  0.116E-03    0.35      10.2  T
   8   -100.6043563 -0.464260E-07  0.538E-04    0.35      21.9  T
   9   -100.6043563 -0.165923E-07  0.186E-04    0.35      63.5  T
     SCC iter.                  ...        0 min,  0.073 sec
     gradient                   ...        0 min,  0.075 sec
 * total energy  :   -99.2330037 Eh     change       -0.2256720E-02 Eh
   gradient norm :     0.0243252 Eh/α   predicted    -0.1549029E-02 ( -31.36%)
   displ. norm   :     0.3512933 α      lambda       -0.3578296E-02
   maximum displ.:     0.2156237 α      in ANC's #1, #51, #86, ...

........................................................................
.............................. CYCLE   16 ..............................
........................................................................

 iter      E             dE          RMSdq      gap      omega  full diag
   1   -100.6037433 -0.100604E+03  0.989E-02    0.32       0.0  T
   2   -100.6002317  0.351154E-02  0.169E-01    0.33       1.0  T
   3   -100.6038715 -0.363973E-02  0.700E-02    0.32       1.0  T
   4   -100.6038473  0.241717E-04  0.654E-02    0.33       1.0  T
   5   -100.6041266 -0.279277E-03  0.236E-02    0.32       1.0  T
   6   -100.6041937 -0.671516E-04  0.407E-03    0.32       2.9  T
   7   -100.6041953 -0.160634E-05  0.182E-03    0.32       6.5  T
   8   -100.6041955 -0.130758E-06  0.872E-04    0.32      13.5  T
   9   -100.6041955 -0.542200E-08  0.509E-04    0.32      23.2  T
     SCC iter.                  ...        0 min,  0.073 sec
     gradient                   ...        0 min,  0.069 sec
 * total energy  :   -99.2354640 Eh     change       -0.2460317E-02 Eh
   gradient norm :     0.0220511 Eh/α   predicted    -0.2009972E-02 ( -18.30%)
   displ. norm   :     0.3072274 α      lambda       -0.1867406E-02
   maximum displ.:     0.1651736 α      in ANC's #1, #51, #26, ...

........................................................................
.............................. CYCLE   17 ..............................
........................................................................

 iter      E             dE          RMSdq      gap      omega  full diag
   1   -100.6025328 -0.100603E+03  0.707E-02    0.31       0.0  T
   2   -100.6001169  0.241590E-02  0.138E-01    0.32       1.0  T
   3   -100.6026881 -0.257116E-02  0.459E-02    0.30       1.0  T
   4   -100.6026464  0.417135E-04  0.440E-02    0.31       1.0  T
   5   -100.6027772 -0.130814E-03  0.152E-02    0.30       1.0  T
   6   -100.6028048 -0.276155E-04  0.351E-03    0.31       3.4  T
   7   -100.6028056 -0.813489E-06  0.178E-03    0.31       6.6  T
   8   -100.6028058 -0.162753E-06  0.737E-04    0.31      16.0  T
   9   -100.6028058 -0.416667E-08  0.387E-04    0.31      30.4  T
     SCC iter.                  ...        0 min,  0.073 sec
     gradient                   ...        0 min,  0.069 sec
 * total energy  :   -99.2369043 Eh     change       -0.1440286E-02 Eh
   gradient norm :     0.0227519 Eh/α   predicted    -0.1021840E-02 ( -29.05%)
   displ. norm   :     0.3573252 α      lambda       -0.2060753E-02
   maximum displ.:     0.1806150 α      in ANC's #51, #1, #26, ...

........................................................................
.............................. CYCLE   18 ..............................
........................................................................

 iter      E             dE          RMSdq      gap      omega  full diag
   1   -100.6011238 -0.100601E+03  0.817E-02    0.29       0.0  T
   2   -100.5981069  0.301698E-02  0.154E-01    0.30       1.0  T
   3   -100.6012560 -0.314914E-02  0.557E-02    0.29       1.0  T
   4   -100.6012363  0.196795E-04  0.496E-02    0.29       1.0  T
   5   -100.6014149 -0.178587E-03  0.168E-02    0.29       1.0  T
   6   -100.6014456 -0.306777E-04  0.400E-03    0.29       2.9  T
   7   -100.6014464 -0.789880E-06  0.224E-03    0.29       5.3  T
   8   -100.6014467 -0.313950E-06  0.843E-04    0.29      14.0  T
   9   -100.6014467 -0.128689E-07  0.413E-04    0.29      28.6  T
     SCC iter.                  ...        0 min,  0.073 sec
     gradient                   ...        0 min,  0.069 sec
 * total energy  :   -99.2384223 Eh     change       -0.1518000E-02 Eh
   gradient norm :     0.0178679 Eh/α   predicted    -0.1161943E-02 ( -23.46%)
   displ. norm   :     0.3171120 α      lambda       -0.1545092E-02
   maximum displ.:     0.1501942 α      in ANC's #1, #51, #26, ...

........................................................................
.............................. CYCLE   19 ..............................
........................................................................

 iter      E             dE          RMSdq      gap      omega  full diag
   1   -100.6018980 -0.100602E+03  0.669E-02    0.27       0.0  T
   2   -100.6013008  0.597234E-03  0.793E-02    0.27       1.0  T
   3   -100.6016421 -0.341298E-03  0.594E-02    0.27       1.0  T
   4   -100.6017649 -0.122821E-03  0.545E-02    0.28       1.0  T
   5   -100.6019843 -0.219366E-03  0.145E-02    0.27       1.0  T
   6   -100.6020071 -0.228762E-04  0.272E-03    0.27       4.3  T
   7   -100.6020075 -0.358423E-06  0.144E-03    0.27       8.2  T
   8   -100.6020076 -0.956492E-07  0.605E-04    0.27      19.5  T
   9   -100.6020076 -0.129661E-07  0.269E-04    0.27      43.8  T
     SCC iter.                  ...        0 min,  0.073 sec
     gradient                   ...        0 min,  0.069 sec
 * total energy  :   -99.2395476 Eh     change       -0.1125325E-02 Eh
   gradient norm :     0.0151756 Eh/α   predicted    -0.8502743E-03 ( -24.44%)
   displ. norm   :     0.2729014 α      lambda       -0.1220547E-02
   maximum displ.:     0.1257282 α      in ANC's #1, #26, #18, ...

........................................................................
.............................. CYCLE   20 ..............................
........................................................................

 iter      E             dE          RMSdq      gap      omega  full diag
   1   -100.6043392 -0.100604E+03  0.665E-02    0.26       0.0  T
   2   -100.6039668  0.372355E-03  0.785E-02    0.25       1.0  T
   3   -100.6042351 -0.268323E-03  0.521E-02    0.26       1.0  T
   4   -100.6039765  0.258641E-03  0.569E-02    0.25       1.0  T
   5   -100.6044037 -0.427219E-03  0.134E-02    0.25       1.0  T
   6   -100.6044256 -0.219112E-04  0.248E-03    0.25       4.7  T
   7   -100.6044262 -0.522070E-06  0.931E-04    0.25      12.7  T
   8   -100.6044262 -0.402315E-07  0.453E-04    0.25      26.0  T
     SCC iter.                  ...        0 min,  0.065 sec
     gradient                   ...        0 min,  0.069 sec
 * total energy  :   -99.2404647 Eh     change       -0.9170964E-03 Eh
   gradient norm :     0.0171106 Eh/α   predicted    -0.6557364E-03 ( -28.50%)
   displ. norm   :     0.2982436 α      lambda       -0.1278883E-02
   maximum displ.:     0.1400315 α      in ANC's #1, #26, #18, ...
 * RMSD in coord.:     0.5089181 α      energy gain  -0.5525116E+00 Eh

generating ANC from model Hessian ...
Using Lindh-Hessian (1995)
 Shifting diagonal of input Hessian by    1.2394117493609851E-002
 Lowest  eigenvalues of input Hessian
    0.010000    0.011715    0.000000    0.000000    0.000000    0.000000
    0.000000    0.000000    0.012433    0.012452    0.012553    0.012642
    0.012722    0.012994    0.013107    0.013323    0.013434    0.013931
 Highest eigenvalues
    2.000906    2.034524    2.045182    2.123376    2.186474    2.197993


........................................................................
.............................. CYCLE   21 ..............................
........................................................................

 iter      E             dE          RMSdq      gap      omega  full diag
   1   -100.6069936 -0.100607E+03  0.819E-02    0.25       0.0  T
   2   -100.6053165  0.167708E-02  0.138E-01    0.23       1.0  T
   3   -100.6068579 -0.154140E-02  0.631E-02    0.25       1.0  T
   4   -100.6068173  0.405993E-04  0.579E-02    0.24       1.0  T
   5   -100.6071928 -0.375542E-03  0.111E-02    0.23       1.1  T
   6   -100.6072057 -0.128562E-04  0.267E-03    0.23       4.4  T
   7   -100.6072062 -0.482310E-06  0.144E-03    0.23       8.2  T
   8   -100.6072064 -0.197863E-06  0.498E-04    0.23      23.7  T
   9   -100.6072064 -0.302256E-08  0.249E-04    0.23      47.4  T
     SCC iter.                  ...        0 min,  0.073 sec
     gradient                   ...        0 min,  0.074 sec
 * total energy  :   -99.2414493 Eh     change       -0.9846566E-03 Eh
   gradient norm :     0.0184538 Eh/α   predicted     0.0000000E+00 (-100.00%)
   displ. norm   :     0.2702233 α      lambda       -0.1930431E-02
   maximum displ.:     0.1157686 α      in ANC's #1, #25, #24, ...

........................................................................
.............................. CYCLE   22 ..............................
........................................................................

 iter      E             dE          RMSdq      gap      omega  full diag
   1   -100.6077673 -0.100608E+03  0.464E-02    0.22       0.0  T
   2   -100.6076765  0.908240E-04  0.388E-02    0.22       1.0  T
   3   -100.6072582  0.418278E-03  0.629E-02    0.23       1.0  T
   4   -100.6077406 -0.482452E-03  0.218E-02    0.21       1.0  T
   5   -100.6077792 -0.385775E-04  0.515E-03    0.22       2.3  T
   6   -100.6077816 -0.234311E-05  0.223E-03    0.22       5.3  T
   7   -100.6077820 -0.394111E-06  0.850E-04    0.22      13.9  T
   8   -100.6077820 -0.297644E-07  0.415E-04    0.22      28.4  T
     SCC iter.                  ...        0 min,  0.065 sec
     gradient                   ...        0 min,  0.069 sec
 * total energy  :   -99.2430728 Eh     change       -0.1623461E-02 Eh
   gradient norm :     0.0089232 Eh/α   predicted    -0.1035736E-02 ( -36.20%)
   displ. norm   :     0.5949934 α      lambda       -0.2801470E-02
   maximum displ.:     0.2679005 α      in ANC's #1, #25, #2, ...

........................................................................
.............................. CYCLE   23 ..............................
........................................................................

 iter      E             dE          RMSdq      gap      omega  full diag
   1   -100.6070609 -0.100607E+03  0.114E-01    0.17       0.0  T
   2   -100.6066555  0.405436E-03  0.923E-02    0.18       1.0  T
   3   -100.6063612  0.294327E-03  0.957E-02    0.17       1.0  T
   4   -100.6064531 -0.918998E-04  0.846E-02    0.17       1.0  T
   5   -100.6071673 -0.714219E-03  0.186E-02    0.18       1.0  T
   6   -100.6072155 -0.482240E-04  0.597E-03    0.17       2.0  T
   7   -100.6072184 -0.284885E-05  0.226E-03    0.17       5.2  T
   8   -100.6072186 -0.252591E-06  0.982E-04    0.17      12.0  T
   9   -100.6072187 -0.730767E-07  0.397E-04    0.17      29.7  T
     SCC iter.                  ...        0 min,  0.073 sec
     gradient                   ...        0 min,  0.069 sec
 * total energy  :   -99.2451584 Eh     change       -0.2085583E-02 Eh
   gradient norm :     0.0110021 Eh/α   predicted    -0.1896741E-02 (  -9.05%)
   displ. norm   :     0.5455656 α      lambda       -0.1552569E-02
   maximum displ.:     0.2867894 α      in ANC's #1, #2, #25, ...

........................................................................
.............................. CYCLE   24 ..............................
........................................................................

 iter      E             dE          RMSdq      gap      omega  full diag
   1   -100.6054472 -0.100605E+03  0.158E-01    0.16       0.0  T
   2   -100.6032631  0.218413E-02  0.189E-01    0.18       1.0  T
   3   -100.6056742 -0.241112E-02  0.978E-02    0.15       1.0  T
   4   -100.6041017  0.157248E-02  0.120E-01    0.13       1.0  T
   5   -100.6061531 -0.205141E-02  0.289E-02    0.13       1.0  T
   6   -100.6062293 -0.762268E-04  0.511E-03    0.13       2.3  T
   7   -100.6062303 -0.937314E-06  0.262E-03    0.13       4.5  T
   8   -100.6062307 -0.388298E-06  0.103E-03    0.13      11.4  T
   9   -100.6062307 -0.304433E-07  0.504E-04    0.13      23.4  T
  10   -100.6062307 -0.210225E-07  0.205E-04    0.13      57.6  T
     SCC iter.                  ...        0 min,  0.081 sec
     gradient                   ...        0 min,  0.070 sec
 * total energy  :   -99.2462069 Eh     change       -0.1048508E-02 Eh
   gradient norm :     0.0157066 Eh/α   predicted    -0.1007818E-02 (  -3.88%)
   displ. norm   :     0.2665355 α      lambda       -0.6738102E-03
   maximum displ.:     0.1457816 α      in ANC's #1, #2, #13, ...

........................................................................
.............................. CYCLE   25 ..............................
........................................................................

 iter      E             dE          RMSdq      gap      omega  full diag
   1   -100.6084350 -0.100608E+03  0.981E-02    0.15       0.0  T
   2   -100.6069026  0.153240E-02  0.148E-01    0.13       1.0  T
   3   -100.6085520 -0.164934E-02  0.601E-02    0.13       1.0  T
   4   -100.6080162  0.535769E-03  0.771E-02    0.11       1.0  T
   5   -100.6088249 -0.808663E-03  0.156E-02    0.12       1.0  T
   6   -100.6088474 -0.225017E-04  0.288E-03    0.12       4.1  T
   7   -100.6088478 -0.382243E-06  0.128E-03    0.11       9.2  T
   8   -100.6088478 -0.655964E-07  0.541E-04    0.11      21.8  T
   9   -100.6088478 -0.738402E-08  0.225E-04    0.11      52.4  T
     SCC iter.                  ...        0 min,  0.073 sec
     gradient                   ...        0 min,  0.070 sec
 * total energy  :   -99.2466913 Eh     change       -0.4843556E-03 Eh
   gradient norm :     0.0112352 Eh/α   predicted    -0.3608715E-03 ( -25.49%)
   displ. norm   :     0.2019911 α      lambda       -0.5457298E-03
   maximum displ.:     0.1209258 α      in ANC's #2, #13, #1, ...

........................................................................
.............................. CYCLE   26 ..............................
........................................................................

 iter      E             dE          RMSdq      gap      omega  full diag
   1   -100.6121896 -0.100612E+03  0.616E-02    0.14       0.0  T
   2   -100.6112812  0.908398E-03  0.102E-01    0.09       1.0  T
   3   -100.6121387 -0.857463E-03  0.447E-02    0.13       1.0  T
   4   -100.6120084  0.130262E-03  0.487E-02    0.12       1.0  T
   5   -100.6123164 -0.307908E-03  0.582E-03    0.12       2.0  T
   6   -100.6123182 -0.188140E-05  0.299E-03    0.12       3.9  T
   7   -100.6123194 -0.112908E-05  0.876E-04    0.12      13.5  T
   8   -100.6123194 -0.284152E-07  0.396E-04    0.12      29.8  T
   9   -100.6123194 -0.768482E-08  0.151E-04    0.12      77.8  T
     SCC iter.                  ...        0 min,  0.073 sec
     gradient                   ...        0 min,  0.069 sec
 * total energy  :   -99.2470256 Eh     change       -0.3343748E-03 Eh
   gradient norm :     0.0058647 Eh/α   predicted    -0.2840372E-03 ( -15.05%)
   displ. norm   :     0.1740933 α      lambda       -0.1899401E-03
   maximum displ.:     0.0985591 α      in ANC's #2, #1, #13, ...

........................................................................
.............................. CYCLE   27 ..............................
........................................................................

 iter      E             dE          RMSdq      gap      omega  full diag
   1   -100.6117200 -0.100612E+03  0.551E-02    0.15       0.0  T
   2   -100.6109698  0.750175E-03  0.961E-02    0.08       1.0  T
   3   -100.6117204 -0.750550E-03  0.378E-02    0.13       1.0  T
   4   -100.6117224 -0.199562E-05  0.336E-02    0.12       1.0  T
   5   -100.6118570 -0.134584E-03  0.864E-03    0.12       1.4  T
   6   -100.6118637 -0.673644E-05  0.160E-03    0.12       7.4  T
   7   -100.6118639 -0.171516E-06  0.609E-04    0.12      19.3  T
   8   -100.6118639 -0.106123E-07  0.275E-04    0.12      42.8  T
     SCC iter.                  ...        0 min,  0.065 sec
     gradient                   ...        0 min,  0.075 sec
 * total energy  :   -99.2471745 Eh     change       -0.1488332E-03 Eh
   gradient norm :     0.0053502 Eh/α   predicted    -0.9787359E-04 ( -34.24%)
   displ. norm   :     0.2942720 α      lambda       -0.3092200E-03
   maximum displ.:     0.1487920 α      in ANC's #2, #22, #1, ...

........................................................................
.............................. CYCLE   28 ..............................
........................................................................

 iter      E             dE          RMSdq      gap      omega  full diag
   1   -100.6105657 -0.100611E+03  0.751E-02    0.18       0.0  T
   2   -100.6091556  0.141007E-02  0.129E-01    0.07       1.0  T
   3   -100.6105135 -0.135783E-02  0.551E-02    0.16       1.0  T
   4   -100.6105727 -0.591809E-04  0.449E-02    0.14       1.0  T
   5   -100.6108072 -0.234517E-03  0.120E-02    0.14       1.0  T
   6   -100.6108198 -0.125887E-04  0.227E-03    0.13       5.2  T
   7   -100.6108201 -0.382762E-06  0.847E-04    0.13      13.9  T
   8   -100.6108202 -0.221416E-07  0.380E-04    0.13      31.0  T
     SCC iter.                  ...        0 min,  0.065 sec
     gradient                   ...        0 min,  0.069 sec
 * total energy  :   -99.2474069 Eh     change       -0.2324186E-03 Eh
   gradient norm :     0.0064693 Eh/α   predicted    -0.1680039E-03 ( -27.71%)
   displ. norm   :     0.3708651 α      lambda       -0.3076662E-03
   maximum displ.:     0.1757379 α      in ANC's #2, #22, #1, ...

........................................................................
.............................. CYCLE   29 ..............................
........................................................................

 iter      E             dE          RMSdq      gap      omega  full diag
   1   -100.6085824 -0.100609E+03  0.924E-02    0.22       0.0  T
   2   -100.6069338  0.164865E-02  0.144E-01    0.06       1.0  T
   3   -100.6085360 -0.160228E-02  0.669E-02    0.20       1.0  T
   4   -100.6085322  0.389345E-05  0.577E-02    0.17       1.0  T
   5   -100.6089387 -0.406532E-03  0.161E-02    0.16       1.0  T
   6   -100.6089614 -0.226967E-04  0.271E-03    0.16       4.3  T
   7   -100.6089619 -0.505278E-06  0.102E-03    0.16      11.6  T
   8   -100.6089619 -0.156550E-07  0.507E-04    0.16      23.3  T
   9   -100.6089619 -0.126475E-07  0.153E-04    0.16      77.0  T
     SCC iter.                  ...        0 min,  0.073 sec
     gradient                   ...        0 min,  0.069 sec
 * total energy  :   -99.2476333 Eh     change       -0.2264461E-03 Eh
   gradient norm :     0.0081275 Eh/α   predicted    -0.1749934E-03 ( -22.72%)
   displ. norm   :     0.3435557 α      lambda       -0.2819774E-03
   maximum displ.:     0.1672521 α      in ANC's #22, #2, #1, ...

........................................................................
.............................. CYCLE   30 ..............................
........................................................................

 iter      E             dE          RMSdq      gap      omega  full diag
   1   -100.6076114 -0.100608E+03  0.920E-02    0.25       0.0  T
   2   -100.6063466  0.126479E-02  0.131E-01    0.09       1.0  T
   3   -100.6077439 -0.139732E-02  0.576E-02    0.23       1.0  T
   4   -100.6074317  0.312163E-03  0.634E-02    0.19       1.0  T
   5   -100.6079767 -0.544930E-03  0.176E-02    0.20       1.0  T
   6   -100.6080034 -0.267754E-04  0.248E-03    0.19       4.8  T
   7   -100.6080037 -0.314922E-06  0.106E-03    0.19      11.1  T
   8   -100.6080038 -0.234644E-07  0.527E-04    0.19      22.4  T
   9   -100.6080038 -0.139897E-07  0.164E-04    0.19      72.1  T
     SCC iter.                  ...        0 min,  0.073 sec
     gradient                   ...        0 min,  0.069 sec
 * total energy  :   -99.2478301 Eh     change       -0.1967781E-03 Eh
   gradient norm :     0.0093425 Eh/α   predicted    -0.1576300E-03 ( -19.89%)
   displ. norm   :     0.2338257 α      lambda       -0.2639559E-03
   maximum displ.:     0.1024167 α      in ANC's #22, #2, #1, ...

........................................................................
.............................. CYCLE   31 ..............................
........................................................................

 iter      E             dE          RMSdq      gap      omega  full diag
   1   -100.6090091 -0.100609E+03  0.648E-02    0.25       0.0  T
   2   -100.6084865  0.522638E-03  0.842E-02    0.15       1.0  T
   3   -100.6091445 -0.657951E-03  0.331E-02    0.23       1.0  T
   4   -100.6091390  0.550569E-05  0.208E-02    0.21       1.0  T
   5   -100.6091521 -0.131544E-04  0.205E-02    0.22       1.0  T
   6   -100.6092022 -0.500983E-04  0.173E-03    0.21       6.8  T
   7   -100.6092023 -0.796720E-07  0.935E-04    0.21      12.6  T
   8   -100.6092023 -0.440454E-07  0.390E-04    0.21      30.2  T
     SCC iter.                  ...        0 min,  0.065 sec
     gradient                   ...        0 min,  0.070 sec
 * total energy  :   -99.2480220 Eh     change       -0.1919150E-03 Eh
   gradient norm :     0.0069253 Eh/α   predicted    -0.1391959E-03 ( -27.47%)
   displ. norm   :     0.1988692 α      lambda       -0.2095336E-03
   maximum displ.:     0.0760573 α      in ANC's #2, #17, #22, ...

........................................................................
.............................. CYCLE   32 ..............................
........................................................................

 iter      E             dE          RMSdq      gap      omega  full diag
   1   -100.6107427 -0.100611E+03  0.560E-02    0.26       0.0  T
   2   -100.6103441  0.398618E-03  0.728E-02    0.18       1.0  T
   3   -100.6108492 -0.505094E-03  0.276E-02    0.24       1.0  T
   4   -100.6108732 -0.240228E-04  0.135E-02    0.24       1.0  T
   5   -100.6108874 -0.141910E-04  0.317E-03    0.23       3.7  T
   6   -100.6108831  0.430318E-05  0.626E-03    0.23       1.9  T
   7   -100.6108884 -0.531149E-05  0.760E-04    0.23      15.5  T
   8   -100.6108884 -0.105768E-07  0.366E-04    0.23      32.2  T
   9   -100.6108884 -0.424532E-08  0.146E-04    0.23      80.6  T
     SCC iter.                  ...        0 min,  0.073 sec
     gradient                   ...        0 min,  0.069 sec
 * total energy  :   -99.2481656 Eh     change       -0.1435888E-03 Eh
   gradient norm :     0.0034610 Eh/α   predicted    -0.1089112E-03 ( -24.15%)
   displ. norm   :     0.2848674 α      lambda       -0.1294847E-03
   maximum displ.:     0.1252184 α      in ANC's #1, #2, #22, ...

........................................................................
.............................. CYCLE   33 ..............................
........................................................................

 iter      E             dE          RMSdq      gap      omega  full diag
   1   -100.6100283 -0.100610E+03  0.100E-01    0.33       0.0  T
   2   -100.6083511  0.167726E-02  0.147E-01    0.15       1.0  T
   3   -100.6103984 -0.204730E-02  0.515E-02    0.29       1.0  T
   4   -100.6099469  0.451480E-03  0.660E-02    0.25       1.0  T
   5   -100.6105550 -0.608156E-03  0.187E-02    0.27       1.0  T
   6   -100.6105834 -0.283792E-04  0.274E-03    0.26       4.3  T
   7   -100.6105837 -0.282884E-06  0.126E-03    0.26       9.4  T
   8   -100.6105837 -0.384852E-07  0.642E-04    0.26      18.4  T
   9   -100.6105838 -0.218127E-07  0.159E-04    0.26      74.0  T
     SCC iter.                  ...        0 min,  0.073 sec
     gradient                   ...        0 min,  0.074 sec
 * total energy  :   -99.2482561 Eh     change       -0.9052971E-04 Eh
   gradient norm :     0.0042030 Eh/α   predicted    -0.6999876E-04 ( -22.68%)
   displ. norm   :     0.2355950 α      lambda       -0.1461860E-03
   maximum displ.:     0.1045188 α      in ANC's #1, #17, #7, ...

........................................................................
.............................. CYCLE   34 ..............................
........................................................................

 iter      E             dE          RMSdq      gap      omega  full diag
   1   -100.6110661 -0.100611E+03  0.103E-01    0.37       0.0  T
   2   -100.6091061  0.195999E-02  0.157E-01    0.17       1.0  T
   3   -100.6116070 -0.250082E-02  0.454E-02    0.32       1.0  T
   4   -100.6112613  0.345701E-03  0.566E-02    0.29       1.0  T
   5   -100.6116918 -0.430594E-03  0.222E-02    0.31       1.0  T
   6   -100.6117359 -0.440792E-04  0.300E-03    0.30       3.9  T
   7   -100.6117362 -0.293650E-06  0.137E-03    0.30       8.6  T
   8   -100.6117363 -0.305559E-07  0.687E-04    0.30      17.2  T
   9   -100.6117363 -0.265077E-07  0.150E-04    0.30      78.8  T
     SCC iter.                  ...        0 min,  0.073 sec
     gradient                   ...        0 min,  0.069 sec
 * total energy  :   -99.2483340 Eh     change       -0.7790420E-04 Eh
   gradient norm :     0.0051580 Eh/α   predicted    -0.7715104E-04 (  -0.97%)
   displ. norm   :     0.3975471 α      lambda       -0.1577221E-03
   maximum displ.:     0.1929915 α      in ANC's #2, #1, #17, ...

........................................................................
.............................. CYCLE   35 ..............................
........................................................................

 iter      E             dE          RMSdq      gap      omega  full diag
   1   -100.6093421 -0.100609E+03  0.101E-01    0.38       0.0  T
   2   -100.6082713  0.107088E-02  0.115E-01    0.23       1.0  T
   3   -100.6091328 -0.861570E-03  0.802E-02    0.38       1.0  T
   4   -100.6086640  0.468830E-03  0.826E-02    0.33       1.0  T
   5   -100.6096322 -0.968211E-03  0.136E-02    0.33       1.0  T
   6   -100.6096433 -0.111185E-04  0.497E-03    0.33       2.4  T
   7   -100.6096461 -0.279177E-05  0.184E-03    0.33       6.4  T
   8   -100.6096462 -0.125420E-06  0.874E-04    0.33      13.5  T
   9   -100.6096463 -0.554056E-07  0.211E-04    0.33      55.9  T
     SCC iter.                  ...        0 min,  0.073 sec
     gradient                   ...        0 min,  0.069 sec
 * total energy  :   -99.2483891 Eh     change       -0.5508161E-04 Eh
   gradient norm :     0.0067414 Eh/α   predicted    -0.9132685E-04 (  65.80%)
   displ. norm   :     0.1460382 α      lambda       -0.1282258E-03
   maximum displ.:     0.0823064 α      in ANC's #1, #17, #7, ...

........................................................................
.............................. CYCLE   36 ..............................
........................................................................

 iter      E             dE          RMSdq      gap      omega  full diag
   1   -100.6091185 -0.100609E+03  0.877E-02    0.42       0.0  T
   2   -100.6075929  0.152565E-02  0.134E-01    0.24       1.0  T
   3   -100.6094819 -0.188904E-02  0.434E-02    0.38       1.0  T
   4   -100.6093580  0.123911E-03  0.433E-02    0.35       1.0  T
   5   -100.6095941 -0.236026E-03  0.184E-02    0.36       1.0  T
   6   -100.6096231 -0.290066E-04  0.255E-03    0.36       4.6  T
   7   -100.6096235 -0.421112E-06  0.114E-03    0.36      10.4  T
   8   -100.6096235 -0.964049E-08  0.704E-04    0.36      16.7  T
   9   -100.6096235 -0.393288E-07  0.154E-04    0.36      76.4  T
     SCC iter.                  ...        0 min,  0.074 sec
     gradient                   ...        0 min,  0.069 sec
 * total energy  :   -99.2484771 Eh     change       -0.8801544E-04 Eh
   gradient norm :     0.0058140 Eh/α   predicted    -0.6548263E-04 ( -25.60%)
   displ. norm   :     0.1937058 α      lambda       -0.1523222E-03
   maximum displ.:     0.0666526 α      in ANC's #17, #1, #9, ...

........................................................................
.............................. CYCLE   37 ..............................
........................................................................

 iter      E             dE          RMSdq      gap      omega  full diag
   1   -100.6103791 -0.100610E+03  0.822E-02    0.44       0.0  T
   2   -100.6092212  0.115790E-02  0.116E-01    0.28       1.0  T
   3   -100.6106076 -0.138642E-02  0.455E-02    0.41       1.0  T
   4   -100.6104597  0.147902E-03  0.450E-02    0.38       1.0  T
   5   -100.6107237 -0.264071E-03  0.183E-02    0.39       1.0  T
   6   -100.6107547 -0.309400E-04  0.272E-03    0.38       4.3  T
   7   -100.6107551 -0.434927E-06  0.125E-03    0.38       9.4  T
   8   -100.6107551 -0.865131E-08  0.706E-04    0.38      16.7  T
   9   -100.6107552 -0.493068E-07  0.150E-04    0.38      78.6  T
     SCC iter.                  ...        0 min,  0.073 sec
     gradient                   ...        0 min,  0.069 sec
 * total energy  :   -99.2485570 Eh     change       -0.7983395E-04 Eh
   gradient norm :     0.0047271 Eh/α   predicted    -0.7902023E-04 (  -1.02%)
   displ. norm   :     0.5191739 α      lambda       -0.1428657E-03
   maximum displ.:     0.2176186 α      in ANC's #1, #17, #2, ...

........................................................................
.............................. CYCLE   38 ..............................
........................................................................

 iter      E             dE          RMSdq      gap      omega  full diag
   1   -100.6078263 -0.100608E+03  0.184E-01    0.55       0.0  T
   2   -100.6032036  0.462273E-02  0.223E-01    0.24       1.0  T
   3   -100.6080877 -0.488414E-02  0.125E-01    0.53       1.0  T
   4   -100.6075010  0.586790E-03  0.107E-01    0.43       1.0  T
   5   -100.6091047 -0.160376E-02  0.341E-02    0.46       1.0  T
   6   -100.6092067 -0.101952E-03  0.638E-03    0.44       1.8  T
   7   -100.6092091 -0.240177E-05  0.315E-03    0.44       3.7  T
   8   -100.6092092 -0.130915E-06  0.172E-03    0.44       6.9  T
   9   -100.6092095 -0.299106E-06  0.317E-04    0.44      37.2  T
  10   -100.6092095 -0.191970E-08  0.195E-04    0.44      60.5  T
     SCC iter.                  ...        0 min,  0.081 sec
     gradient                   ...        0 min,  0.075 sec
 * total energy  :   -99.2486560 Eh     change       -0.9899935E-04 Eh
   gradient norm :     0.0099895 Eh/α   predicted    -0.9068716E-04 (  -8.40%)
   displ. norm   :     0.4095876 α      lambda       -0.1940965E-03
   maximum displ.:     0.1568437 α      in ANC's #2, #1, #17, ...

........................................................................
.............................. CYCLE   39 ..............................
........................................................................

 iter      E             dE          RMSdq      gap      omega  full diag
   1   -100.6083883 -0.100608E+03  0.117E-01    0.52       0.0  T
   2   -100.6074969  0.891323E-03  0.103E-01    0.38       1.0  T
   3   -100.6078535 -0.356601E-03  0.101E-01    0.55       1.0  T
   4   -100.6082834 -0.429910E-03  0.506E-02    0.47       1.0  T
   5   -100.6086046 -0.321127E-03  0.235E-02    0.48       1.0  T
   6   -100.6086614 -0.568381E-04  0.663E-03    0.47       1.8  T
   7   -100.6086653 -0.392749E-05  0.286E-03    0.47       4.1  T
   8   -100.6086657 -0.326178E-06  0.130E-03    0.47       9.1  T
   9   -100.6086658 -0.166047E-06  0.210E-04    0.47      56.0  T
  10   -100.6086658 -0.191307E-09  0.122E-04    0.47      96.8  T
     SCC iter.                  ...        0 min,  0.081 sec
     gradient                   ...        0 min,  0.069 sec
 * total energy  :   -99.2488082 Eh     change       -0.1521837E-03 Eh
   gradient norm :     0.0122680 Eh/α   predicted    -0.1133335E-03 ( -25.53%)
   displ. norm   :     0.4181806 α      lambda       -0.5360856E-03
   maximum displ.:     0.1625969 α      in ANC's #9, #17, #7, ...

........................................................................
.............................. CYCLE   40 ..............................
........................................................................

 iter      E             dE          RMSdq      gap      omega  full diag
   1   -100.6112733 -0.100611E+03  0.119E-01    0.54       0.0  T
   2   -100.6105593  0.714010E-03  0.921E-02    0.43       1.0  T
   3   -100.6105074  0.519343E-04  0.107E-01    0.57       1.0  T
   4   -100.6114675 -0.960162E-03  0.303E-02    0.52       1.0  T
   5   -100.6114095  0.579814E-04  0.322E-02    0.49       1.0  T
   6   -100.6115251 -0.115598E-03  0.119E-02    0.50       1.0  T
   7   -100.6115448 -0.196193E-04  0.345E-03    0.50       3.4  T
   8   -100.6115453 -0.524369E-06  0.150E-03    0.50       7.9  T
   9   -100.6115455 -0.194704E-06  0.246E-04    0.50      48.0  T
  10   -100.6115455 -0.649990E-09  0.141E-04    0.50      83.7  T
     SCC iter.                  ...        0 min,  0.081 sec
     gradient                   ...        0 min,  0.070 sec
 * total energy  :   -99.2491893 Eh     change       -0.3811926E-03 Eh
   gradient norm :     0.0135138 Eh/α   predicted    -0.3149182E-03 ( -17.39%)
   displ. norm   :     0.5792261 α      lambda       -0.8004250E-03
   maximum displ.:     0.2172924 α      in ANC's #9, #17, #5, ...

........................................................................
.............................. CYCLE   41 ..............................
........................................................................

 iter      E             dE          RMSdq      gap      omega  full diag
   1   -100.6168279 -0.100617E+03  0.215E-01    0.66       0.0  T
   2   -100.6116112  0.521669E-02  0.226E-01    0.37       1.0  T
   3   -100.6158225 -0.421131E-02  0.172E-01    0.68       1.0  T
   4   -100.6181355 -0.231297E-02  0.358E-02    0.58       1.0  T
   5   -100.6182121 -0.765375E-04  0.156E-02    0.56       1.0  T
   6   -100.6182046  0.745852E-05  0.165E-02    0.55       1.0  T
   7   -100.6182292 -0.246256E-04  0.876E-03    0.56       1.3  T
   8   -100.6182376 -0.838790E-05  0.200E-03    0.56       5.9  T
   9   -100.6182379 -0.286801E-06  0.370E-04    0.56      31.9  T
  10   -100.6182379 -0.211975E-08  0.200E-04    0.56      59.0  T
     SCC iter.                  ...        0 min,  0.081 sec
     gradient                   ...        0 min,  0.075 sec
 * total energy  :   -99.2497498 Eh     change       -0.5604234E-03 Eh
   gradient norm :     0.0158358 Eh/α   predicted    -0.5344880E-03 (  -4.63%)
   displ. norm   :     0.2925062 α      lambda       -0.7854507E-03
   maximum displ.:     0.1339333 α      in ANC's #9, #5, #4, ...

........................................................................
.............................. CYCLE   42 ..............................
........................................................................

 iter      E             dE          RMSdq      gap      omega  full diag
   1   -100.6276436 -0.100628E+03  0.111E-01    0.63       0.0  T
   2   -100.6266891  0.954465E-03  0.103E-01    0.50       1.0  T
   3   -100.6271604 -0.471247E-03  0.960E-02    0.65       1.0  T
   4   -100.6279228 -0.762446E-03  0.231E-02    0.60       1.0  T
   5   -100.6278532  0.695883E-04  0.294E-02    0.57       1.0  T
   6   -100.6279312 -0.779515E-04  0.142E-02    0.59       1.0  T
   7   -100.6279604 -0.292122E-04  0.437E-03    0.58       2.7  T
   8   -100.6279616 -0.126548E-05  0.198E-03    0.59       5.9  T
   9   -100.6279619 -0.298303E-06  0.291E-04    0.59      40.5  T
  10   -100.6279620 -0.514920E-08  0.139E-04    0.59      84.7  T
     SCC iter.                  ...        0 min,  0.081 sec
     gradient                   ...        0 min,  0.070 sec
 * total energy  :   -99.2500933 Eh     change       -0.3434997E-03 Eh
   gradient norm :     0.0171110 Eh/α   predicted    -0.4263287E-03 (  24.11%)
   displ. norm   :     0.6028281 α      lambda       -0.1039845E-02
   maximum displ.:     0.2275614 α      in ANC's #17, #2, #7, ...
 * RMSD in coord.:     0.6788456 α      energy gain  -0.9628583E-02 Eh

generating ANC from model Hessian ...
Using Lindh-Hessian (1995)
 Shifting diagonal of input Hessian by    1.0111833813570215E-002
 Lowest  eigenvalues of input Hessian
    0.010000    0.000000    0.000000    0.000000    0.000000    0.000000
    0.000000    0.010151    0.010165    0.010215    0.010365    0.010429
    0.010698    0.010775    0.011027    0.011061    0.011369    0.011675
 Highest eigenvalues
    1.983363    2.031158    2.041875    2.110649    2.160466    2.180688


........................................................................
.............................. CYCLE   43 ..............................
........................................................................

 iter      E             dE          RMSdq      gap      omega  full diag
   1   -100.6233951 -0.100623E+03  0.191E-01    0.63       0.0  T
   2   -100.6233238  0.713609E-04  0.103E-01    0.58       1.0  T
   3   -100.6203243  0.299943E-02  0.183E-01    0.76       1.0  T
   4   -100.6234853 -0.316098E-02  0.242E-02    0.60       1.0  T
   5   -100.6234010  0.843403E-04  0.325E-02    0.62       1.0  T
   6   -100.6235370 -0.135996E-03  0.104E-02    0.61       1.1  T
   7   -100.6235453 -0.831113E-05  0.534E-03    0.61       2.2  T
   8   -100.6235471 -0.176663E-05  0.170E-03    0.61       6.9  T
   9   -100.6235475 -0.430014E-06  0.529E-04    0.61      22.3  T
  10   -100.6235475 -0.129442E-07  0.331E-04    0.61      35.6  T
     SCC iter.                  ...        0 min,  0.081 sec
     gradient                   ...        0 min,  0.069 sec
 * total energy  :   -99.2499521 Eh     change        0.1411602E-03 Eh
   gradient norm :     0.0253386 Eh/α   predicted     0.0000000E+00 (-100.00%)
   displ. norm   :     0.1734357 α      lambda       -0.1801214E-02
   maximum displ.:     0.1092489 α      in ANC's #11, #38, #1, ...

........................................................................
.............................. CYCLE   44 ..............................
........................................................................

 iter      E             dE          RMSdq      gap      omega  full diag
   1   -100.6247489 -0.100625E+03  0.101E-01    0.59       0.0  T
   2   -100.6244720  0.276862E-03  0.816E-02    0.65       1.0  T
   3   -100.6239400  0.532025E-03  0.976E-02    0.54       1.0  T
   4   -100.6248035 -0.863484E-03  0.175E-02    0.60       1.0  T
   5   -100.6247862  0.172562E-04  0.192E-02    0.61       1.0  T
   6   -100.6248258 -0.395518E-04  0.788E-03    0.61       1.5  T
   7   -100.6248301 -0.431319E-05  0.375E-03    0.61       3.1  T
   8   -100.6248316 -0.147984E-05  0.952E-04    0.61      12.4  T
   9   -100.6248316 -0.597585E-07  0.307E-04    0.61      38.4  T
  10   -100.6248316 -0.582580E-08  0.112E-04    0.61     105.1  T
     SCC iter.                  ...        0 min,  0.080 sec
     gradient                   ...        0 min,  0.070 sec
 * total energy  :   -99.2509092 Eh     change       -0.9571290E-03 Eh
   gradient norm :     0.0097557 Eh/α   predicted    -0.9277102E-03 (  -3.07%)
   displ. norm   :     0.1531696 α      lambda       -0.5457213E-03
   maximum displ.:     0.0830652 α      in ANC's #1, #11, #4, ...

........................................................................
.............................. CYCLE   45 ..............................
........................................................................

 iter      E             dE          RMSdq      gap      omega  full diag
   1   -100.6275784 -0.100628E+03  0.971E-02    0.61       0.0  T
   2   -100.6275778  0.555338E-06  0.585E-02    0.62       1.0  T
   3   -100.6272156  0.362200E-03  0.595E-02    0.56       1.0  T
   4   -100.6275810 -0.365367E-03  0.754E-03    0.61       1.6  T
   5   -100.6275700  0.110141E-04  0.109E-02    0.61       1.1  T
   6   -100.6275837 -0.137311E-04  0.422E-03    0.61       2.8  T
   7   -100.6275858 -0.210112E-05  0.136E-03    0.61       8.6  T
   8   -100.6275859 -0.112571E-06  0.541E-04    0.61      21.8  T
   9   -100.6275859 -0.164896E-07  0.156E-04    0.61      75.5  T
     SCC iter.                  ...        0 min,  0.073 sec
     gradient                   ...        0 min,  0.069 sec
 * total energy  :   -99.2510844 Eh     change       -0.1751980E-03 Eh
   gradient norm :     0.0071472 Eh/α   predicted    -0.2792879E-03 (  59.41%)
   displ. norm   :     0.0954779 α      lambda       -0.2764358E-03
   maximum displ.:     0.0632772 α      in ANC's #11, #26, #32, ...

........................................................................
.............................. CYCLE   46 ..............................
........................................................................

 iter      E             dE          RMSdq      gap      omega  full diag
   1   -100.6288369 -0.100629E+03  0.441E-02    0.62       0.0  T
   2   -100.6288130  0.238678E-04  0.290E-02    0.60       1.0  T
   3   -100.6285765  0.236501E-03  0.499E-02    0.65       1.0  T
   4   -100.6288315 -0.254923E-03  0.111E-02    0.62       1.1  T
   5   -100.6288354 -0.391816E-05  0.841E-03    0.61       1.4  T
   6   -100.6288439 -0.847458E-05  0.261E-03    0.62       4.5  T
   7   -100.6288448 -0.945041E-06  0.977E-04    0.61      12.1  T
   8   -100.6288449 -0.627850E-07  0.470E-04    0.62      25.1  T
     SCC iter.                  ...        0 min,  0.065 sec
     gradient                   ...        0 min,  0.069 sec
 * total energy  :   -99.2512843 Eh     change       -0.1998731E-03 Eh
   gradient norm :     0.0057117 Eh/α   predicted    -0.1394940E-03 ( -30.21%)
   displ. norm   :     0.2039981 α      lambda       -0.3313353E-03
   maximum displ.:     0.1104134 α      in ANC's #11, #18, #19, ...

........................................................................
.............................. CYCLE   47 ..............................
........................................................................

 iter      E             dE          RMSdq      gap      omega  full diag
   1   -100.6297792 -0.100630E+03  0.621E-02    0.63       0.0  T
   2   -100.6297440  0.352087E-04  0.369E-02    0.60       1.0  T
   3   -100.6293334  0.410603E-03  0.691E-02    0.67       1.0  T
   4   -100.6297941 -0.460751E-03  0.121E-02    0.63       1.0  T
   5   -100.6297759  0.182214E-04  0.156E-02    0.61       1.0  T
   6   -100.6298002 -0.242633E-04  0.646E-03    0.62       1.8  T
   7   -100.6298058 -0.567799E-05  0.236E-03    0.62       5.0  T
   8   -100.6298062 -0.329967E-06  0.111E-03    0.62      10.6  T
   9   -100.6298063 -0.832996E-07  0.184E-04    0.62      64.0  T
  10   -100.6298063 -0.175005E-08  0.109E-04    0.62     108.5  T
     SCC iter.                  ...        0 min,  0.080 sec
     gradient                   ...        0 min,  0.069 sec
 * total energy  :   -99.2515432 Eh     change       -0.2588674E-03 Eh
   gradient norm :     0.0060905 Eh/α   predicted    -0.1725687E-03 ( -33.34%)
   displ. norm   :     0.3502451 α      lambda       -0.4050325E-03
   maximum displ.:     0.1647580 α      in ANC's #11, #1, #18, ...

........................................................................
.............................. CYCLE   48 ..............................
........................................................................

 iter      E             dE          RMSdq      gap      omega  full diag
   1   -100.6318553 -0.100632E+03  0.937E-02    0.65       0.0  T
   2   -100.6317540  0.101307E-03  0.557E-02    0.60       1.0  T
   3   -100.6308425  0.911530E-03  0.109E-01    0.71       1.0  T
   4   -100.6319056 -0.106308E-02  0.153E-02    0.64       1.0  T
   5   -100.6318709  0.346289E-04  0.205E-02    0.62       1.0  T
   6   -100.6319064 -0.355149E-04  0.102E-02    0.63       1.2  T
   7   -100.6319207 -0.142721E-04  0.352E-03    0.63       3.3  T
   8   -100.6319214 -0.685099E-06  0.168E-03    0.63       7.0  T
   9   -100.6319216 -0.176737E-06  0.269E-04    0.63      43.8  T
  10   -100.6319216 -0.339467E-08  0.151E-04    0.63      78.2  T
     SCC iter.                  ...        0 min,  0.081 sec
     gradient                   ...        0 min,  0.069 sec
 * total energy  :   -99.2518579 Eh     change       -0.3147263E-03 Eh
   gradient norm :     0.0082499 Eh/α   predicted    -0.2273701E-03 ( -27.76%)
   displ. norm   :     0.4517841 α      lambda       -0.4594234E-03
   maximum displ.:     0.1957784 α      in ANC's #11, #1, #18, ...

........................................................................
.............................. CYCLE   49 ..............................
........................................................................

 iter      E             dE          RMSdq      gap      omega  full diag
   1   -100.6363111 -0.100636E+03  0.116E-01    0.67       0.0  T
   2   -100.6359668  0.344332E-03  0.775E-02    0.59       1.0  T
   3   -100.6348109  0.115590E-02  0.140E-01    0.74       1.0  T
   4   -100.6363963 -0.158544E-02  0.194E-02    0.66       1.0  T
   5   -100.6363591  0.371945E-04  0.227E-02    0.64       1.0  T
   6   -100.6364018 -0.426783E-04  0.118E-02    0.65       1.0  T
   7   -100.6364216 -0.198626E-04  0.350E-03    0.65       3.4  T
   8   -100.6364223 -0.697513E-06  0.164E-03    0.65       7.2  T
   9   -100.6364225 -0.145538E-06  0.308E-04    0.65      38.3  T
  10   -100.6364225 -0.307568E-08  0.147E-04    0.65      80.0  T
     SCC iter.                  ...        0 min,  0.080 sec
     gradient                   ...        0 min,  0.069 sec
 * total energy  :   -99.2521455 Eh     change       -0.2875630E-03 Eh
   gradient norm :     0.0100312 Eh/α   predicted    -0.2766320E-03 (  -3.80%)
   displ. norm   :     0.1261520 α      lambda       -0.2365906E-03
   maximum displ.:     0.0509021 α      in ANC's #45, #1, #21, ...

........................................................................
.............................. CYCLE   50 ..............................
........................................................................

 iter      E             dE          RMSdq      gap      omega  full diag
   1   -100.6401007 -0.100640E+03  0.396E-02    0.67       0.0  T
   2   -100.6398504  0.250290E-03  0.521E-02    0.62       1.0  T
   3   -100.6400695 -0.219094E-03  0.331E-02    0.67       1.0  T
   4   -100.6401284 -0.589203E-04  0.145E-02    0.66       1.0  T
   5   -100.6401299 -0.145211E-05  0.115E-02    0.65       1.0  T
   6   -100.6401469 -0.170337E-04  0.317E-03    0.66       3.7  T
   7   -100.6401482 -0.126752E-05  0.114E-03    0.66      10.4  T
   8   -100.6401482 -0.571277E-07  0.657E-04    0.66      17.9  T
   9   -100.6401483 -0.289859E-07  0.103E-04    0.66     114.9  T
     SCC iter.                  ...        0 min,  0.073 sec
     gradient                   ...        0 min,  0.069 sec
 * total energy  :   -99.2523186 Eh     change       -0.1731701E-03 Eh
   gradient norm :     0.0054431 Eh/α   predicted    -0.1201826E-03 ( -30.60%)
   displ. norm   :     0.1920034 α      lambda       -0.2144942E-03
   maximum displ.:     0.0726353 α      in ANC's #45, #1, #11, ...

........................................................................
.............................. CYCLE   51 ..............................
........................................................................

 iter      E             dE          RMSdq      gap      omega  full diag
   1   -100.6426587 -0.100643E+03  0.521E-02    0.68       0.0  T
   2   -100.6424748  0.183901E-03  0.478E-02    0.63       1.0  T
[...]
         :: gradient norm              0.003115330818 Eh/a0 ::
         :: HOMO-LUMO gap              0.681786380346 eV    ::
         ::.................................................::
         :: SCC energy              -100.642863332353 Eh    ::
         :: -> isotropic ES            0.103167024136 Eh    ::
         :: -> anisotropic ES          0.009801616477 Eh    ::
         :: -> anisotropic XC          0.052676186565 Eh    ::
         :: -> dispersion             -0.074868940535 Eh    ::
         :: repulsion energy           1.388894624587 Eh    ::
         :: add. restraining           0.000003900486 Eh    ::
         :: total charge               1.000000000179 e     ::
         :::::::::::::::::::::::::::::::::::::::::::::::::::::

           -------------------------------------------------
          |                Property Printout                |
           -------------------------------------------------

    * Orbital Energies and Occupations

         #    Occupation            Energy/Eh            Energy/eV
      -------------------------------------------------------------
         1        2.0000           -0.8411075             -22.8877
       ...           ...                  ...                  ...
        78        1.9986           -0.5293613             -14.4047
        79        1.9983           -0.5261905             -14.3184
        80        1.9983           -0.5259422             -14.3116
        81        1.9975           -0.5199336             -14.1481
        82        1.9960           -0.5125088             -13.9461
        83        1.9953           -0.5100510             -13.8792
        84        1.9945           -0.5073241             -13.8050
        85        1.9875           -0.4943915             -13.4531
        86        1.9813           -0.4879348             -13.2774
        87        1.9446           -0.4704812             -12.8024
        88        1.9361           -0.4681382             -12.7387
        89        1.8747           -0.4569713             -12.4348
        90        1.3200           -0.4246297             -11.5548 (HOMO)
        91        0.5703           -0.3995745             -10.8730 (LUMO)
        92        0.3897           -0.3916621             -10.6577
        93        0.0144           -0.3361404              -9.1468
        94        0.0036           -0.3139643              -8.5434
        95        0.0029           -0.3107419              -8.4557
        96        0.0025           -0.3084472              -8.3933
        97        0.0016           -0.3012233              -8.1967
        98        0.0000           -0.1881601              -5.1201
        99        0.0000           -0.1817461              -4.9456
       100                         -0.1320665              -3.5937
       101                         -0.0658087              -1.7907
       ...                                ...                  ...
       171                          0.5751213              15.6498
      -------------------------------------------------------------
                  HL-Gap            0.0250552 Eh            0.6818 eV
             Fermi-level           -0.4141264 Eh          -11.2690 eV

     #   Z          covCN         q      C6AA      α(0)
     1   7 N        1.774    -0.270    27.825     7.811
     2   6 C        2.827     0.102    25.739     8.313
     3   6 C        3.908     0.006    20.415     6.422
     4   6 C        2.974     0.001    27.993     8.679
     5   6 C        2.921    -0.080    30.010     8.983
     6   6 C        2.862     0.129    25.173     8.224
     7   8 O        1.706    -0.231    17.832     5.701
     8   6 C        3.644     0.028    20.439     6.498
     9   6 C        2.864     0.128    25.187     8.226
    10   8 O        1.706    -0.230    17.807     5.697
    11   6 C        3.645     0.027    20.450     6.499
    12   6 C        2.914    -0.074    29.854     8.960
    13   6 C        2.921    -0.053    29.313     8.879
    14   6 C        3.813    -0.064    21.726     6.634
    15   6 C        3.802    -0.069    21.827     6.651
    16   6 C        2.844     0.008    27.844     8.648
    17   7 N        2.729     0.014    21.013     6.808
    18   6 C        3.757    -0.017    20.927     6.522
    19   6 C        3.807    -0.068    21.796     6.646
    20   6 C        2.970     0.009    27.809     8.650
    21   6 C        2.924    -0.041    29.024     8.835
    22   6 C        2.914    -0.072    29.797     8.951
    23   6 C        2.862     0.137    25.005     8.196
    24   8 O        1.705    -0.230    17.811     5.698
    25   6 C        3.646     0.027    20.454     6.499
    26   6 C        2.891     0.108    25.614     8.298
    27   8 O        1.709    -0.099    15.824     5.371
    28   6 C        2.752     0.045    26.979     8.505
    29   6 C        1.996    -0.152    35.363     9.604
    30   6 C        3.700    -0.071    22.020     6.711
    31   6 C        3.853    -0.007    20.673     6.467
    32   6 C        3.756    -0.118    22.816     6.811
    33   6 C        3.755    -0.119    22.836     6.814
    34   1 H        0.926     0.051     2.304     2.374
    35   1 H        0.924     0.053     2.280     2.361
    36   1 H        0.925     0.081     1.973     2.196
    37   1 H        0.924     0.047     2.363     2.404
    38   1 H        0.924     0.055     2.264     2.353
    39   1 H        0.925     0.081     1.973     2.197
    40   1 H        0.924     0.048     2.344     2.394
    41   1 H        0.926     0.052     2.298     2.370
    42   1 H        0.926     0.039     2.464     2.455
    43   1 H        0.925     0.060     2.198     2.319
    44   1 H        0.924     0.054     2.275     2.359
    45   1 H        0.925     0.067     2.117     2.275
    46   1 H        0.923     0.079     1.985     2.203
    47   1 H        0.922     0.004     2.983     2.701
    48   1 H        0.926     0.070     2.090     2.261
    49   1 H        0.924     0.073     2.057     2.243
    50   1 H        0.924     0.064     2.148     2.292
    51   1 H        0.924     0.049     2.333     2.388
    52   1 H        0.924     0.061     2.189     2.314
    53   1 H        0.926     0.048     2.341     2.393
    54   1 H        0.926     0.057     2.231     2.336
    55   1 H        0.924     0.054     2.270     2.356
    56   1 H        0.924     0.055     2.256     2.349
    57   1 H        0.925     0.081     1.971     2.195
    58   1 H        0.926     0.094     1.840     2.121
    59   1 H        0.769     0.005     3.065     2.757
    60   1 H        0.926     0.079     1.984     2.203
    61   1 H        0.769     0.003     3.100     2.773
    62   1 H        0.924     0.077     2.010     2.217
    63   1 H        0.924     0.078     1.997     2.210
    64   1 H        0.925     0.084     1.942     2.179
    65   1 H        0.924     0.037     2.495     2.470
    66   1 H        0.925     0.068     2.111     2.272
    67   1 H        0.925     0.035     2.516     2.481
    68   1 H        0.925     0.050     2.314     2.379
    69   1 H        0.925     0.062     2.177     2.307
    70   1 H        0.925     0.034     2.525     2.485
    71   1 H        0.925     0.054     2.271     2.357
    72   1 H        0.860     0.156     1.363     1.829

 Mol. C6AA /au·bohr⁶  :      48012.073394
 Mol. C8AA /au·bohr⁸  :    1095254.589832
 Mol. α(0) /au        :        337.341643


Wiberg/Mayer (AO) data.
largest (>0.10) Wiberg bond orders for each atom

 ---------------------------------------------------------------------------
     #   Z sym  total        # sym  WBO       # sym  WBO       # sym  WBO
 ---------------------------------------------------------------------------
     1   7 N    3.037 --     2 C    1.955    72 H    0.942
     2   6 C    3.930 --     1 N    1.955     3 C    0.995    47 H    0.904
     3   6 C    3.976 --     2 C    0.995     4 C    0.971    14 C    0.956
                            31 C    0.943
     4   6 C    3.950 --    13 C    1.415     5 C    1.368     3 C    0.971
     5   6 C    3.963 --     6 C    1.402     4 C    1.368    34 H    0.958
     6   6 C    3.906 --     5 C    1.402     9 C    1.223     7 O    1.097
     7   8 O    2.253 --     6 C    1.097     8 C    0.978
     8   6 C    3.933 --     7 O    0.978    36 H    0.977    35 H    0.974
                            37 H    0.974
     9   6 C    3.902 --    12 C    1.392     6 C    1.223    10 O    1.100
    10   8 O    2.252 --     9 C    1.100    11 C    0.978
    11   6 C    3.932 --    10 O    0.978    39 H    0.977    38 H    0.974
                            40 H    0.974
    12   6 C    3.963 --    13 C    1.404     9 C    1.392    41 H    0.964
    13   6 C    3.955 --     4 C    1.415    12 C    1.404    42 H    0.963
    14   6 C    3.974 --    15 C    0.984    44 H    0.972    43 H    0.968
                             3 C    0.956
    15   6 C    3.987 --    16 C    1.060    14 C    0.984    45 H    0.960
                            46 H    0.926
    16   6 C    3.597 --    17 N    1.410    15 C    1.060    48 H    0.957
    17   7 N    3.484 --    16 C    1.410    30 C    0.998    18 C    0.987
    18   6 C    3.954 --    17 N    0.987    50 H    0.968    19 C    0.966
                            49 H    0.963
    19   6 C    3.966 --    20 C    1.000    51 H    0.974    52 H    0.970
                            18 C    0.966
    20   6 C    3.924 --    29 C    1.414    21 C    1.354    19 C    1.000
    21   6 C    3.879 --    22 C    1.433    20 C    1.354    53 H    0.960
    22   6 C    3.958 --    21 C    1.433    23 C    1.372    54 H    0.959
    23   6 C    3.842 --    22 C    1.372    26 C    1.201    24 O    1.111
    24   8 O    2.259 --    23 C    1.111    25 C    0.971
    25   6 C    3.925 --    57 H    0.977    56 H    0.974    55 H    0.974
                            24 O    0.971
    26   6 C    3.847 --    29 C    1.365    23 C    1.201    27 O    1.034
    27   8 O    2.417 --    28 C    1.298    26 C    1.034
    28   6 C    3.403 --    27 O    1.298    58 H    0.967    60 H    0.960
    29   6 C    2.975 --    20 C    1.414    26 C    1.365
    30   6 C    3.957 --    17 N    0.998    64 H    0.977    62 H    0.967
                            63 H    0.963
    31   6 C    3.973 --    33 C    1.009    32 C    1.008    65 H    0.960
                             3 C    0.943
    32   6 C    3.980 --    31 C    1.008    67 H    0.982    68 H    0.982
                            66 H    0.975
    33   6 C    3.983 --    31 C    1.009    70 H    0.983    71 H    0.980
                            69 H    0.976
    34   1 H    0.996 --     5 C    0.958
    35   1 H    0.994 --     8 C    0.974
    36   1 H    0.993 --     8 C    0.977
    37   1 H    0.994 --     8 C    0.974
    38   1 H    0.993 --    11 C    0.974
    39   1 H    0.993 --    11 C    0.977
    40   1 H    0.993 --    11 C    0.974
    41   1 H    0.996 --    12 C    0.964
    42   1 H    0.998 --    13 C    0.963
    43   1 H    0.995 --    14 C    0.968
    44   1 H    0.996 --    14 C    0.972
    45   1 H    0.994 --    15 C    0.960
    46   1 H    0.970 --    15 C    0.926
    47   1 H    0.987 --     2 C    0.904
    48   1 H    0.995 --    16 C    0.957
    49   1 H    0.990 --    18 C    0.963
    50   1 H    0.994 --    18 C    0.968
    51   1 H    0.997 --    19 C    0.974
    52   1 H    0.994 --    19 C    0.970
    53   1 H    0.986 --    21 C    0.960
    54   1 H    0.989 --    22 C    0.959
    55   1 H    0.993 --    25 C    0.974
    56   1 H    0.993 --    25 C    0.974
    57   1 H    0.992 --    25 C    0.977
    58   1 H    0.990 --    28 C    0.967
    59   1 H    0.999 --    61 H    0.963
    60   1 H    0.993 --    28 C    0.960
    61   1 H    0.979 --    59 H    0.963
    62   1 H    0.985 --    30 C    0.967
    63   1 H    0.987 --    30 C    0.963
    64   1 H    0.993 --    30 C    0.977
    65   1 H    0.993 --    31 C    0.960
    66   1 H    0.991 --    32 C    0.975
    67   1 H    0.997 --    32 C    0.982
    68   1 H    0.994 --    32 C    0.982
    69   1 H    0.993 --    33 C    0.976
    70   1 H    0.997 --    33 C    0.983
    71   1 H    0.994 --    33 C    0.980
    72   1 H    0.971 --     1 N    0.942
 ---------------------------------------------------------------------------

Topologies differ in total number of bonds
Writing topology from bond orders to xtbtopo.mol

molecular dipole:
                 x           y           z       tot (Debye)
 q only:        1.268      -0.297      -0.805
   full:        1.797      -0.089      -0.991       5.222
molecular quadrupole (traceless):
                xx          xy          yy          xz          yz          zz
 q only:       58.483      -1.317     -18.187       8.065     -10.974     -40.296
  q+dip:       59.296       5.192     -20.480      10.722     -14.966     -38.816
   full:       58.791       5.157     -21.492       7.838     -14.775     -37.299

           -------------------------------------------------
          |                Geometry Summary                 |
           -------------------------------------------------

      molecular mass/u    :      455.6105846
   center of mass at/Å    :        0.0259250      -0.0084377      -0.0475556
  moments of inertia/u·Å² :        0.2484696E+04   0.1088881E+05   0.1212860E+05
rotational constants/cm⁻¹ :        0.6784585E-02   0.1548162E-02   0.1389908E-02

 * 65 selected distances

     #   Z          #   Z                                           value/Å
     1   7 N        2   6 C                                       1.2489921
     4   6 C        5   6 C                                       1.3963680
     5   6 C        6   6 C                                       1.3846584
     6   6 C        7   8 O                                       1.3496547
     7   8 O        8   6 C                                       1.4079911
     6   6 C        9   6 C                                       1.4208595
     9   6 C       10   8 O                                       1.3484556
    10   8 O       11   6 C                                       1.4084569
     9   6 C       12   6 C                                       1.3856735
     4   6 C       13   6 C                                       1.3859877
    12   6 C       13   6 C                                       1.3891483
    14   6 C       15   6 C                                       1.5382608
    15   6 C       16   6 C                                       1.4792801
    16   6 C       17   7 N                                       1.3259755
    17   7 N       18   6 C                                       1.4438908
    18   6 C       19   6 C                                       1.5397705 (max)
    20   6 C       21   6 C                                       1.3961421
    21   6 C       22   6 C                                       1.3846136
    22   6 C       23   6 C                                       1.3902693
    23   6 C       24   8 O                                       1.3445677
    24   8 O       25   6 C                                       1.4096536
    23   6 C       26   6 C                                       1.4247219
    26   6 C       27   8 O                                       1.3616617
    27   8 O       28   6 C                                       1.2992750
    20   6 C       29   6 C                                       1.3761904
    26   6 C       29   6 C                                       1.3794238
    17   7 N       30   6 C                                       1.4433779
    31   6 C       32   6 C                                       1.5268863
    31   6 C       33   6 C                                       1.5261542
     5   6 C       34   1 H                                       1.0773054
     8   6 C       35   1 H                                       1.0941939
     8   6 C       36   1 H                                       1.0881944
     8   6 C       37   1 H                                       1.0950707
    11   6 C       38   1 H                                       1.0940158
    11   6 C       39   1 H                                       1.0882177
    11   6 C       40   1 H                                       1.0947645
    12   6 C       41   1 H                                       1.0779131
    13   6 C       42   1 H                                       1.0790368
    14   6 C       43   1 H                                       1.0894442
    14   6 C       44   1 H                                       1.0906245
    15   6 C       45   1 H                                       1.0887679
    15   6 C       46   1 H                                       1.0981699
    16   6 C       48   1 H                                       1.0801713
    18   6 C       49   1 H                                       1.0926918
    18   6 C       50   1 H                                       1.0922603
    19   6 C       51   1 H                                       1.0912425
    19   6 C       52   1 H                                       1.0906354
    21   6 C       53   1 H                                       1.0808367
    22   6 C       54   1 H                                       1.0780055
    25   6 C       55   1 H                                       1.0942472
    25   6 C       56   1 H                                       1.0942293
    25   6 C       57   1 H                                       1.0882088
    28   6 C       58   1 H                                       1.0743949
    28   6 C       60   1 H                                       1.0800003
    59   1 H       61   1 H                                       0.7899748 (min)
    30   6 C       62   1 H                                       1.0918999
    30   6 C       63   1 H                                       1.0929573
    30   6 C       64   1 H                                       1.0868904
    31   6 C       65   1 H                                       1.0961630
    32   6 C       66   1 H                                       1.0851488
    32   6 C       67   1 H                                       1.0872670
    32   6 C       68   1 H                                       1.0867416
    33   6 C       69   1 H                                       1.0854351
    33   6 C       70   1 H                                       1.0867126
    33   6 C       71   1 H                                       1.0868036

 * 5 distinct bonds (by element types)

   Z      Z             #   av. dist./Å        max./Å        min./Å
   1 H    1 H           1     0.7899748     0.7899748     0.7899748
   1 H    6 C          35     1.0879618     1.0981699     1.0743949
   6 C    6 C          17     1.4308476     1.5397705     1.3761904
   6 C    7 N           4     1.3655591     1.4438908     1.2489921
   6 C    8 O           8     1.3662145     1.4096536     1.2992750


optimized geometry written to: xtbopt.xyz


           -------------------------------------------------
          | TOTAL ENERGY              -99.252615703038 Eh   |
          | GRADIENT NORM               0.003115330818 Eh/α |
          | HOMO-LUMO GAP               0.681786380346 eV   |
           -------------------------------------------------

------------------------------------------------------------------------
 * finished run on 2024/04/06 at 11:14:02.768     
------------------------------------------------------------------------
 total:
 * wall-time:     0 d,  0 h,  0 min,  9.604 sec
 *  cpu-time:     0 d,  0 h,  0 min,  9.582 sec
 * ratio c/w:     0.998 speedup
 SCF:
 * wall-time:     0 d,  0 h,  0 min,  0.189 sec
 *  cpu-time:     0 d,  0 h,  0 min,  0.189 sec
 * ratio c/w:     1.000 speedup
 ANC optimizer:
 * wall-time:     0 d,  0 h,  0 min,  9.372 sec
 *  cpu-time:     0 d,  0 h,  0 min,  9.367 sec
 * ratio c/w:     1.000 speedup

