72
 energy: -99.252619603654 gnorm: 0.003336024207 xtb: 6.6.1 (8d0f1dd)
N           -1.84833263524227        2.85189864132744        2.22625004857815
C           -1.82363521185658        2.10307022715266        1.22693673299633
C           -2.97922042147588        1.89209624302788        0.28842304630857
C           -3.42229390420239        0.43839120683219        0.34836739186652
C           -4.32707453590406       -0.04966851686735       -0.59662625310634
C           -4.78524798279064       -1.35561814470731       -0.55359926245740
O           -5.66502411593955       -1.90121435186174       -1.41955892644698
C           -6.26089237942287       -1.08595322537110       -2.40074635033495
C           -4.32031660626543       -2.22693530586661        0.46791265499448
O           -4.81808736714952       -3.47967097221703        0.43313200707697
C           -4.48812182028373       -4.37644481638568        1.46786375983631
C           -3.42104754002768       -1.73687619176686        1.40131929413962
C           -2.98148797258932       -0.42040014668703        1.34291703048596
C           -2.44097761863331        2.23148410751644       -1.12685600110454
C           -1.50451689032321        1.16755219876719       -1.72463192699752
C           -0.16057993453237        1.14939213926471       -1.10675428492864
N            0.53001979336396        0.05844902146469       -0.80488359376727
C            1.91448785355519        0.15661598256654       -0.40684888431198
C            2.86902125081861       -0.09540205394066       -1.58847727907526
C            4.29049564735079       -0.00041276105588       -1.10621209984246
C            5.01312834650271        1.18647101635933       -1.24156858870789
C            6.31046562011254        1.29615768191108       -0.77035801308884
C            6.92903657182161        0.22652617637945       -0.13309302580822
O            8.17988661924311        0.21077521932541        0.35984508386716
C            8.99998928357619        1.34366536067992        0.18345230662712
C            6.18172444072197       -0.97799315887703        0.01004951038400
O            6.80337248705314       -1.99665149800720        0.66580186033965
C            6.26480593863594       -3.17708641347061        0.73388107283392
C            4.89388995977366       -1.06496623721519       -0.47649720702104
C           -0.02974967344037       -1.26431398283781       -0.94734608329413
C           -4.21286586067947        2.78617504659623        0.61171725444208
C           -4.80821728955678        2.44608503150888        1.97600348995696
C           -3.91026280771263        4.28033859568557        0.54063413339902
H           -4.69055195646284        0.60805559448515       -1.36855229435409
H           -6.79710600938291       -0.24444827043540       -1.95174262327804
H           -6.96939582389533       -1.72694096301295       -2.92163452105316
H           -5.52179137809637       -0.71056698489994       -3.11628423855929
H           -4.78651428044868       -3.98701191455539        2.44570543976446
H           -5.04738152893970       -5.28549956129708        1.25557742193028
H           -3.41737210981795       -4.60433179613046        1.47632985417504
H           -3.06363090145887       -2.37013101234557        2.19701906752245
H           -2.30802712904717       -0.06686052623548        2.10827993430646
H           -3.28772014356010        2.35505699307262       -1.80112984583902
H           -1.91449306216870        3.18556159237137       -1.08200447200460
H           -1.98196669320377        0.19031242779110       -1.67503895605745
H           -1.37342099397594        1.42068131722596       -2.78515839758045
H           -0.92470338525231        1.54754282348494        0.89615929704321
H            0.35998004771034        2.09136786110982       -1.01472808296560
H            2.11866400278872       -0.57769352864371        0.37614324943945
H            2.10539034453302        1.15306775547405       -0.00228448000171
H            2.68134674347260        0.64546876061979       -2.36738587334588
H            2.68551526086124       -1.08948632667455       -1.99787607782221
H            4.55669026390344        2.03423209984480       -1.73266249940299
H            6.83918909061211        2.22627810500664       -0.90235506483358
H            8.59372537237986        2.21706967632797        0.70257778627088
H            9.13410300752866        1.57834388301196       -0.87686705162171
H            9.96118198484777        1.08012919178249        0.62032238150582
H            6.80586799089889       -3.90948564527090        1.30411557990502
H            4.61784556554719       -2.55104081977950        2.15227378872065
H            5.38340542671158       -3.42060713946386        0.15922365735777
H            4.08014328787906       -2.07220992732188        2.47732338755158
H           -0.24506614952687       -1.49184883570784       -1.99334406786222
H           -0.95524940481884       -1.35025874682482       -0.37235122263762
H            0.68163946914215       -1.99609799305157       -0.57351705450890
H           -4.96720363802930        2.55668921803038       -0.14978383113131
H           -4.10208449579496        2.69271397320981        2.76219582928597
H           -5.05898063206405        1.39030763417076        2.04383492410468
H           -5.71554385209488        3.02371231073329        2.13128503886541
H           -3.13895765008216        4.54263804765701        1.25789037451485
H           -3.59570827249031        4.58518137881764       -0.45388602821829
H           -4.80975665419775        4.83718229290662        0.78958735002791
H           -0.99791736152123        2.94153045778802        2.77355826557205
