      -----------------------------------------------------------      
     |                   =====================                   |     
     |                           x T B                           |     
     |                   =====================                   |     
     |                         S. Grimme                         |     
     |          Mulliken Center for Theoretical Chemistry        |     
     |                    University of Bonn                     |     
      -----------------------------------------------------------      

   * xtb version 6.6.1 (8d0f1dd) compiled by 'conda@1efc2f54142f' on 2023-08-01

   xtb is free software: you can redistribute it and/or modify it under
   the terms of the GNU Lesser General Public License as published by
   the Free Software Foundation, either version 3 of the License, or
   (at your option) any later version.
   
   xtb is distributed in the hope that it will be useful,
   but WITHOUT ANY WARRANTY; without even the implied warranty of
   MERCHANTABILITY or FITNESS FOR A PARTICULAR PURPOSE.  See the
   GNU Lesser General Public License for more details.
   
   Cite this work as:
   * C. Bannwarth, E. Caldeweyher, S. Ehlert, A. Hansen, P. Pracht,
     J. Seibert, S. Spicher, S. Grimme, WIREs Comput. Mol. Sci., 2020, 11,
     e01493. DOI: 10.1002/wcms.1493
   
   for GFN2-xTB:
   * C. Bannwarth, S. Ehlert and S. Grimme., J. Chem. Theory Comput., 2019,
     15, 1652-1671. DOI: 10.1021/acs.jctc.8b01176
   for GFN1-xTB:
   * S. Grimme, C. Bannwarth, P. Shushkov, J. Chem. Theory Comput., 2017,
     13, 1989-2009. DOI: 10.1021/acs.jctc.7b00118
   for GFN0-xTB:
   * P. Pracht, E. Caldeweyher, S. Ehlert, S. Grimme, ChemRxiv, 2019, preprint.
     DOI: 10.26434/chemrxiv.8326202.v1
   for GFN-FF:
   * S. Spicher and S. Grimme, Angew. Chem. Int. Ed., 2020, 59, 15665-15673.
     DOI: 10.1002/anie.202004239
   
   for ALPB and GBSA implicit solvation:
   * S. Ehlert, M. Stahn, S. Spicher, S. Grimme, J. Chem. Theory Comput.,
     2021, 17, 4250-4261. DOI: 10.1021/acs.jctc.1c00471
   
   for DFT-D4:
   * E. Caldeweyher, C. Bannwarth and S. Grimme, J. Chem. Phys., 2017,
     147, 034112. DOI: 10.1063/1.4993215
   * E. Caldeweyher, S. Ehlert, A. Hansen, H. Neugebauer, S. Spicher,
     C. Bannwarth and S. Grimme, J. Chem. Phys., 2019, 150, 154122.
     DOI: 10.1063/1.5090222
   * E. Caldeweyher, J.-M. Mewes, S. Ehlert and S. Grimme, Phys. Chem. Chem. Phys.
     2020, 22, 8499-8512. DOI: 10.1039/D0CP00502A
   
   for sTDA-xTB:
   * S. Grimme and C. Bannwarth, J. Chem. Phys., 2016, 145, 054103.
     DOI: 10.1063/1.4959605
   
   in the mass-spec context:
   * V. Asgeirsson, C. Bauer and S. Grimme, Chem. Sci., 2017, 8, 4879.
     DOI: 10.1039/c7sc00601b
   * J. Koopman and S. Grimme, ACS Omega 2019, 4, 12, 15120-15133.
     DOI: 10.1021/acsomega.9b02011
   
   for metadynamics refer to:
   * S. Grimme, J. Chem. Theory Comput., 2019, 155, 2847-2862
     DOI: 10.1021/acs.jctc.9b00143
   
   for SPH calculations refer to:
   * S. Spicher and S. Grimme, J. Chem. Theory Comput., 2021, 17, 1701-1714
     DOI: 10.1021/acs.jctc.0c01306
   
   with help from (in alphabetical order)
   P. Atkinson, C. Bannwarth, F. Bohle, G. Brandenburg, E. Caldeweyher
   M. Checinski, S. Dohm, S. Ehlert, S. Ehrlich, I. Gerasimov, C. Hölzer
   A. Katbashev, J. Koopman, C. Lavigne, S. Lehtola, F. März, M. Müller,
   F. Musil, H. Neugebauer, J. Pisarek, C. Plett, P. Pracht, F. Pultar,
   J. Seibert, P. Shushkov, S. Spicher, M. Stahn, M. Steiner, T. Strunk,
   J. Stückrath, T. Rose, and J. Unsleber
   
 * started run on 2024/06/05 at 19:57:57.975     

           -------------------------------------------------
          |                Calculation Setup                |
           -------------------------------------------------

          program call               : xtb xtbopt.xyz --opt crude --input .xc2 --gfn2
          hostname                   : n-62-12-66
          coordinate file            : xtbopt.xyz
          omp threads                :                     1

   ID    Z sym.   atoms
    1    6 C      1, 3, 5-7, 10, 11, 14
    2    7 N      2, 4, 9, 13
    3    8 O      8, 12
    4    1 H      15-25
########################################################################
[WARNING] Please study the warnings concerning your input carefully
-1- readin_getIntValue: could not parse ''
########################################################################

           -------------------------------------------------
          |                 G F N 2 - x T B                 |
           -------------------------------------------------

        Reference                      10.1021/acs.jctc.8b01176
      * Hamiltonian:
        H0-scaling (s, p, d)           1.850000    2.230000    2.230000
        zeta-weighting                 0.500000
      * Dispersion:
        s8                             2.700000
        a1                             0.520000
        a2                             5.000000
        s9                             5.000000
      * Repulsion:
        kExp                           1.500000    1.000000
        rExp                           1.000000
      * Coulomb:
        alpha                          2.000000
        third order                    shell-resolved
        anisotropic                    true
        a3                             3.000000
        a5                             4.000000
        cn-shift                       1.200000
        cn-exp                         4.000000
        max-rad                        5.000000

q/qsh data taken from xtbrestart
CAMM data taken from xtbrestart

          ...................................................
          :                      SETUP                      :
          :.................................................:
          :  # basis functions                  67          :
          :  # atomic orbitals                  67          :
          :  # shells                           39          :
          :  # electrons                        74          :
          :  max. iterations                   250          :
          :  Hamiltonian                  GFN2-xTB          :
          :  restarted?                       true          :
          :  GBSA solvation                  false          :
          :  PC potential                    false          :
          :  electronic temp.         5000.0000000     K    :
          :  accuracy                    1.0000000          :
          :  -> integral cutoff          0.2500000E+02      :
          :  -> integral neglect         0.1000000E-07      :
          :  -> SCF convergence          0.1000000E-05 Eh   :
          :  -> wf. convergence          0.1000000E-03 e    :
          :  Broyden damping             0.4000000          :
          ...................................................

 iter      E             dE          RMSdq      gap      omega  full diag
   1    -42.6918753 -0.426919E+02  0.867E-06    2.68       0.0  T
   2    -42.6918753 -0.440536E-12  0.543E-06    2.68    3683.3  T
   3    -42.6918753 -0.639488E-13  0.366E-06    2.68    5471.4  T

   *** convergence criteria satisfied after 3 iterations ***

         #    Occupation            Energy/Eh            Energy/eV
      -------------------------------------------------------------
         1        2.0000           -0.9029986             -24.5718
       ...           ...                  ...                  ...
        31        1.9997           -0.6117577             -16.6468
        32        1.9997           -0.6088806             -16.5685
        33        1.9990           -0.5921653             -16.1136
        34        1.9925           -0.5600942             -15.2409
        35        1.9886           -0.5533958             -15.0587
        36        1.9805           -0.5449162             -14.8279
        37        1.9264           -0.5234102             -14.2427 (HOMO)
        38        0.0988           -0.4249078             -11.5623 (LUMO)
        39        0.0112           -0.3896622             -10.6032
        40        0.0041           -0.3735829             -10.1657
        41        0.0000           -0.2719388              -7.3998
        42        0.0000           -0.2712956              -7.3823
       ...           ...                  ...                  ...
        67                          0.5954443              16.2029
      -------------------------------------------------------------
                  HL-Gap            0.0985023 Eh            2.6804 eV
             Fermi-level           -0.4717247 Eh          -12.8363 eV

 SCC (total)                   0 d,  0 h,  0 min,  0.015 sec
 SCC setup                      ...        0 min,  0.000 sec (  1.332%)
 Dispersion                     ...        0 min,  0.000 sec (  1.231%)
 classical contributions        ...        0 min,  0.000 sec (  0.384%)
 integral evaluation            ...        0 min,  0.003 sec ( 21.015%)
 iterations                     ...        0 min,  0.004 sec ( 23.734%)
 molecular gradient             ...        0 min,  0.008 sec ( 51.573%)
 printout                       ...        0 min,  0.000 sec (  0.698%)

         :::::::::::::::::::::::::::::::::::::::::::::::::::::
         ::                     SUMMARY                     ::
         :::::::::::::::::::::::::::::::::::::::::::::::::::::
         :: total energy             -42.184118275230 Eh    ::
         :: gradient norm              0.063325638089 Eh/a0 ::
         :: HOMO-LUMO gap              2.680384738771 eV    ::
         ::.................................................::
         :: SCC energy               -42.691875338678 Eh    ::
         :: -> isotropic ES            0.132143298939 Eh    ::
         :: -> anisotropic ES         -0.005056443745 Eh    ::
         :: -> anisotropic XC          0.016634711850 Eh    ::
         :: -> dispersion             -0.021678006715 Eh    ::
         :: repulsion energy           0.507731931047 Eh    ::
         :: add. restraining           0.000000000000 Eh    ::
         :: total charge               1.000000000000 e     ::
         :::::::::::::::::::::::::::::::::::::::::::::::::::::

      ----------------------------------------------------------- 
     |                   =====================                   |
     |                        A N C O P T                        |
     |                   =====================                   |
     |               Approximate Normal Coordinate               |
     |                Rational Function Optimizer                |
      ----------------------------------------------------------- 

          ...................................................
          :                      SETUP                      :
          :.................................................:
          :   optimization level             crude          :
          :   max. optcycles                   200          :
          :   ANC micro-cycles                  20          :
          :   degrees of freedom                69          :
          :.................................................:
          :   RF solver                   davidson          :
          :   write xtbopt.log                true          :
          :   linear?                        false          :
          :   energy convergence         0.5000000E-03 Eh   :
          :   grad. convergence          0.1000000E-01 Eh/α :
          :   maxmium RF displ.          1.0000000          :
          :   Hlow (freq-cutoff)         0.1000000E-01      :
          :   Hmax (freq-cutoff)         5.0000000          :
          :   S6 in model hess.         20.0000000          :
          ...................................................

generating ANC from model Hessian ...
Using Lindh-Hessian (1995)
 Shifting diagonal of input Hessian by    9.3834188724813000E-003
 Lowest  eigenvalues of input Hessian
    0.000000    0.000000    0.000000    0.000000    0.000000    0.000000
    0.010000    0.010853    0.012377    0.014155    0.015024    0.019128
    0.020165    0.020567    0.026112    0.028625    0.030268    0.037450
 Highest eigenvalues
    2.047500    2.140002    2.202712    2.256154    2.338235    2.464427


........................................................................
.............................. CYCLE    1 ..............................
........................................................................

 iter      E             dE          RMSdq      gap      omega  full diag
   1    -42.6918753 -0.426919E+02  0.112E-06    2.68       0.0  T
   2    -42.6918753  0.142109E-13  0.852E-07    2.68   23465.9  T
   3    -42.6918753  0.284217E-13  0.417E-07    2.68   47957.1  T
     SCC iter.                  ...        0 min,  0.003 sec
     gradient                   ...        0 min,  0.008 sec
 * total energy  :   -42.1841183 Eh     change       -0.1207923E-12 Eh
   gradient norm :     0.0633256 Eh/α   predicted     0.0000000E+00 (-100.00%)
   displ. norm   :     0.4566295 α      lambda       -0.1444856E-01
   maximum displ.:     0.3070344 α      in ANC's #4, #12, #17, ...

........................................................................
.............................. CYCLE    2 ..............................
........................................................................

 iter      E             dE          RMSdq      gap      omega  full diag
   1    -42.7119572 -0.427120E+02  0.247E-01    2.74       0.0  T
   2    -42.7123477 -0.390559E-03  0.156E-01    2.75       1.0  T
   3    -42.7123715 -0.237781E-04  0.808E-02    2.77       1.0  T
   4    -42.7123935 -0.219377E-04  0.368E-02    2.75       1.0  T
   5    -42.7124126 -0.191091E-04  0.984E-03    2.76       2.0  T
   6    -42.7124140 -0.144962E-05  0.437E-03    2.76       4.6  T
   7    -42.7124141 -0.771365E-07  0.217E-03    2.76       9.2  T
   8    -42.7124141 -0.394233E-07  0.710E-04    2.76      28.2  T
   9    -42.7124141 -0.281438E-08  0.345E-04    2.76      58.0  T
     SCC iter.                  ...        0 min,  0.008 sec
     gradient                   ...        0 min,  0.008 sec
 * total energy  :   -42.1959001 Eh     change       -0.1178178E-01 Eh
   gradient norm :     0.0454841 Eh/α   predicted    -0.8730886E-02 ( -25.89%)
   displ. norm   :     0.6420973 α      lambda       -0.1267961E-01
   maximum displ.:     0.5001752 α      in ANC's #4, #12, #10, ...

........................................................................
.............................. CYCLE    3 ..............................
........................................................................

 iter      E             dE          RMSdq      gap      omega  full diag
   1    -42.7255545 -0.427256E+02  0.328E-01    2.83       0.0  T
   2    -42.7260603 -0.505828E-03  0.199E-01    2.81       1.0  T
   3    -42.7260509  0.941377E-05  0.973E-02    2.84       1.0  T
   4    -42.7261026 -0.516885E-04  0.412E-02    2.81       1.0  T
   5    -42.7261295 -0.269580E-04  0.103E-02    2.83       1.9  T
   6    -42.7261313 -0.173134E-05  0.432E-03    2.82       4.6  T
   7    -42.7261313 -0.871115E-07  0.222E-03    2.83       9.0  T
   8    -42.7261314 -0.360407E-07  0.683E-04    2.83      29.3  T
   9    -42.7261314 -0.340368E-08  0.338E-04    2.83      59.2  T
     SCC iter.                  ...        0 min,  0.007 sec
     gradient                   ...        0 min,  0.008 sec
 * total energy  :   -42.2052344 Eh     change       -0.9334323E-02 Eh
   gradient norm :     0.0247397 Eh/α   predicted    -0.8953641E-02 (  -4.08%)
   displ. norm   :     0.6490118 α      lambda       -0.6681993E-02
   maximum displ.:     0.5818040 α      in ANC's #4, #12, #10, ...

........................................................................
.............................. CYCLE    4 ..............................
........................................................................

 iter      E             dE          RMSdq      gap      omega  full diag
   1    -42.7286530 -0.427287E+02  0.279E-01    2.86       0.0  T
   2    -42.7287396 -0.865819E-04  0.164E-01    2.82       1.0  T
   3    -42.7287047  0.348834E-04  0.552E-02    2.86       1.0  T
   4    -42.7287459 -0.412363E-04  0.183E-02    2.83       1.1  T
   5    -42.7287529 -0.694614E-05  0.556E-03    2.84       3.6  T
   6    -42.7287531 -0.260965E-06  0.287E-03    2.83       7.0  T
   7    -42.7287531 -0.277033E-07  0.117E-03    2.83      17.1  T
   8    -42.7287532 -0.139251E-07  0.411E-04    2.83      48.6  T
   9    -42.7287532 -0.126420E-08  0.209E-04    2.83      95.5  T
     SCC iter.                  ...        0 min,  0.008 sec
     gradient                   ...        0 min,  0.008 sec
 * total energy  :   -42.2107444 Eh     change       -0.5510045E-02 Eh
   gradient norm :     0.0273052 Eh/α   predicted    -0.4748285E-02 ( -13.82%)
   displ. norm   :     0.6620043 α      lambda       -0.5606139E-02
   maximum displ.:     0.6072484 α      in ANC's #4, #12, #10, ...

........................................................................
.............................. CYCLE    5 ..............................
........................................................................

 iter      E             dE          RMSdq      gap      omega  full diag
   1    -42.7298411 -0.427298E+02  0.270E-01    2.86       0.0  T
   2    -42.7298869 -0.457640E-04  0.159E-01    2.82       1.0  T
   3    -42.7298672  0.196695E-04  0.399E-02    2.85       1.0  T
   4    -42.7298915 -0.242948E-04  0.117E-02    2.82       1.7  T
   5    -42.7298944 -0.287909E-05  0.439E-03    2.83       4.6  T
   6    -42.7298945 -0.536414E-07  0.206E-03    2.83       9.7  T
   7    -42.7298945 -0.385219E-07  0.696E-04    2.83      28.8  T
   8    -42.7298945 -0.457178E-08  0.340E-04    2.83      58.9  T
     SCC iter.                  ...        0 min,  0.007 sec
     gradient                   ...        0 min,  0.008 sec
 * total energy  :   -42.2153119 Eh     change       -0.4567486E-02 Eh
   gradient norm :     0.0272791 Eh/α   predicted    -0.4031517E-02 ( -11.73%)
   displ. norm   :     0.6210913 α      lambda       -0.4607513E-02
   maximum displ.:     0.5673800 α      in ANC's #4, #12, #7, ...

........................................................................
.............................. CYCLE    6 ..............................
........................................................................

 iter      E             dE          RMSdq      gap      omega  full diag
   1    -42.7344736 -0.427345E+02  0.240E-01    2.85       0.0  T
   2    -42.7345333 -0.596701E-04  0.141E-01    2.80       1.0  T
   3    -42.7345124  0.208505E-04  0.449E-02    2.84       1.0  T
   4    -42.7345397 -0.272853E-04  0.109E-02    2.81       1.8  T
   5    -42.7345423 -0.260222E-05  0.348E-03    2.82       5.7  T
   6    -42.7345423 -0.569674E-07  0.186E-03    2.81      10.8  T
   7    -42.7345424 -0.201251E-07  0.814E-04    2.82      24.6  T
   8    -42.7345424 -0.712575E-08  0.300E-04    2.81      66.6  T
     SCC iter.                  ...        0 min,  0.007 sec
     gradient                   ...        0 min,  0.008 sec
 * total energy  :   -42.2188861 Eh     change       -0.3574238E-02 Eh
   gradient norm :     0.0198198 Eh/α   predicted    -0.3192447E-02 ( -10.68%)
   displ. norm   :     0.5364929 α      lambda       -0.2820918E-02
   maximum displ.:     0.4772153 α      in ANC's #4, #12, #7, ...

........................................................................
.............................. CYCLE    7 ..............................
........................................................................

 iter      E             dE          RMSdq      gap      omega  full diag
   1    -42.7387209 -0.427387E+02  0.222E-01    2.83       0.0  T
   2    -42.7387562 -0.353570E-04  0.131E-01    2.80       1.0  T
   3    -42.7387336  0.226141E-04  0.396E-02    2.83       1.0  T
   4    -42.7387603 -0.267308E-04  0.106E-02    2.80       1.9  T
   5    -42.7387630 -0.264462E-05  0.305E-03    2.81       6.6  T
   6    -42.7387630 -0.338874E-07  0.146E-03    2.81      13.7  T
   7    -42.7387630 -0.986555E-08  0.492E-04    2.81      40.7  T
   8    -42.7387630 -0.199087E-08  0.246E-04    2.81      81.4  T
     SCC iter.                  ...        0 min,  0.007 sec
     gradient                   ...        0 min,  0.008 sec
 * total energy  :   -42.2209899 Eh     change       -0.2103729E-02 Eh
   gradient norm :     0.0163535 Eh/α   predicted    -0.1816462E-02 ( -13.66%)
   displ. norm   :     0.4244165 α      lambda       -0.1444804E-02
   maximum displ.:     0.3586353 α      in ANC's #4, #12, #7, ...

........................................................................
.............................. CYCLE    8 ..............................
........................................................................

 iter      E             dE          RMSdq      gap      omega  full diag
   1    -42.7420235 -0.427420E+02  0.167E-01    2.82       0.0  T
   2    -42.7420388 -0.153323E-04  0.982E-02    2.80       1.0  T
   3    -42.7420145  0.242579E-04  0.360E-02    2.83       1.0  T
   4    -42.7420426 -0.280158E-04  0.746E-03    2.80       2.7  T
   5    -42.7420438 -0.122433E-05  0.222E-03    2.81       9.0  T
   6    -42.7420438 -0.173877E-07  0.104E-03    2.81      19.2  T
   7    -42.7420438 -0.350796E-08  0.303E-04    2.81      66.0  T
   8    -42.7420438 -0.613710E-09  0.165E-04    2.81     121.1  T
     SCC iter.                  ...        0 min,  0.007 sec
     gradient                   ...        0 min,  0.008 sec
 * total energy  :   -42.2219782 Eh     change       -0.9882959E-03 Eh
   gradient norm :     0.0124905 Eh/α   predicted    -0.8525628E-03 ( -13.73%)
   displ. norm   :     0.2417443 α      lambda       -0.4241035E-03
   maximum displ.:     0.1986013 α      in ANC's #4, #7, #12, ...

........................................................................
.............................. CYCLE    9 ..............................
........................................................................

 iter      E             dE          RMSdq      gap      omega  full diag
   1    -42.7426803 -0.427427E+02  0.979E-02    2.81       0.0  T
   2    -42.7426858 -0.548918E-05  0.573E-02    2.80       1.0  T
   3    -42.7426734  0.124288E-04  0.261E-02    2.82       1.0  T
   4    -42.7426882 -0.148363E-04  0.377E-03    2.80       5.3  T
   5    -42.7426885 -0.237286E-06  0.157E-03    2.81      12.7  T
   6    -42.7426885 -0.157016E-07  0.850E-04    2.80      23.5  T
   7    -42.7426885 -0.301148E-08  0.317E-04    2.81      63.1  T
     SCC iter.                  ...        0 min,  0.006 sec
     gradient                   ...        0 min,  0.008 sec
 * total energy  :   -42.2222300 Eh     change       -0.2518191E-03 Eh
   gradient norm :     0.0066324 Eh/α   predicted    -0.2244448E-03 ( -10.87%)
   displ. norm   :     0.0632392 α      lambda       -0.1243181E-03
   maximum displ.:     0.0409253 α      in ANC's #7, #10, #44, ...

   *** GEOMETRY OPTIMIZATION CONVERGED AFTER 9 ITERATIONS ***

------------------------------------------------------------------------
 total energy gain   :        -0.0381117 Eh      -23.9155 kcal/mol
 total RMSD          :         0.8138915 a0        0.4307 Å
 total power (kW/mol):       -11.1180321 (step) -583.4796 (real)
------------------------------------------------------------------------

 ANCopt (total)                0 d,  0 h,  0 min,  0.171 sec
 optimizer setup                ...        0 min,  0.001 sec (  0.793%)
 model hessian                  ...        0 min,  0.004 sec (  2.573%)
 ANC generation                 ...        0 min,  0.001 sec (  0.331%)
 coordinate transformation      ...        0 min,  0.000 sec (  0.036%)
 single point calculation       ...        0 min,  0.162 sec ( 94.189%)
 optimization log               ...        0 min,  0.002 sec (  1.417%)
 hessian update                 ...        0 min,  0.000 sec (  0.058%)
 rational function              ...        0 min,  0.001 sec (  0.435%)

================
 final structure:
================
25
 xtb: 6.6.1 (8d0f1dd)
C            3.70202317262706        0.75150519832568        0.02203934466335
N            2.57328756689869       -0.14325787068248        0.00374343223083
C            2.61388307158962       -1.47046353366528       -0.00027843089386
N            1.35425881379416       -1.96484573190143       -0.00160012472417
C            0.49262133299737       -0.90661365940429        0.00212130247385
C            1.25937817700603        0.24355064505733        0.00599974395434
C            0.61845527285532        1.57577210139844       -0.01484572258411
O            1.22025179251985        2.61760579191237       -0.04080186245542
N           -0.74976201811243        1.46582333462525       -0.00631782871775
C           -3.44461631617529        1.60263317111556        0.00418949524936
C           -1.42547237567288        0.37399065437387        0.00149422082928
O           -2.73447420317060        0.35903086434407        0.01009276651196
N           -0.86244509385510       -0.90040142439108        0.00021564679575
C           -1.63194392541485       -2.12871748101223       -0.00890961149334
H            4.18977820477727        0.72280368297119        0.99749739710569
H            4.42375222257512        0.46369659803348       -0.74202183147691
H            3.34569172033439        1.76619959620760       -0.16393114948534
H            3.50555806303498       -2.06456008281592       -0.00374097096859
H           -2.75087895147047        2.44478191931360        0.00771353762641
H           -4.06610491976576        1.62810468144910       -0.89044319832119
H           -4.07959494455234        1.63027130314845        0.88972325998441
H           -1.41225157636100       -2.71820335052542        0.88247717348877
H           -1.40397605090613       -2.70964016812756       -0.90389676096557
H           -2.68840699542584       -1.87585700414442       -0.01242750784808
H            1.11141947397215       -2.94497069400616       -0.00692070307632

 Bond Distances (Angstroems)
 ---------------------------
C1-N2=1.4405         C1-H15=1.0910        C1-H16=1.0897        C1-H17=1.0914        N2-C1=1.4405         N2-C3=1.3278         
N2-C6=1.3697         C3-N2=1.3278         C3-N4=1.3532         C3-H18=1.0715        N4-C3=1.3532         N4-C5=1.3647         
N4-H25=1.0098        C5-N4=1.3647         C5-C6=1.3823         C5-N13=1.3551        C6-N2=1.3697         C6-C5=1.3823         
C6-C7=1.4785         C7-C6=1.4785         C7-O8=1.2034         C7-N9=1.3727         O8-C7=1.2034         N9-C7=1.3727         
N9-C11=1.2840        C10-O12=1.4321       C10-H19=1.0911       C10-H20=1.0896       C10-H21=1.0900       C11-N9=1.2840        
C11-O12=1.3091       C11-N13=1.3932       O12-C10=1.4321       O12-C11=1.3091       N13-C5=1.3551        N13-C11=1.3932       
N13-C14=1.4495       C14-N13=1.4495       C14-H22=1.0910       C14-H23=1.0911       C14-H24=1.0863       H15-C1=1.0910        
H16-C1=1.0897        H17-C1=1.0914        H18-C3=1.0715        H19-C10=1.0911       H20-C10=1.0896       H21-C10=1.0900       
H22-C14=1.0910       H23-C14=1.0911       H24-C14=1.0863       H25-N4=1.0098        
 C  H  Rav=1.0883 sigma=0.0058  Rmin=1.0715  Rmax=1.0914    10
 C  C  Rav=1.4304 sigma=0.0481  Rmin=1.3823  Rmax=1.4785     2
 N  H  Rav=1.0098 sigma=0.0000  Rmin=1.0098  Rmax=1.0098     1
 N  C  Rav=1.3710 sigma=0.0464  Rmin=1.2840  Rmax=1.4495    10
 O  C  Rav=1.3149 sigma=0.0934  Rmin=1.2034  Rmax=1.4321     3

 selected bond angles (degree)
 --------------------
H15-C1-N2=110.20               H16-C1-N2=110.24               H16-C1-H15=108.90              H17-C1-N2=108.63               
H17-C1-H15=108.83              H17-C1-H16=110.02              C3-N2-C1=126.65                C6-N2-C1=125.19                
C6-N2-C3=108.16                N4-C3-N2=109.68                H18-C3-N2=125.43               H18-C3-N4=124.90               
C5-N4-C3=107.72                H25-N4-C3=125.34               H25-N4-C5=126.93               C6-C5-N4=107.16                
N13-C5-N4=129.42               N13-C5-C6=123.43               C5-C6-N2=107.28                C7-C6-N2=132.09                
C7-C6-C5=120.61                O8-C7-C6=124.30                N9-C7-C6=111.09                N9-C7-O8=124.61                
C11-N9-C7=126.35               H19-C10-O12=110.79             H20-C10-O12=107.85             H20-C10-H19=110.32             
H21-C10-O12=107.91             H21-C10-H19=110.38             H21-C10-H20=109.52             

 selected dihedral angles (degree)
 ---------------------------------
C3-N2-C1-H15=288.86           C3-N2-C1-H16= 49.09           C3-N2-C1-H17=169.72           C6-N2-C1-H15=107.91           
C6-N2-C1-H16=228.14           C6-N2-C1-H17=348.76           N4-C3-N2-C1=179.22            N4-C3-N2-C6=  0.04            
H18-C3-N2-C1=359.12           H18-C3-N2-C6=179.94           C5-N4-C3-N2=  0.00            C5-N4-C3-H18=180.08           
H25-N4-C3-N2=179.83           H25-N4-C3-H18=359.93          C6-C5-N4-C3=  0.00            C6-C5-N4-H25=180.14           
N13-C5-N4-C3=179.88           N13-C5-N4-H25=  0.03          C5-C6-N2-C1=180.76            C5-C6-N2-C3=359.95            
C7-C6-N2-C1=  2.13            C7-C6-N2-C3=181.33            N2-C6-C5-N4=  0.03            N2-C6-C5-N13=180.14           
C7-C6-C5-N4=178.85            C7-C6-C5-N13=358.96           O8-C7-C6-N2=  0.09            O8-C7-C6-C5=181.61            
N9-C7-C6-N2=179.84            N9-C7-C6-C5=  1.36            C11-N9-C7-C6=359.17           C11-N9-C7-O8=178.91           
           -------------------------------------------------
          |                Final Singlepoint                |
           -------------------------------------------------

          ...................................................
          :                      SETUP                      :
          :.................................................:
          :  # basis functions                  67          :
          :  # atomic orbitals                  67          :
          :  # shells                           39          :
          :  # electrons                        74          :
          :  max. iterations                   250          :
          :  Hamiltonian                  GFN2-xTB          :
          :  restarted?                      false          :
          :  GBSA solvation                  false          :
          :  PC potential                    false          :
          :  electronic temp.         5000.0000000     K    :
          :  accuracy                    1.0000000          :
          :  -> integral cutoff          0.2500000E+02      :
          :  -> integral neglect         0.1000000E-07      :
          :  -> SCF convergence          0.1000000E-05 Eh   :
          :  -> wf. convergence          0.1000000E-03 e    :
          :  Broyden damping             0.4000000          :
          ...................................................

 iter      E             dE          RMSdq      gap      omega  full diag
   1    -42.7426885 -0.427427E+02  0.133E-04    2.80       0.0  T
   2    -42.7426885 -0.551310E-10  0.859E-05    2.80     233.0  T
   3    -42.7426885 -0.149853E-10  0.588E-05    2.80     340.4  T

   *** convergence criteria satisfied after 3 iterations ***

         #    Occupation            Energy/Eh            Energy/eV
      -------------------------------------------------------------
         1        2.0000           -0.9078989             -24.7052
       ...           ...                  ...                  ...
        31        1.9996           -0.6123287             -16.6623
        32        1.9996           -0.6103159             -16.6075
        33        1.9989           -0.5951749             -16.1955
        34        1.9914           -0.5620632             -15.2945
        35        1.9876           -0.5561879             -15.1346
        36        1.9828           -0.5510346             -14.9944
        37        1.9376           -0.5302404             -14.4286 (HOMO)
        38        0.0884           -0.4271590             -11.6236 (LUMO)
        39        0.0096           -0.3914178             -10.6510
        40        0.0048           -0.3803591             -10.3501
        41        0.0000           -0.2676514              -7.2832
        42                         -0.2010314              -5.4703
       ...                                ...                  ...
        67                          0.5648559              15.3705
      -------------------------------------------------------------
                  HL-Gap            0.1030814 Eh            2.8050 eV
             Fermi-level           -0.4758308 Eh          -12.9480 eV

 SCC (total)                   0 d,  0 h,  0 min,  0.015 sec
 SCC setup                      ...        0 min,  0.000 sec (  0.991%)
 Dispersion                     ...        0 min,  0.000 sec (  0.800%)
 classical contributions        ...        0 min,  0.000 sec (  0.342%)
 integral evaluation            ...        0 min,  0.003 sec ( 21.442%)
 iterations                     ...        0 min,  0.003 sec ( 20.709%)
 molecular gradient             ...        0 min,  0.008 sec ( 55.128%)
 printout                       ...        0 min,  0.000 sec (  0.549%)

         :::::::::::::::::::::::::::::::::::::::::::::::::::::
         ::                     SUMMARY                     ::
         :::::::::::::::::::::::::::::::::::::::::::::::::::::
         :: total energy             -42.222229989302 Eh    ::
         :: gradient norm              0.006635037904 Eh/a0 ::
         :: HOMO-LUMO gap              2.804988405547 eV    ::
         ::.................................................::
         :: SCC energy               -42.742688489025 Eh    ::
         :: -> isotropic ES            0.130848657189 Eh    ::
         :: -> anisotropic ES         -0.005678312217 Eh    ::
         :: -> anisotropic XC          0.014917248273 Eh    ::
         :: -> dispersion             -0.022096006620 Eh    ::
         :: repulsion energy           0.520413907497 Eh    ::
         :: add. restraining           0.000000000000 Eh    ::
         :: total charge               1.000000000000 e     ::
         :::::::::::::::::::::::::::::::::::::::::::::::::::::

           -------------------------------------------------
          |                Property Printout                |
           -------------------------------------------------

    * Orbital Energies and Occupations

         #    Occupation            Energy/Eh            Energy/eV
      -------------------------------------------------------------
         1        2.0000           -0.9078989             -24.7052
       ...           ...                  ...                  ...
        25        2.0000           -0.6716355             -18.2761
        26        2.0000           -0.6645344             -18.0829
        27        2.0000           -0.6443636             -17.5340
        28        1.9999           -0.6357629             -17.3000
        29        1.9999           -0.6291676             -17.1205
        30        1.9998           -0.6250264             -17.0078
        31        1.9996           -0.6123287             -16.6623
        32        1.9996           -0.6103159             -16.6075
        33        1.9989           -0.5951749             -16.1955
        34        1.9914           -0.5620632             -15.2945
        35        1.9876           -0.5561879             -15.1346
        36        1.9828           -0.5510346             -14.9944
        37        1.9376           -0.5302404             -14.4286 (HOMO)
        38        0.0884           -0.4271590             -11.6236 (LUMO)
        39        0.0096           -0.3914178             -10.6510
        40        0.0048           -0.3803591             -10.3501
        41        0.0000           -0.2676514              -7.2832
        42                         -0.2010314              -5.4703
        43                         -0.1865388              -5.0760
        44                         -0.1477721              -4.0211
        45                         -0.1216771              -3.3110
        46                         -0.0769424              -2.0937
        47                         -0.0457291              -1.2444
        48                         -0.0329164              -0.8957
       ...                                ...                  ...
        67                          0.5648559              15.3705
      -------------------------------------------------------------
                  HL-Gap            0.1030814 Eh            2.8050 eV
             Fermi-level           -0.4758308 Eh          -12.9480 eV

     #   Z          covCN         q      C6AA      α(0)
     1   6 C        3.691    -0.093    22.474     6.784
     2   7 N        2.839     0.083    19.802     6.609
     3   6 C        3.061     0.050    26.831     8.494
     4   7 N        2.796    -0.062    22.446     7.036
     5   6 C        3.077     0.112    25.445     8.270
     6   6 C        3.120    -0.023    28.401     8.728
     7   6 C        2.772     0.298    21.953     7.674
     8   8 O        0.858    -0.341    20.536     6.076
     9   7 N        1.840    -0.290    28.364     7.893
    10   6 C        3.648    -0.000    20.921     6.572
    11   6 C        2.779     0.301    21.889     7.663
    12   8 O        1.707    -0.200    17.337     5.622
    13   7 N        2.739    -0.049    22.194     6.997
    14   6 C        3.693    -0.072    22.063     6.721
    15   1 H        0.924     0.109     1.709     2.044
    16   1 H        0.925     0.104     1.749     2.068
    17   1 H        0.924     0.139     1.472     1.897
    18   1 H        0.926     0.123     1.590     1.972
    19   1 H        0.924     0.105     1.742     2.064
    20   1 H        0.925     0.099     1.796     2.096
    21   1 H        0.925     0.099     1.793     2.094
    22   1 H        0.924     0.084     1.938     2.177
    23   1 H        0.924     0.084     1.940     2.178
    24   1 H        0.925     0.117     1.640     2.003
    25   1 H        0.860     0.227     0.980     1.551

 Mol. C6AA /au·bohr⁶  :       6534.809633
 Mol. C8AA /au·bohr⁸  :     149903.252282
 Mol. α(0) /au        :        123.282920


Wiberg/Mayer (AO) data.
largest (>0.10) Wiberg bond orders for each atom

 ---------------------------------------------------------------------------
     #   Z sym  total        # sym  WBO       # sym  WBO       # sym  WBO
 ---------------------------------------------------------------------------
     1   6 C    3.914 --     2 N    0.984    16 H    0.965    17 H    0.960
                            15 H    0.956
     2   7 N    3.690 --     3 C    1.392     6 C    1.174     1 C    0.984
     3   6 C    3.858 --     2 N    1.392     4 N    1.272    18 H    0.953
     4   7 N    3.583 --     3 C    1.272     5 C    1.190    25 H    0.920
     5   6 C    3.946 --     6 C    1.384     4 N    1.190    13 N    1.182
     6   6 C    3.901 --     5 C    1.384     2 N    1.174     7 C    1.013
     7   6 C    3.947 --     8 O    1.721     9 N    1.131     6 C    1.013
     8   8 O    2.042 --     7 C    1.721     9 N    0.112
     9   7 N    3.048 --    11 C    1.513     7 C    1.131     8 O    0.112
                            12 O    0.111
    10   6 C    3.871 --    19 H    0.970    21 H    0.969    20 H    0.969
                            12 O    0.924
    11   6 C    3.935 --     9 N    1.513    12 O    1.198    13 N    1.088
    12   8 O    2.353 --    11 C    1.198    10 C    0.924     9 N    0.111
    13   7 N    3.557 --     5 C    1.182    11 C    1.088    14 C    0.975
    14   6 C    3.931 --    13 N    0.975    23 H    0.971    22 H    0.971
                            24 H    0.969
    15   1 H    0.985 --     1 C    0.956
    16   1 H    0.987 --     1 C    0.965
    17   1 H    0.980 --     1 C    0.960
    18   1 H    0.984 --     3 C    0.953
    19   1 H    0.988 --    10 C    0.970
    20   1 H    0.987 --    10 C    0.969
    21   1 H    0.987 --    10 C    0.969
    22   1 H    0.990 --    14 C    0.971
    23   1 H    0.990 --    14 C    0.971
    24   1 H    0.986 --    14 C    0.969
    25   1 H    0.948 --     4 N    0.920
 ---------------------------------------------------------------------------

Topologies differ in total number of bonds
Writing topology from bond orders to xtbtopo.mol

molecular dipole:
                 x           y           z       tot (Debye)
 q only:        1.173      -2.639       0.025
   full:        1.318      -3.418       0.034       9.313
molecular quadrupole (traceless):
                xx          xy          yy          xz          yz          zz
 q only:       30.519     -11.566      -8.094       0.236       0.242     -22.424
  q+dip:       28.435     -13.697      -9.500       0.317       0.332     -18.935
   full:       27.946     -13.656     -10.364       0.324       0.359     -17.582

           -------------------------------------------------
          |                Geometry Summary                 |
           -------------------------------------------------

      molecular mass/u    :      195.1988581
   center of mass at/Å    :        0.1773339       0.1169600      -0.0017954
  moments of inertia/u·Å² :        0.4095478E+03   0.8726114E+03   0.1272508E+04
rotational constants/cm⁻¹ :        0.4116158E-01   0.1931860E-01   0.1324756E-01

 * 25 selected distances

     #   Z          #   Z                                           value/Å
     1   6 C        2   7 N                                       1.4404791
     2   7 N        3   6 C                                       1.3278326
     3   6 C        4   7 N                                       1.3531700
     4   7 N        5   6 C                                       1.3646569
     2   7 N        6   6 C                                       1.3696657
     5   6 C        6   6 C                                       1.3823203
     7   6 C        8   8 O                                       1.2034328
     7   6 C        9   7 N                                       1.3726545
     9   7 N       11   6 C                                       1.2840344
    10   6 C       12   8 O                                       1.4320907
    11   6 C       12   8 O                                       1.3091157
     5   6 C       13   7 N                                       1.3550821
    11   6 C       13   7 N                                       1.3932254
    13   7 N       14   6 C                                       1.4494732 (max)
     1   6 C       15   1 H                                       1.0909846
     1   6 C       16   1 H                                       1.0897322
     1   6 C       17   1 H                                       1.0914037
     3   6 C       18   1 H                                       1.0714696
    10   6 C       19   1 H                                       1.0910998
    10   6 C       20   1 H                                       1.0896168
    10   6 C       21   1 H                                       1.0900147
    14   6 C       22   1 H                                       1.0910220
    14   6 C       23   1 H                                       1.0910741
    14   6 C       24   1 H                                       1.0863081
     4   7 N       25   1 H                                       1.0097744 (min)

 * 5 distinct bonds (by element types)

   Z      Z             #   av. dist./Å        max./Å        min./Å
   1 H    6 C          10     1.0882726     1.0914037     1.0714696
   6 C    6 C           1     1.3823203     1.3823203     1.3823203
   1 H    7 N           1     1.0097744     1.0097744     1.0097744
   6 C    7 N          10     1.3710274     1.4494732     1.2840344
   6 C    8 O           3     1.3148797     1.4320907     1.2034328


optimized geometry written to: xtbopt.xyz


           -------------------------------------------------
          | TOTAL ENERGY              -42.222229989302 Eh   |
          | GRADIENT NORM               0.006635037904 Eh/α |
          | HOMO-LUMO GAP               2.804988405547 eV   |
           -------------------------------------------------

------------------------------------------------------------------------
 * finished run on 2024/06/05 at 19:57:58.246     
------------------------------------------------------------------------
 total:
 * wall-time:     0 d,  0 h,  0 min,  0.271 sec
 *  cpu-time:     0 d,  0 h,  0 min,  0.218 sec
 * ratio c/w:     0.806 speedup
 SCF:
 * wall-time:     0 d,  0 h,  0 min,  0.016 sec
 *  cpu-time:     0 d,  0 h,  0 min,  0.016 sec
 * ratio c/w:     0.999 speedup
 ANC optimizer:
 * wall-time:     0 d,  0 h,  0 min,  0.197 sec
 *  cpu-time:     0 d,  0 h,  0 min,  0.185 sec
 * ratio c/w:     0.943 speedup

