72
 energy: -99.341234623520 gnorm: 0.002792794614 xtb: 6.6.1 (8d0f1dd)
N           -1.86183545544112        2.83144757805591        2.31763025814188
C           -1.87521244258436        1.98607613043051        1.39660559658368
C           -2.96484094824243        1.88264051348677        0.36079386175187
C           -3.53793338351824        0.47778589391100        0.37301946646321
C           -4.40256890633825        0.06974400156873       -0.64139558789800
C           -4.92809721799654       -1.21248615337446       -0.67118016153274
O           -5.76741187066169       -1.68999722130949       -1.60917482738240
C           -6.20985405854509       -0.84041208620559       -2.64113592008334
C           -4.57659784120466       -2.13763089594881        0.35115763328437
O           -5.10211355687632       -3.36926578460957        0.22491691644369
C           -4.78671019658098       -4.35233759786514        1.18293890823318
C           -3.75148716361823       -1.70910225028991        1.38029267251101
C           -3.24900752341747       -0.41797091716135        1.39384822164721
C           -2.27385597876921        2.19388764064748       -1.00116012480067
C           -1.65502942874935        1.00539549352960       -1.75424908621106
C           -0.74465150303557        0.15550897573597       -0.93866874975937
N           -0.95087505885199       -1.07518076583358       -0.83429435748873
C            2.70216987945086        0.42941654212634       -0.36611024193956
C            2.95719502941532       -0.17843950444092       -1.68574451195062
C            4.16302666603854        0.18457536473522       -0.80681151540305
C            4.94667235617662        1.35128790421261       -1.15421626767032
C            6.26880748803485        1.43921806193785       -0.83904946199247
C            6.93410520127893        0.39364525251181       -0.17789647294001
O            8.21504296093798        0.39652084460594        0.18152583981888
C            9.02189278666584        1.52295440018250       -0.08890163526240
C            6.20550862766354       -0.80179235915103        0.15603032928648
O            6.94470686626841       -1.74624903334251        0.76905887563591
C            6.33188995266778       -2.96140660751696        1.13595255142723
C            4.88053322161472       -0.89813172662642       -0.14934775768482
C           -0.14304318368635       -1.96674103758483       -0.07971284882697
C           -4.12659550050309        2.89120741143486        0.60252173924843
C           -4.82952917843181        2.62316444276181        1.93099099769872
C           -3.68490792757731        4.35095377804298        0.54032234441918
H           -4.67163496725156        0.76837699650818       -1.41679311985569
H           -6.75469080159899        0.02166430899789       -2.24437651802513
H           -6.88330793116909       -1.44369537921389       -3.24691143863191
H           -5.37758865385988       -0.49481200026726       -3.26227093562629
H           -5.14038031201979       -4.07093485787595        2.17935164020302
H           -5.30312408393745       -5.25378378840080        0.85887507352696
H           -3.70973673570681       -4.54420992971708        1.21842526456404
H           -3.49654598305660       -2.37673863319705        2.18752462659613
H           -2.63235510895342       -0.11572497424802        2.22589216615152
H           -3.00894522061602        2.64441542627834       -1.66874012824826
H           -1.50094948586002        2.94382688755725       -0.81755915445746
H           -2.42992197729587        0.35813127437072       -2.16162327213140
H           -1.07798333837029        1.41642406046828       -2.58846220344729
H           -1.06604248499040        1.26077059014953        1.23113493407980
H            0.11143786358142        0.66434526408249       -0.47142618761362
H            2.35360096679819       -0.19066888772346        0.44440230589959
H            2.39315921835384        1.46201603281069       -0.31320976134039
H            2.80739447460575        0.41921323681374       -2.57121732851812
H            2.76341717406200       -1.23048013563959       -1.82487467229497
H            4.45283379339455        2.16573197792012       -1.66053211841147
H            6.81284856236330        2.33153024060544       -1.10365877456699
H            8.64575671357043        2.41330153638463        0.42285591985600
H            9.08932402737350        1.71682916495823       -1.16283072297705
H           10.00838510763014        1.27337442738967        0.29645964954905
H            7.11449136235605       -3.55144945468968        1.60809188519414
H            5.51892232412705       -2.79970785651971        1.85040661580427
H            5.95145000404602       -3.49698155589879        0.26092741707840
H            4.31794572123648       -1.78449799021933        0.09520494471381
H            0.39047659476860       -2.62104051405882       -0.77109206413794
H           -0.80762130939611       -2.58975057453508        0.51899238708436
H            0.57873540787822       -1.46680576794224        0.57932541938609
H           -4.85304163088440        2.72170224293374       -0.20098372758475
H           -4.15213553842875        2.81839321530586        2.75679616706103
H           -5.17472367521391        1.59367740515710        1.99219872907608
H           -5.68950735142668        3.28050093640815        2.02932056357944
H           -2.95210602061630        4.55290840609834        1.31540045860678
H           -3.26069660306143        4.60863605530576       -0.42624832499614
H           -4.54657781871639        4.99187566243912        0.70918814337419
H           -1.06343939826975        2.83949018506510        2.94474430027170
