72
 energy: -99.340994411082 gnorm: 0.004923103595 xtb: 6.6.1 (8d0f1dd)
N           -1.86014893048995        2.83218739465556        2.31678478646528
C           -1.87380880027296        1.98662407030986        1.39586848173193
C           -2.96353871863697        1.88299293732942        0.36026344690735
C           -3.53639868653039        0.47805903170422        0.37263397875190
C           -4.40158784179958        0.06992074963736       -0.64124240938805
C           -4.92709316654027       -1.21235516173948       -0.67043468819743
O           -5.76702187154754       -1.69020182395344       -1.60777049841979
C           -6.21050675834965       -0.84097346042406       -2.63960380971683
C           -4.57476867408737       -2.13743374752683        0.35172119026398
O           -5.10011822592592       -3.36916265932156        0.22570277436183
C           -4.78297974577782       -4.35257734378655        1.18280145696424
C           -3.74922680740221       -1.70866390660101        1.38042438624008
C           -3.24702691320148       -0.41743967044001        1.39356428433061
C           -2.27199371268875        2.19438857832678       -1.00150549269584
C           -1.64703858841507        1.00846053035731       -1.75380046945640
C           -0.73159568447780        0.16282464831395       -0.93858603491866
N           -0.92942387554599       -1.06885536047779       -0.83791467337808
C            2.68559472268340        0.41804361215565       -0.37138198994220
C            2.95317566193024       -0.18436993906562       -1.69033550228453
C            4.15265053899417        0.18231651937205       -0.80439614371043
C            4.93647882388451        1.35030462597168       -1.14958149880697
C            6.25937884037421        1.43920248621498       -0.83576972550587
C            6.92685585715894        0.39434755493416       -0.17575091115762
O            8.20841506605846        0.39746624150502        0.18207875849473
C            9.01615821207082        1.52351732140491       -0.08825734980060
C            6.19876039503062       -0.80147118765194        0.15787674913851
O            6.93957450706809       -1.74579941506092        0.76938764353555
C            6.32874368892508       -2.96205215310005        1.13620581962021
C            4.87348537824041       -0.89905921483074       -0.14735900132484
C           -0.12940450458459       -1.96298502914957       -0.07941707805732
C           -4.12525229191776        2.89166996901811        0.60239854072634
C           -4.82729067766143        2.62416532745087        1.93156046970381
C           -3.68366897208161        4.35143269491746        0.53955502299424
H           -4.67140040917312        0.76855279873043       -1.41642594240195
H           -6.75644736206917        0.02033770382178       -2.24274588579546
H           -6.88313872820197       -1.44503214102441       -3.24549956576964
H           -5.37864819611908       -0.49418191324529       -3.26066273360685
H           -5.13571941262537       -4.07210014108228        2.17980941176127
H           -5.29907242880042       -5.25420826968913        0.85874731156664
H           -3.70578313670648       -4.54364888945473        1.21698020380681
H           -3.49377980299189       -2.37612890606724        2.18768865723387
H           -2.63047998541582       -0.11477053503448        2.22553525898969
H           -3.00780366165086        2.64259605479889       -1.66983896477989
H           -1.50150697467169        2.94689667589693       -0.81788480808015
H           -2.41913549309048        0.35940127441574       -2.16339480900308
H           -1.07031643443080        1.42241215265389       -2.58636363256947
H           -1.06434346050156        1.26177931103420        1.23006473166735
H            0.11828349259054        0.67733897548194       -0.46659989410686
H            2.33934551760146       -0.20409137971562        0.43826223630320
H            2.37553257640491        1.45031421760065       -0.31602989938590
H            2.80550001863751        0.41512851545005       -2.57502138522836
H            2.76490358337724       -1.23679148231868       -1.83293982033326
H            4.44360704321379        2.16430147561951       -1.65751582824386
H            6.80300952849582        2.33156644049833       -1.10167715940719
H            8.64158531266386        2.41383862297885        0.42480065795719
H            9.08281022756076        1.71850277089191       -1.16202584957074
H           10.00294402119560        1.27283553388293        0.29569920759999
H            7.11211837494243       -3.55084628205397        1.60870478002053
H            5.51531741644348       -2.80144169648960        1.85035666205360
H            5.94963730065929       -3.49827616880868        0.26096824821918
H            4.31323829859684       -1.78731157523974        0.09538464892193
H            0.40853846264453       -2.61490955584264       -0.76989074621246
H           -0.79910252624116       -2.58967676940712        0.50959128883471
H            0.58551418945045       -1.46615463029702        0.58855820479873
H           -4.85244977025079        2.72203321688252       -0.20044184835395
H           -4.14919183113465        2.81939630089455        2.75679799927342
H           -5.17282492545640        1.59482661936849        1.99334364447580
H           -5.68699861328972        3.28183983553004        2.03047503350407
H           -2.95019819334418        4.55348151010986        1.31401537230049
H           -3.26023045785511        4.60886985279994       -0.42742799900456
H           -4.54509053720469        4.99251912929318        0.70898060703200
H           -1.06108567070500        2.84041664921037        2.94316693462267
72
 energy: -99.341234622721 gnorm: 0.002792604605 xtb: 6.6.1 (8d0f1dd)
N           -1.86183545544112        2.83144757805591        2.31763025814188
C           -1.87521244258436        1.98607613043051        1.39660559658368
C           -2.96484094824243        1.88264051348677        0.36079386175187
C           -3.53793338351824        0.47778589391100        0.37301946646321
C           -4.40256890633825        0.06974400156873       -0.64139558789800
C           -4.92809721799654       -1.21248615337446       -0.67118016153274
O           -5.76741187066169       -1.68999722130949       -1.60917482738240
C           -6.20985405854509       -0.84041208620559       -2.64113592008334
C           -4.57659784120466       -2.13763089594881        0.35115763328437
O           -5.10211355687632       -3.36926578460957        0.22491691644369
C           -4.78671019658098       -4.35233759786514        1.18293890823318
C           -3.75148716361823       -1.70910225028991        1.38029267251101
C           -3.24900752341747       -0.41797091716135        1.39384822164721
C           -2.27385597876921        2.19388764064748       -1.00116012480067
C           -1.65502942874935        1.00539549352960       -1.75424908621106
C           -0.74465150303557        0.15550897573597       -0.93866874975937
N           -0.95087505885199       -1.07518076583358       -0.83429435748873
C            2.70216987945086        0.42941654212634       -0.36611024193956
C            2.95719502941532       -0.17843950444092       -1.68574451195062
C            4.16302666603854        0.18457536473522       -0.80681151540305
C            4.94667235617662        1.35128790421261       -1.15421626767032
C            6.26880748803485        1.43921806193785       -0.83904946199247
C            6.93410520127893        0.39364525251181       -0.17789647294001
O            8.21504296093798        0.39652084460594        0.18152583981888
C            9.02189278666584        1.52295440018250       -0.08890163526240
C            6.20550862766354       -0.80179235915103        0.15603032928648
O            6.94470686626841       -1.74624903334251        0.76905887563591
C            6.33188995266778       -2.96140660751696        1.13595255142723
C            4.88053322161472       -0.89813172662642       -0.14934775768482
C           -0.14304318368635       -1.96674103758483       -0.07971284882697
C           -4.12659550050309        2.89120741143486        0.60252173924843
C           -4.82952917843181        2.62316444276181        1.93099099769872
C           -3.68490792757731        4.35095377804298        0.54032234441918
H           -4.67163496725156        0.76837699650818       -1.41679311985569
H           -6.75469080159899        0.02166430899789       -2.24437651802513
H           -6.88330793116909       -1.44369537921389       -3.24691143863191
H           -5.37758865385988       -0.49481200026726       -3.26227093562629
H           -5.14038031201979       -4.07093485787595        2.17935164020302
H           -5.30312408393745       -5.25378378840080        0.85887507352696
H           -3.70973673570681       -4.54420992971708        1.21842526456404
H           -3.49654598305660       -2.37673863319705        2.18752462659613
H           -2.63235510895342       -0.11572497424802        2.22589216615152
H           -3.00894522061602        2.64441542627834       -1.66874012824826
H           -1.50094948586002        2.94382688755725       -0.81755915445746
H           -2.42992197729587        0.35813127437072       -2.16162327213140
H           -1.07798333837029        1.41642406046828       -2.58846220344729
H           -1.06604248499040        1.26077059014953        1.23113493407980
H            0.11143786358142        0.66434526408249       -0.47142618761362
H            2.35360096679819       -0.19066888772346        0.44440230589959
H            2.39315921835384        1.46201603281069       -0.31320976134039
H            2.80739447460575        0.41921323681374       -2.57121732851812
H            2.76341717406200       -1.23048013563959       -1.82487467229497
H            4.45283379339455        2.16573197792012       -1.66053211841147
H            6.81284856236330        2.33153024060544       -1.10365877456699
H            8.64575671357043        2.41330153638463        0.42285591985600
H            9.08932402737350        1.71682916495823       -1.16283072297705
H           10.00838510763014        1.27337442738967        0.29645964954905
H            7.11449136235605       -3.55144945468968        1.60809188519414
H            5.51892232412705       -2.79970785651971        1.85040661580427
H            5.95145000404602       -3.49698155589879        0.26092741707840
H            4.31794572123648       -1.78449799021933        0.09520494471381
H            0.39047659476860       -2.62104051405882       -0.77109206413794
H           -0.80762130939611       -2.58975057453508        0.51899238708436
H            0.57873540787822       -1.46680576794224        0.57932541938609
H           -4.85304163088440        2.72170224293374       -0.20098372758475
H           -4.15213553842875        2.81839321530586        2.75679616706103
H           -5.17472367521391        1.59367740515710        1.99219872907608
H           -5.68950735142668        3.28050093640815        2.02932056357944
H           -2.95210602061630        4.55290840609834        1.31540045860678
H           -3.26069660306143        4.60863605530576       -0.42624832499614
H           -4.54657781871639        4.99187566243912        0.70918814337419
H           -1.06343939826975        2.83949018506510        2.94474430027170
