72
 energy: -99.357547097130 gnorm: 0.001576773406 xtb: 6.6.1 (8d0f1dd)
N           -1.82963087908336        3.26088022559529        2.11754239128114
C           -1.80553597731401        2.46885088282191        1.15318246929259
C           -2.96383844630766        2.20408283403357        0.23221506497971
C           -3.43805214130746        0.76848045920587        0.41023991101473
C           -4.37051287341279        0.23833047465565       -0.47810146376656
C           -4.82557882872925       -1.07081142731194       -0.34080589731677
O           -5.73804205679440       -1.65440524944853       -1.14557265485408
C           -6.37301743915026       -0.89125207329016       -2.14534422522911
C           -4.31530366461158       -1.87132060277326        0.68895456048461
O           -3.89352175321061       -5.66611368825844        0.74886191362895
C           -4.06330219158437       -6.79061167393039        1.12133202607331
C           -3.40313424415064       -1.34191915471286        1.57442263025581
C           -2.96688791289394       -0.02852330763254        1.44613342202452
C           -2.41401110229622        2.40314409440804       -1.20514594312006
C           -1.51822110736115        1.25818435642880       -1.71292512278004
C           -0.19326849033153        1.19815913533891       -1.05731015695981
N            0.40057468973370        0.09522610714148       -0.62505253171147
C            1.77969036804724        0.12890214012571       -0.19679334944084
C            2.73001510722429       -0.36900864945623       -1.30322059581892
C            4.15997483904871       -0.19087774831984       -0.87498746612756
C            4.80695860765554        1.01793102881362       -1.07787773096694
C            6.11875762419469        1.19974039062858       -0.66934161047666
C            6.81179320429569        0.17293922288827       -0.04405153236689
O            8.08407882313371        0.23351935302976        0.38854392434357
C            8.82122254324148        1.41913063395563        0.19660815454060
C            6.15505442217606       -1.07065493803197        0.17253705717299
O            6.90229552517684       -2.01210260737727        0.78068312178844
C            6.35674019093322       -3.29023431379660        1.00534249907408
C            4.84128391182300       -1.22729560126953       -0.24191802088609
C           -0.25663268651309       -1.19022635991456       -0.64373581400489
C           -4.17372510316838        3.15297129517567        0.47716988901436
C           -4.79591609409207        2.91765524372591        1.85152849346389
C           -3.82416640884193        4.62952310207124        0.31495310799012
H           -4.74974964472253        0.85467650028936       -1.27671962805300
H           -6.86513214228392       -0.00969316213847       -1.72531311129013
H           -7.12342201495209       -1.54606434605975       -2.58294466838336
H           -5.66807361297206       -0.58296170923070       -2.92376611911604
H           -4.65570701034561       -2.89038151854967        0.77124599168085
H           -5.05572236325797       -7.26569343397778        1.14540730840900
H           -3.23732783682747       -7.43480499485645        1.46269971605488
H           -3.02721433948369       -1.95308036191433        2.38031946528474
H           -2.27437310852882        0.37415577882210        2.16933019705828
H           -3.25493886595635        2.49896271878707       -1.89130310115795
H           -1.85302086096487        3.33796285692166       -1.24049689664095
H           -2.04993819243246        0.31215096338477       -1.62853725658670
H           -1.34287875914571        1.44925128414899       -2.77987954150896
H           -0.90430561583537        1.90458700487482        0.84204760196510
H            0.40281096989255        2.09941176219225       -1.05697373773602
H            1.89484653999180       -0.49551853243709        0.69269766584434
H            2.05214850657036        1.15304844555402        0.06685892716746
H            2.54206047538570        0.20973951757980       -2.20956666166502
H            2.52746410260269       -1.41913315695861       -1.51571850971569
H            4.29401825919876        1.82900331096408       -1.57228363738156
H            6.59744432905887        2.14824620324964       -0.84927246792953
H            8.36529503529878        2.26395946926445        0.72167136104402
H            8.92238043855476        1.65987156044903       -0.86586862521484
H            9.80538184580525        1.22195220821079        0.61716515368757
H            7.15066590561040       -3.86750808430245        1.47518397941996
H            5.49513137469563       -3.24633411515069        1.67911075609816
H            6.06521892775402       -3.77261206666229        0.06730723879899
H            4.33748496918551       -2.16866689098408       -0.08791294799141
H           -0.43188756795386       -1.52940311074798       -1.66655938550566
H           -1.21487451611597       -1.13933917948419       -0.12137119048088
H            0.36955253689643       -1.92125841982593       -0.13969382087400
H           -4.92487959533692        2.89939868218754       -0.27977512346772
H           -4.08333282970306        3.16859546068748        2.63071995754582
H           -5.10225111646248        1.88151265097901        1.97368255694125
H           -5.67232038031413        3.54972314733761        1.96781532743404
H           -3.07412423939042        4.92154620820506        1.04332808100430
H           -3.46120476027498        4.85471161912012       -0.68431321269505
H           -4.71554862951048        5.22693820458591        0.48736849774217
H           -0.97930107226841        3.38489346347242        2.65750818213499
