25
 energy: -42.558874645590 xtb: 6.6.1 (8d0f1dd)
C            3.25239641010308        1.25559000292881        0.09191410661333
N            2.32249000345086        0.16086923345200        0.10501782339104
C            2.63978310366072       -1.17765342414478        0.18571351127662
N            1.47843279845437       -1.90290530431496        0.09023349402421
C            0.41028809365900       -1.08253879333293       -0.02540331140338
C            0.92364445946768        0.22940590732311        0.01533634382866
C            0.13689410811003        1.38941845093901       -0.01122092636781
O            0.50642357419360        2.56984541921924       -0.00557202787310
N           -1.24801498461802        1.03404563478351       -0.04312285578567
C           -2.17070532536300        2.16132844525766       -0.06552941627571
C           -1.79629341913919       -0.22019084675548       -0.07864429794315
O           -2.99803485244328       -0.38200610630972       -0.03103563207330
N           -0.94174932928285       -1.37484855953534       -0.19687282595482
C           -1.58960059959935       -2.74371685011580       -0.17793563676565
H            3.77370971891583        1.34121424562395        1.05246572630540
H            4.00385867073621        1.12329586705436       -0.69316528038689
H            2.70184906883731        2.17799289753584       -0.09077920179274
H            3.62780251828598       -1.57367654412844        0.15952833610347
H           -1.56933406400837        3.07152383220425       -0.03217831629834
H           -2.75757679500013        2.14012492647231       -0.98248106790199
H           -2.84593304181703        2.13558656308330        0.78814261236778
H           -0.88881275378644       -3.41368715322529        0.31880554532482
H           -2.03701336231441       -3.43344494257769       -1.06032495310741
H           -2.48911698825632       -2.58753696436633        0.41323344903330
H            1.47298667881409       -2.90706280905193        0.12566929971707
