      -----------------------------------------------------------      
     |                   =====================                   |     
     |                           x T B                           |     
     |                   =====================                   |     
     |                         S. Grimme                         |     
     |          Mulliken Center for Theoretical Chemistry        |     
     |                    University of Bonn                     |     
      -----------------------------------------------------------      

   * xtb version 6.6.1 (8d0f1dd) compiled by 'conda@1efc2f54142f' on 2023-08-01

   xtb is free software: you can redistribute it and/or modify it under
   the terms of the GNU Lesser General Public License as published by
   the Free Software Foundation, either version 3 of the License, or
   (at your option) any later version.
   
   xtb is distributed in the hope that it will be useful,
   but WITHOUT ANY WARRANTY; without even the implied warranty of
   MERCHANTABILITY or FITNESS FOR A PARTICULAR PURPOSE.  See the
   GNU Lesser General Public License for more details.
   
   Cite this work as:
   * C. Bannwarth, E. Caldeweyher, S. Ehlert, A. Hansen, P. Pracht,
     J. Seibert, S. Spicher, S. Grimme, WIREs Comput. Mol. Sci., 2020, 11,
     e01493. DOI: 10.1002/wcms.1493
   
   for GFN2-xTB:
   * C. Bannwarth, S. Ehlert and S. Grimme., J. Chem. Theory Comput., 2019,
     15, 1652-1671. DOI: 10.1021/acs.jctc.8b01176
   for GFN1-xTB:
   * S. Grimme, C. Bannwarth, P. Shushkov, J. Chem. Theory Comput., 2017,
     13, 1989-2009. DOI: 10.1021/acs.jctc.7b00118
   for GFN0-xTB:
   * P. Pracht, E. Caldeweyher, S. Ehlert, S. Grimme, ChemRxiv, 2019, preprint.
     DOI: 10.26434/chemrxiv.8326202.v1
   for GFN-FF:
   * S. Spicher and S. Grimme, Angew. Chem. Int. Ed., 2020, 59, 15665-15673.
     DOI: 10.1002/anie.202004239
   
   for ALPB and GBSA implicit solvation:
   * S. Ehlert, M. Stahn, S. Spicher, S. Grimme, J. Chem. Theory Comput.,
     2021, 17, 4250-4261. DOI: 10.1021/acs.jctc.1c00471
   
   for DFT-D4:
   * E. Caldeweyher, C. Bannwarth and S. Grimme, J. Chem. Phys., 2017,
     147, 034112. DOI: 10.1063/1.4993215
   * E. Caldeweyher, S. Ehlert, A. Hansen, H. Neugebauer, S. Spicher,
     C. Bannwarth and S. Grimme, J. Chem. Phys., 2019, 150, 154122.
     DOI: 10.1063/1.5090222
   * E. Caldeweyher, J.-M. Mewes, S. Ehlert and S. Grimme, Phys. Chem. Chem. Phys.
     2020, 22, 8499-8512. DOI: 10.1039/D0CP00502A
   
   for sTDA-xTB:
   * S. Grimme and C. Bannwarth, J. Chem. Phys., 2016, 145, 054103.
     DOI: 10.1063/1.4959605
   
   in the mass-spec context:
   * V. Asgeirsson, C. Bauer and S. Grimme, Chem. Sci., 2017, 8, 4879.
     DOI: 10.1039/c7sc00601b
   * J. Koopman and S. Grimme, ACS Omega 2019, 4, 12, 15120-15133.
     DOI: 10.1021/acsomega.9b02011
   
   for metadynamics refer to:
   * S. Grimme, J. Chem. Theory Comput., 2019, 155, 2847-2862
     DOI: 10.1021/acs.jctc.9b00143
   
   for SPH calculations refer to:
   * S. Spicher and S. Grimme, J. Chem. Theory Comput., 2021, 17, 1701-1714
     DOI: 10.1021/acs.jctc.0c01306
   
   with help from (in alphabetical order)
   P. Atkinson, C. Bannwarth, F. Bohle, G. Brandenburg, E. Caldeweyher
   M. Checinski, S. Dohm, S. Ehlert, S. Ehrlich, I. Gerasimov, C. Hölzer
   A. Katbashev, J. Koopman, C. Lavigne, S. Lehtola, F. März, M. Müller,
   F. Musil, H. Neugebauer, J. Pisarek, C. Plett, P. Pracht, F. Pultar,
   J. Seibert, P. Shushkov, S. Spicher, M. Stahn, M. Steiner, T. Strunk,
   J. Stückrath, T. Rose, and J. Unsleber
   
 * started run on 2024/06/05 at 20:00:12.549     

           -------------------------------------------------
          |                Calculation Setup                |
           -------------------------------------------------

          program call               : xtb struc.xyz --opt loose --input .xc1 --gfn2
          hostname                   : n-62-12-66
          coordinate file            : struc.xyz
          omp threads                :                     1

   ID    Z sym.   atoms
    1    6 C      1, 3, 5-7, 10, 11, 14
    2    7 N      2, 4, 9, 13
    3    8 O      8, 12
    4    1 H      15-25
constraining bond 9 13 to    4.8400000 Å, actual value:    2.3869999 Å

           -------------------------------------------------
          |                 G F N 2 - x T B                 |
           -------------------------------------------------

        Reference                      10.1021/acs.jctc.8b01176
      * Hamiltonian:
        H0-scaling (s, p, d)           1.850000    2.230000    2.230000
        zeta-weighting                 0.500000
      * Dispersion:
        s8                             2.700000
        a1                             0.520000
        a2                             5.000000
        s9                             5.000000
      * Repulsion:
        kExp                           1.500000    1.000000
        rExp                           1.000000
      * Coulomb:
        alpha                          2.000000
        third order                    shell-resolved
        anisotropic                    true
        a3                             3.000000
        a5                             4.000000
        cn-shift                       1.200000
        cn-exp                         4.000000
        max-rad                        5.000000


          ...................................................
          :                      SETUP                      :
          :.................................................:
          :  # basis functions                  67          :
          :  # atomic orbitals                  67          :
          :  # shells                           39          :
          :  # electrons                        74          :
          :  max. iterations                   250          :
          :  Hamiltonian                  GFN2-xTB          :
          :  restarted?                      false          :
          :  GBSA solvation                  false          :
          :  PC potential                    false          :
          :  electronic temp.         5000.0000000     K    :
          :  accuracy                    1.0000000          :
          :  -> integral cutoff          0.2500000E+02      :
          :  -> integral neglect         0.1000000E-07      :
          :  -> SCF convergence          0.1000000E-05 Eh   :
          :  -> wf. convergence          0.1000000E-03 e    :
          :  Broyden damping             0.4000000          :
          ...................................................

 iter      E             dE          RMSdq      gap      omega  full diag
   1    -42.5894031 -0.425894E+02  0.445E+00    3.52       0.0  T
   2    -42.7683054 -0.178902E+00  0.251E+00    3.36       1.0  T
   3    -42.7759211 -0.761567E-02  0.147E+00    3.35       1.0  T
   4    -42.7728404  0.308066E-02  0.553E-01    3.33       1.0  T
   5    -42.7789548 -0.611444E-02  0.112E-01    3.35       1.0  T
   6    -42.7790473 -0.924914E-04  0.614E-02    3.33       1.0  T
   7    -42.7790721 -0.247928E-04  0.258E-02    3.34       1.0  T
   8    -42.7790772 -0.508996E-05  0.938E-03    3.34       2.1  T
   9    -42.7790779 -0.669422E-06  0.448E-03    3.34       4.5  T
  10    -42.7790780 -0.821510E-07  0.115E-03    3.34      17.4  T
  11    -42.7790780 -0.322663E-08  0.553E-04    3.34      36.2  T
  12    -42.7790780 -0.287051E-08  0.180E-04    3.34     111.1  T

   *** convergence criteria satisfied after 12 iterations ***

         #    Occupation            Energy/Eh            Energy/eV
      -------------------------------------------------------------
         1        2.0000           -0.9185990             -24.9964
       ...           ...                  ...                  ...
        31        1.9996           -0.6230278             -16.9534
        32        1.9995           -0.6194601             -16.8564
        33        1.9979           -0.5974976             -16.2587
        34        1.9932           -0.5789629             -15.7544
        35        1.9817           -0.5631863             -15.3251
        36        1.9779           -0.5602245             -15.2445
        37        1.9748           -0.5581234             -15.1873 (HOMO)
        38        0.0652           -0.4353579             -11.8467 (LUMO)
        39        0.0099           -0.4050467             -11.0219
        40        0.0013           -0.3732218             -10.1559
        41        0.0000           -0.2886859              -7.8555
        42                         -0.2065804              -5.6213
       ...                                ...                  ...
        67                          0.5625656              15.3082
      -------------------------------------------------------------
                  HL-Gap            0.1227656 Eh            3.3406 eV
             Fermi-level           -0.4890455 Eh          -13.3076 eV

 SCC (total)                   0 d,  0 h,  0 min,  0.034 sec
 SCC setup                      ...        0 min,  0.000 sec (  0.826%)
 Dispersion                     ...        0 min,  0.000 sec (  0.774%)
 classical contributions        ...        0 min,  0.000 sec (  0.242%)
 integral evaluation            ...        0 min,  0.005 sec ( 15.154%)
 iterations                     ...        0 min,  0.015 sec ( 45.501%)
 molecular gradient             ...        0 min,  0.012 sec ( 37.076%)
 printout                       ...        0 min,  0.000 sec (  0.406%)

         :::::::::::::::::::::::::::::::::::::::::::::::::::::
         ::                     SUMMARY                     ::
         :::::::::::::::::::::::::::::::::::::::::::::::::::::
         :: total energy             -31.503937809593 Eh    ::
         :: gradient norm              6.555711623477 Eh/a0 ::
         :: HOMO-LUMO gap              3.340621582928 eV    ::
         ::.................................................::
         :: SCC energy               -42.779077977399 Eh    ::
         :: -> isotropic ES            0.141123876439 Eh    ::
         :: -> anisotropic ES         -0.005230418907 Eh    ::
         :: -> anisotropic XC          0.011966818540 Eh    ::
         :: -> dispersion             -0.022657731803 Eh    ::
         :: repulsion energy           0.531105277918 Eh    ::
         :: add. restraining          10.743920730878 Eh    ::
         :: total charge               1.000000000002 e     ::
         :::::::::::::::::::::::::::::::::::::::::::::::::::::

      ----------------------------------------------------------- 
     |                   =====================                   |
     |                        A N C O P T                        |
     |                   =====================                   |
     |               Approximate Normal Coordinate               |
     |                Rational Function Optimizer                |
      ----------------------------------------------------------- 

          ...................................................
          :                      SETUP                      :
          :.................................................:
          :   optimization level             loose          :
          :   max. optcycles                   200          :
          :   ANC micro-cycles                  20          :
          :   degrees of freedom                69          :
          :.................................................:
          :   RF solver                   davidson          :
          :   write xtbopt.log                true          :
          :   linear?                        false          :
          :   energy convergence         0.5000000E-04 Eh   :
          :   grad. convergence          0.4000000E-02 Eh/α :
          :   maxmium RF displ.          1.0000000          :
          :   Hlow (freq-cutoff)         0.1000000E-01      :
          :   Hmax (freq-cutoff)         5.0000000          :
          :   S6 in model hess.         20.0000000          :
          ...................................................

generating ANC from model Hessian ...
Using Lindh-Hessian (1995)
 Shifting diagonal of input Hessian by    1.8117349852848583     
 Lowest  eigenvalues of input Hessian
    0.010000    0.750446    0.000000    0.000000    0.000000    0.000000
    0.000000    0.000000    1.814564    1.815939    1.817341    1.821189
    1.821677    1.823358    1.823725    1.826099    1.830829    1.836549
 Highest eigenvalues
    3.955700    4.021575    4.064971    4.213527    4.331032    5.125211


........................................................................
.............................. CYCLE    1 ..............................
........................................................................

 iter      E             dE          RMSdq      gap      omega  full diag
   1    -42.7790780 -0.427791E+02  0.626E-05    3.34       0.0  T
   2    -42.7790780 -0.124416E-10  0.329E-05    3.34     607.4  T
   3    -42.7790780  0.127898E-12  0.193E-05    3.34    1034.2  T
     SCC iter.                  ...        0 min,  0.004 sec
     gradient                   ...        0 min,  0.011 sec
 * total energy  :   -31.5039378 Eh     change       -0.6650680E-10 Eh
   gradient norm :     6.5557119 Eh/α   predicted     0.0000000E+00 (-100.00%)
   displ. norm   :     0.6994901 α      lambda       -0.4571773E+01
   maximum displ.:     0.6566589 α      in ANC's #69, #68, #48, ...

........................................................................
.............................. CYCLE    2 ..............................
........................................................................

 iter      E             dE          RMSdq      gap      omega  full diag
   1    -42.6690017 -0.426690E+02  0.118E+00    2.64       0.0  T
   2    -42.6800033 -0.110016E-01  0.787E-01    3.05       1.0  T
   3    -42.6859458 -0.594247E-02  0.356E-01    3.00       1.0  T
   4    -42.6859331  0.126709E-04  0.158E-01    2.96       1.0  T
   5    -42.6863400 -0.406938E-03  0.390E-02    3.01       1.0  T
   6    -42.6863461 -0.607275E-05  0.237E-02    3.00       1.0  T
   7    -42.6863486 -0.246480E-05  0.771E-03    3.00       2.6  T
   8    -42.6863495 -0.899102E-06  0.313E-03    3.00       6.4  T
   9    -42.6863496 -0.985157E-07  0.157E-03    3.00      12.8  T
  10    -42.6863496 -0.607339E-08  0.765E-04    3.00      26.1  T
  11    -42.6863496 -0.709144E-08  0.203E-04    3.00      98.3  T
     SCC iter.                  ...        0 min,  0.009 sec
     gradient                   ...        0 min,  0.008 sec
 * total energy  :   -35.4563169 Eh     change       -0.3952379E+01 Eh
   gradient norm :     4.7681825 Eh/α   predicted    -0.3405949E+01 ( -13.83%)
   displ. norm   :     0.7738319 α      lambda       -0.3677263E+01
   maximum displ.:     0.7171188 α      in ANC's #69, #50, #60, ...

........................................................................
.............................. CYCLE    3 ..............................
........................................................................

 iter      E             dE          RMSdq      gap      omega  full diag
   1    -42.3725489 -0.423725E+02  0.189E+00    1.99       0.0  T
   2    -42.3416611  0.308879E-01  0.205E+00    2.18       1.0  T
   3    -42.4648108 -0.123150E+00  0.656E-01    2.13       1.0  T
   4    -42.4628678  0.194296E-02  0.324E-01    2.09       1.0  T
   5    -42.4649173 -0.204944E-02  0.127E-01    2.09       1.0  T
   6    -42.4653922 -0.474951E-03  0.371E-02    2.12       1.0  T
   7    -42.4653974 -0.520528E-05  0.200E-02    2.12       1.0  T
   8    -42.4653984 -0.100907E-05  0.101E-02    2.11       2.0  T
   9    -42.4654006 -0.215876E-05  0.469E-03    2.12       4.3  T
  10    -42.4654009 -0.355234E-06  0.254E-03    2.11       7.9  T
  11    -42.4654011 -0.148867E-06  0.819E-04    2.12      24.4  T
  12    -42.4654011 -0.598813E-08  0.371E-04    2.12      53.9  T
     SCC iter.                  ...        0 min,  0.010 sec
     gradient                   ...        0 min,  0.008 sec
 * total energy  :   -38.4044006 Eh     change       -0.2948084E+01 Eh
   gradient norm :     2.9489570 Eh/α   predicted    -0.2939633E+01 (  -0.29%)
   displ. norm   :     0.7457719 α      lambda       -0.2175567E+01
   maximum displ.:     0.5875310 α      in ANC's #69, #50, #60, ...

........................................................................
.............................. CYCLE    4 ..............................
........................................................................

 iter      E             dE          RMSdq      gap      omega  full diag
   1    -42.2396069 -0.422396E+02  0.180E+00    1.80       0.0  T
   2    -42.1046723  0.134935E+00  0.216E+00    0.67       1.0  T
   3    -42.2587228 -0.154050E+00  0.114E+00    1.73       1.0  T
   4    -42.2815660 -0.228432E-01  0.593E-01    1.26       1.0  T
   5    -42.2919140 -0.103480E-01  0.126E-01    1.31       1.0  T
   6    -42.2920836 -0.169592E-03  0.449E-02    1.30       1.0  T
   7    -42.2920800  0.353794E-05  0.314E-02    1.31       1.0  T
   8    -42.2921000 -0.199351E-04  0.105E-02    1.30       1.9  T
   9    -42.2921006 -0.648716E-06  0.598E-03    1.30       3.3  T
  10    -42.2921012 -0.556766E-06  0.230E-03    1.30       8.7  T
  11    -42.2921012 -0.842264E-07  0.928E-04    1.30      21.6  T
  12    -42.2921013 -0.124997E-07  0.448E-04    1.30      44.7  T
     SCC iter.                  ...        0 min,  0.010 sec
     gradient                   ...        0 min,  0.008 sec
 * total energy  :   -40.2049734 Eh     change       -0.1800573E+01 Eh
   gradient norm :     1.9445866 Eh/α   predicted    -0.1692838E+01 (  -5.98%)
   displ. norm   :     0.7398396 α      lambda       -0.1431347E+01
   maximum displ.:     0.5343404 α      in ANC's #69, #60, #50, ...

........................................................................
.............................. CYCLE    5 ..............................
........................................................................

 iter      E             dE          RMSdq      gap      omega  full diag
   1    -42.1741815 -0.421742E+02  0.146E+00    0.80       0.0  T
   2    -42.1692301  0.495138E-02  0.109E+00    0.79       1.0  T
   3    -42.1760368 -0.680678E-02  0.761E-01    1.09       1.0  T
   4    -42.1669292  0.910767E-02  0.871E-01    0.45       1.0  T
   5    -42.1958726 -0.289434E-01  0.205E-01    0.94       1.0  T
   6    -42.1971364 -0.126383E-02  0.590E-02    0.84       1.0  T
   7    -42.1971937 -0.572804E-04  0.276E-02    0.85       1.0  T
   8    -42.1972025 -0.878047E-05  0.140E-02    0.85       1.4  T
   9    -42.1972050 -0.255159E-05  0.483E-03    0.85       4.1  T
  10    -42.1972054 -0.357842E-06  0.182E-03    0.85      11.0  T
  11    -42.1972054 -0.323418E-07  0.840E-04    0.85      23.8  T
  12    -42.1972054  0.153245E-08  0.341E-04    0.85      58.6  T
     SCC iter.                  ...        0 min,  0.010 sec
     gradient                   ...        0 min,  0.008 sec
 * total energy  :   -41.2803400 Eh     change       -0.1075367E+01 Eh
   gradient norm :     0.9585289 Eh/α   predicted    -0.1107406E+01 (   2.98%)
   displ. norm   :     0.5320140 α      lambda       -0.5055276E+00
   maximum displ.:     0.3792166 α      in ANC's #69, #60, #41, ...

........................................................................
.............................. CYCLE    6 ..............................
........................................................................

 iter      E             dE          RMSdq      gap      omega  full diag
   1    -42.1326276 -0.421326E+02  0.113E+00    0.35       0.0  T
   2    -42.1078409  0.247868E-01  0.116E+00    1.01       1.0  T
   3    -42.1335374 -0.256965E-01  0.771E-01    0.23       1.0  T
   4    -42.1430657 -0.952836E-02  0.469E-01    0.72       1.0  T
   5    -42.1511785 -0.811278E-02  0.209E-01    0.51       1.0  T
   6    -42.1526799 -0.150142E-02  0.559E-02    0.56       1.0  T
   7    -42.1527092 -0.292819E-04  0.273E-02    0.56       1.0  T
   8    -42.1527189 -0.967204E-05  0.136E-02    0.56       1.5  T
   9    -42.1527245 -0.562262E-05  0.476E-03    0.56       4.2  T
  10    -42.1527249 -0.407733E-06  0.125E-03    0.56      16.0  T
  11    -42.1527249 -0.145421E-07  0.599E-04    0.56      33.4  T
  12    -42.1527249 -0.266891E-08  0.267E-04    0.56      74.8  T
     SCC iter.                  ...        0 min,  0.010 sec
     gradient                   ...        0 min,  0.008 sec
 * total energy  :   -41.5875544 Eh     change       -0.3072143E+00 Eh
   gradient norm :     0.3195271 Eh/α   predicted    -0.3243061E+00 (   5.56%)
   displ. norm   :     0.2105326 α      lambda       -0.6120769E-01
   maximum displ.:     0.0786398 α      in ANC's #69, #8, #41, ...

........................................................................
.............................. CYCLE    7 ..............................
........................................................................

 iter      E             dE          RMSdq      gap      omega  full diag
   1    -42.1572971 -0.421573E+02  0.309E-01    0.45       0.0  T
   2    -42.1566567  0.640371E-03  0.264E-01    0.59       1.0  T
   3    -42.1565069  0.149803E-03  0.246E-01    0.38       1.0  T
   4    -42.1578792 -0.137225E-02  0.155E-01    0.55       1.0  T
   5    -42.1584838 -0.604597E-03  0.692E-02    0.48       1.0  T
   6    -42.1586423 -0.158549E-03  0.258E-02    0.51       1.0  T
   7    -42.1586658 -0.234443E-04  0.102E-02    0.50       2.0  T
   8    -42.1586673 -0.155505E-05  0.417E-03    0.50       4.8  T
   9    -42.1586675 -0.227997E-06  0.116E-03    0.50      17.3  T
  10    -42.1586676 -0.524133E-08  0.699E-04    0.50      28.6  T
  11    -42.1586676 -0.521745E-08  0.277E-04    0.50      72.3  T
     SCC iter.                  ...        0 min,  0.009 sec
     gradient                   ...        0 min,  0.008 sec
 * total energy  :   -41.6343597 Eh     change       -0.4680534E-01 Eh
   gradient norm :     0.2801181 Eh/α   predicted    -0.3196987E-01 ( -31.70%)
   displ. norm   :     0.3462657 α      lambda       -0.7603112E-01
   maximum displ.:     0.1158066 α      in ANC's #16, #8, #17, ...

........................................................................
.............................. CYCLE    8 ..............................
........................................................................

 iter      E             dE          RMSdq      gap      omega  full diag
   1    -42.1830068 -0.421830E+02  0.465E-01    0.46       0.0  T
   2    -42.1833340 -0.327211E-03  0.349E-01    0.42       1.0  T
   3    -42.1846370 -0.130298E-02  0.230E-01    0.51       1.0  T
   4    -42.1834110  0.122597E-02  0.215E-01    0.35       1.0  T
   5    -42.1845958 -0.118484E-02  0.136E-01    0.52       1.0  T
   6    -42.1853619 -0.766044E-03  0.321E-02    0.46       1.0  T
   7    -42.1853715 -0.961256E-05  0.203E-02    0.46       1.0  T
   8    -42.1853819 -0.103947E-04  0.395E-03    0.46       5.1  T
   9    -42.1853820 -0.153935E-06  0.192E-03    0.46      10.4  T
  10    -42.1853821 -0.581295E-07  0.829E-04    0.46      24.1  T
  11    -42.1853821 -0.104621E-07  0.327E-04    0.46      61.1  T
     SCC iter.                  ...        0 min,  0.009 sec
     gradient                   ...        0 min,  0.008 sec
 * total energy  :   -41.6925489 Eh     change       -0.5818921E-01 Eh
   gradient norm :     0.2654766 Eh/α   predicted    -0.4257569E-01 ( -26.83%)
   displ. norm   :     0.4105675 α      lambda       -0.6980052E-01
   maximum displ.:     0.1457320 α      in ANC's #16, #8, #17, ...

........................................................................
.............................. CYCLE    9 ..............................
........................................................................

 iter      E             dE          RMSdq      gap      omega  full diag
   1    -42.2138462 -0.422138E+02  0.517E-01    0.43       0.0  T
   2    -42.2125441  0.130211E-02  0.424E-01    0.38       1.0  T
   3    -42.2152560 -0.271191E-02  0.275E-01    0.48       1.0  T
   4    -42.2146410  0.614971E-03  0.212E-01    0.32       1.0  T
   5    -42.2156260 -0.984926E-03  0.155E-01    0.50       1.0  T
   6    -42.2165240 -0.898032E-03  0.311E-02    0.44       1.0  T
   7    -42.2165317 -0.772647E-05  0.206E-02    0.44       1.0  T
   8    -42.2165423 -0.105680E-04  0.418E-03    0.43       4.8  T
   9    -42.2165426 -0.275778E-06  0.219E-03    0.43       9.1  T
  10    -42.2165426 -0.387624E-07  0.103E-03    0.43      19.5  T
  11    -42.2165426 -0.254927E-07  0.248E-04    0.43      80.5  T
  12    -42.2165426 -0.215017E-09  0.110E-04    0.43     182.4  T
     SCC iter.                  ...        0 min,  0.010 sec
     gradient                   ...        0 min,  0.008 sec
 * total energy  :   -41.7433630 Eh     change       -0.5081409E-01 Eh
   gradient norm :     0.2097136 Eh/α   predicted    -0.4078327E-01 ( -19.74%)
   displ. norm   :     0.3375613 α      lambda       -0.3908865E-01
   maximum displ.:     0.1233704 α      in ANC's #16, #17, #8, ...

........................................................................
.............................. CYCLE   10 ..............................
........................................................................

 iter      E             dE          RMSdq      gap      omega  full diag
   1    -42.2343423 -0.422343E+02  0.393E-01    0.36       0.0  T
   2    -42.2332993  0.104305E-02  0.316E-01    0.45       1.0  T
   3    -42.2334231 -0.123828E-03  0.248E-01    0.29       1.0  T
   4    -42.2329472  0.475931E-03  0.298E-01    0.52       1.0  T
   5    -42.2356094 -0.266228E-02  0.541E-02    0.39       1.0  T
   6    -42.2356797 -0.702556E-04  0.246E-02    0.40       1.0  T
   7    -42.2356920 -0.123167E-04  0.111E-02    0.39       1.8  T
   8    -42.2356940 -0.201777E-05  0.447E-03    0.39       4.5  T
   9    -42.2356945 -0.441737E-06  0.153E-03    0.39      13.0  T
  10    -42.2356945 -0.201906E-07  0.773E-04    0.39      25.9  T
  11    -42.2356945 -0.151011E-07  0.223E-04    0.39      89.6  T
     SCC iter.                  ...        0 min,  0.009 sec
     gradient                   ...        0 min,  0.008 sec
 * total energy  :   -41.7704958 Eh     change       -0.2713279E-01 Eh
   gradient norm :     0.1812579 Eh/α   predicted    -0.2177138E-01 ( -19.76%)
   displ. norm   :     0.2500503 α      lambda       -0.2184734E-01
   maximum displ.:     0.0915085 α      in ANC's #16, #17, #36, ...

........................................................................
.............................. CYCLE   11 ..............................
........................................................................

 iter      E             dE          RMSdq      gap      omega  full diag
   1    -42.2474139 -0.422474E+02  0.281E-01    0.34       0.0  T
   2    -42.2465783  0.835587E-03  0.257E-01    0.44       1.0  T
   3    -42.2462339  0.344377E-03  0.233E-01    0.26       1.0  T
   4    -42.2474195 -0.118553E-02  0.145E-01    0.42       1.0  T
   5    -42.2479443 -0.524880E-03  0.448E-02    0.37       1.0  T
   6    -42.2480093 -0.649361E-04  0.114E-02    0.37       1.8  T
   7    -42.2480107 -0.143948E-05  0.684E-03    0.37       2.9  T
   8    -42.2480117 -0.943874E-06  0.221E-03    0.36       9.1  T
   9    -42.2480117 -0.602613E-07  0.690E-04    0.36      29.0  T
  10    -42.2480117 -0.389269E-08  0.404E-04    0.36      49.5  T
     SCC iter.                  ...        0 min,  0.008 sec
     gradient                   ...        0 min,  0.008 sec
 * total energy  :   -41.7872835 Eh     change       -0.1678773E-01 Eh
   gradient norm :     0.1800876 Eh/α   predicted    -0.1160683E-01 ( -30.86%)
   displ. norm   :     0.2975775 α      lambda       -0.2680903E-01
   maximum displ.:     0.1075018 α      in ANC's #16, #17, #36, ...

........................................................................
.............................. CYCLE   12 ..............................
........................................................................

 iter      E             dE          RMSdq      gap      omega  full diag
   1    -42.2633152 -0.422633E+02  0.354E-01    0.39       0.0  T
   2    -42.2639914 -0.676275E-03  0.224E-01    0.36       1.0  T
   3    -42.2642293 -0.237914E-03  0.129E-01    0.39       1.0  T
   4    -42.2638024  0.426957E-03  0.129E-01    0.31       1.0  T
   5    -42.2642648 -0.462453E-03  0.592E-02    0.39       1.0  T
   6    -42.2643710 -0.106119E-03  0.148E-02    0.36       1.4  T
   7    -42.2643773 -0.631766E-05  0.799E-03    0.37       2.5  T
   8    -42.2643785 -0.124955E-05  0.331E-03    0.37       6.0  T
   9    -42.2643788 -0.300564E-06  0.826E-04    0.37      24.2  T
  10    -42.2643788 -0.416295E-08  0.420E-04    0.37      47.7  T
     SCC iter.                  ...        0 min,  0.008 sec
     gradient                   ...        0 min,  0.008 sec
 * total energy  :   -41.8071192 Eh     change       -0.1983571E-01 Eh
   gradient norm :     0.1592930 Eh/α   predicted    -0.1459153E-01 ( -26.44%)
   displ. norm   :     0.2739257 α      lambda       -0.2191120E-01
   maximum displ.:     0.0911816 α      in ANC's #16, #17, #12, ...

........................................................................
.............................. CYCLE   13 ..............................
........................................................................

 iter      E             dE          RMSdq      gap      omega  full diag
   1    -42.2793518 -0.422794E+02  0.415E-01    0.53       0.0  T
   2    -42.2704200  0.893173E-02  0.547E-01    0.18       1.0  T
   3    -42.2772605 -0.684045E-02  0.401E-01    0.60       1.0  T
   4    -42.2818451 -0.458463E-02  0.117E-01    0.45       1.0  T
   5    -42.2819634 -0.118267E-03  0.457E-02    0.42       1.0  T
   6    -42.2820348 -0.714269E-04  0.213E-02    0.42       1.0  T
   7    -42.2820467 -0.119401E-04  0.609E-03    0.42       3.3  T
   8    -42.2820469 -0.111521E-06  0.361E-03    0.42       5.5  T
   9    -42.2820472 -0.330804E-06  0.826E-04    0.43      24.2  T
  10    -42.2820472 -0.684592E-08  0.338E-04    0.43      59.2  T
     SCC iter.                  ...        0 min,  0.008 sec
     gradient                   ...        0 min,  0.008 sec
 * total energy  :   -41.8223263 Eh     change       -0.1520708E-01 Eh
   gradient norm :     0.1228092 Eh/α   predicted    -0.1177771E-01 ( -22.55%)
   displ. norm   :     0.1898203 α      lambda       -0.1208520E-01
   maximum displ.:     0.0711392 α      in ANC's #12, #1, #41, ...

........................................................................
.............................. CYCLE   14 ..............................
........................................................................

 iter      E             dE          RMSdq      gap      omega  full diag
   1    -42.2968997 -0.422969E+02  0.369E-01    0.61       0.0  T
   2    -42.2731278  0.237719E-01  0.832E-01    0.12       1.0  T
   3    -42.2990168 -0.258889E-01  0.201E-01    0.56       1.0  T
   4    -42.2999159 -0.899100E-03  0.780E-02    0.49       1.0  T
   5    -42.2999314 -0.155378E-04  0.487E-02    0.48       1.0  T
   6    -42.3000072 -0.757899E-04  0.137E-02    0.48       1.5  T
   7    -42.3000109 -0.369140E-05  0.640E-03    0.48       3.1  T
   8    -42.3000114 -0.573915E-06  0.301E-03    0.48       6.6  T
   9    -42.3000117 -0.215983E-06  0.804E-04    0.48      24.9  T
  10    -42.3000117 -0.787753E-08  0.341E-04    0.48      58.6  T
     SCC iter.                  ...        0 min,  0.008 sec
     gradient                   ...        0 min,  0.008 sec
 * total energy  :   -41.8307978 Eh     change       -0.8471464E-02 Eh
   gradient norm :     0.1089003 Eh/α   predicted    -0.6260361E-02 ( -26.10%)
   displ. norm   :     0.1484259 α      lambda       -0.8675434E-02
   maximum displ.:     0.0649799 α      in ANC's #12, #41, #1, ...

........................................................................
.............................. CYCLE   15 ..............................
........................................................................

 iter      E             dE          RMSdq      gap      omega  full diag
   1    -42.3172865 -0.423173E+02  0.250E-01    0.58       0.0  T
   2    -42.3076968  0.958969E-02  0.537E-01    0.28       1.0  T
   3    -42.3180083 -0.103115E-01  0.139E-01    0.56       1.0  T
   4    -42.3183570 -0.348695E-03  0.651E-02    0.50       1.0  T
   5    -42.3184019 -0.449025E-04  0.379E-02    0.51       1.0  T
   6    -42.3184458 -0.439160E-04  0.958E-03    0.51       2.1  T
   7    -42.3184468 -0.103036E-05  0.596E-03    0.51       3.4  T
   8    -42.3184475 -0.736034E-06  0.164E-03    0.51      12.2  T
   9    -42.3184476 -0.572089E-07  0.420E-04    0.51      47.7  T
  10    -42.3184476 -0.147310E-09  0.213E-04    0.51      94.0  T
     SCC iter.                  ...        0 min,  0.008 sec
     gradient                   ...        0 min,  0.008 sec
 * total energy  :   -41.8370850 Eh     change       -0.6287247E-02 Eh
   gradient norm :     0.1102287 Eh/α   predicted    -0.4433324E-02 ( -29.49%)
   displ. norm   :     0.1940675 α      lambda       -0.8944912E-02
   maximum displ.:     0.0986719 α      in ANC's #1, #12, #41, ...

........................................................................
.............................. CYCLE   16 ..............................
........................................................................

 iter      E             dE          RMSdq      gap      omega  full diag
   1    -42.3407412 -0.423407E+02  0.224E-01    0.50       0.0  T
   2    -42.3408328 -0.915855E-04  0.139E-01    0.52       1.0  T
   3    -42.3406571  0.175636E-03  0.111E-01    0.48       1.0  T
   4    -42.3406487  0.848343E-05  0.951E-02    0.55       1.0  T
   5    -42.3408286 -0.179939E-03  0.574E-02    0.49       1.0  T
   6    -42.3409494 -0.120842E-03  0.898E-03    0.51       2.2  T
   7    -42.3409507 -0.128350E-05  0.508E-03    0.51       3.9  T
   8    -42.3409511 -0.400897E-06  0.128E-03    0.51      15.6  T
   9    -42.3409512 -0.374600E-07  0.378E-04    0.51      53.0  T
  10    -42.3409512 -0.190994E-10  0.211E-04    0.51      94.8  T
     SCC iter.                  ...        0 min,  0.008 sec
     gradient                   ...        0 min,  0.008 sec
 * total energy  :   -41.8435355 Eh     change       -0.6450520E-02 Eh
   gradient norm :     0.1205577 Eh/α   predicted    -0.4640991E-02 ( -28.05%)
   displ. norm   :     0.2930275 α      lambda       -0.1113529E-01
   maximum displ.:     0.1866228 α      in ANC's #1, #12, #41, ...

........................................................................
.............................. CYCLE   17 ..............................
........................................................................

 iter      E             dE          RMSdq      gap      omega  full diag
   1    -42.3620760 -0.423621E+02  0.373E-01    0.38       0.0  T
   2    -42.3433790  0.186970E-01  0.765E-01    0.84       1.0  T
   3    -42.3638807 -0.205017E-01  0.183E-01    0.45       1.0  T
   4    -42.3641044 -0.223635E-03  0.726E-02    0.47       1.0  T
   5    -42.3642275 -0.123080E-03  0.243E-02    0.49       1.0  T
   6    -42.3642373 -0.982225E-05  0.134E-02    0.49       1.5  T
   7    -42.3642415 -0.425293E-05  0.576E-03    0.49       3.5  T
   8    -42.3642421 -0.544605E-06  0.156E-03    0.49      12.9  T
   9    -42.3642421 -0.468417E-07  0.507E-04    0.49      39.4  T
  10    -42.3642421  0.180975E-10  0.274E-04    0.49      73.0  T
     SCC iter.                  ...        0 min,  0.008 sec
     gradient                   ...        0 min,  0.008 sec
 * total energy  :   -41.8507807 Eh     change       -0.7245132E-02 Eh
   gradient norm :     0.1312782 Eh/α   predicted    -0.6045842E-02 ( -16.55%)
   displ. norm   :     0.3219067 α      lambda       -0.1202202E-01
   maximum displ.:     0.2177334 α      in ANC's #1, #12, #36, ...

........................................................................
.............................. CYCLE   18 ..............................
........................................................................

 iter      E             dE          RMSdq      gap      omega  full diag
   1    -42.3762137 -0.423762E+02  0.453E-01    0.32       0.0  T
   2    -42.3436663  0.325474E-01  0.100E+00    0.90       1.0  T
   3    -42.3793639 -0.356976E-01  0.208E-01    0.40       1.0  T
   4    -42.3795302 -0.166353E-03  0.114E-01    0.45       1.0  T
   5    -42.3798064 -0.276174E-03  0.544E-02    0.44       1.0  T
   6    -42.3798965 -0.901111E-04  0.132E-02    0.45       1.5  T
   7    -42.3798989 -0.240376E-05  0.564E-03    0.45       3.5  T
   8    -42.3798991 -0.164245E-06  0.261E-03    0.45       7.7  T
   9    -42.3798992 -0.125835E-06  0.848E-04    0.45      23.6  T
  10    -42.3798992 -0.880171E-08  0.326E-04    0.45      61.4  T
     SCC iter.                  ...        0 min,  0.008 sec
     gradient                   ...        0 min,  0.008 sec
 * total energy  :   -41.8585716 Eh     change       -0.7790909E-02 Eh
   gradient norm :     0.1183855 Eh/α   predicted    -0.6634447E-02 ( -14.84%)
   displ. norm   :     0.2356580 α      lambda       -0.1066219E-01
   maximum displ.:     0.1119852 α      in ANC's #1, #12, #36, ...

........................................................................
.............................. CYCLE   19 ..............................
........................................................................

 iter      E             dE          RMSdq      gap      omega  full diag
   1    -42.3799788 -0.423800E+02  0.346E-01    0.35       0.0  T
   2    -42.3633009  0.166779E-01  0.727E-01    0.72       1.0  T
   3    -42.3813204 -0.180195E-01  0.184E-01    0.37       1.0  T
   4    -42.3815859 -0.265519E-03  0.120E-01    0.45       1.0  T
   5    -42.3819091 -0.323235E-03  0.451E-02    0.43       1.0  T
   6    -42.3819631 -0.539314E-04  0.118E-02    0.43       1.7  T
   7    -42.3819655 -0.244902E-05  0.455E-03    0.43       4.4  T
   8    -42.3819656 -0.962108E-07  0.250E-03    0.43       8.0  T
   9    -42.3819657 -0.109306E-06  0.781E-04    0.43      25.6  T
  10    -42.3819657 -0.941404E-08  0.254E-04    0.43      78.7  T
     SCC iter.                  ...        0 min,  0.008 sec
     gradient                   ...        0 min,  0.008 sec
 * total energy  :   -41.8661821 Eh     change       -0.7610510E-02 Eh
   gradient norm :     0.1229819 Eh/α   predicted    -0.5627241E-02 ( -26.06%)
   displ. norm   :     0.2789878 α      lambda       -0.1107279E-01
   maximum displ.:     0.1554004 α      in ANC's #12, #36, #6, ...

........................................................................
.............................. CYCLE   20 ..............................
........................................................................

 iter      E             dE          RMSdq      gap      omega  full diag
   1    -42.3845759 -0.423846E+02  0.392E-01    0.35       0.0  T
   2    -42.3736180  0.109579E-01  0.609E-01    0.65       1.0  T
   3    -42.3837462 -0.101281E-01  0.302E-01    0.31       1.0  T
   4    -42.3858533 -0.210708E-02  0.120E-01    0.45       1.0  T
   5    -42.3860922 -0.238973E-03  0.574E-02    0.41       1.0  T
   6    -42.3861897 -0.974596E-04  0.157E-02    0.42       1.3  T
   7    -42.3861952 -0.548259E-05  0.422E-03    0.42       4.7  T
   8    -42.3861952 -0.556314E-07  0.211E-03    0.42       9.5  T
   9    -42.3861953 -0.514844E-07  0.847E-04    0.42      23.6  T
  10    -42.3861953 -0.974183E-08  0.333E-04    0.42      60.1  T
     SCC iter.                  ...        0 min,  0.009 sec
     gradient                   ...        0 min,  0.008 sec
 * total energy  :   -41.8753699 Eh     change       -0.9187823E-02 Eh
   gradient norm :     0.1467999 Eh/α   predicted    -0.5967477E-02 ( -35.05%)
   displ. norm   :     0.4446577 α      lambda       -0.2179206E-01
   maximum displ.:     0.2509336 α      in ANC's #12, #52, #58, ...
 * RMSD in coord.:     0.9555592 α      energy gain  -0.1037143E+02 Eh

generating ANC from model Hessian ...
Using Lindh-Hessian (1995)
 Shifting diagonal of input Hessian by    1.1948722851837512E-002
 Lowest  eigenvalues of input Hessian
    0.010000    0.000000    0.000000    0.000000    0.000000    0.000000
    0.000000    0.012162    0.012363    0.012802    0.013895    0.014111
    0.016396    0.017864    0.018924    0.020320    0.023325    0.024474
 Highest eigenvalues
    2.063157    2.107023    2.124929    2.213903    2.294869    3.242788


........................................................................
.............................. CYCLE   21 ..............................
........................................................................

 iter      E             dE          RMSdq      gap      omega  full diag
   1    -42.3831263 -0.423831E+02  0.667E-01    0.34       0.0  T
   2    -42.3705991  0.125272E-01  0.685E-01    0.67       1.0  T
   3    -42.3710586 -0.459498E-03  0.695E-01    0.18       1.0  T
   4    -42.3862274 -0.151688E-01  0.169E-01    0.45       1.0  T
   5    -42.3863324 -0.105001E-03  0.990E-02    0.39       1.0  T
   6    -42.3866278 -0.295401E-03  0.282E-02    0.42       1.0  T
   7    -42.3866473 -0.195294E-04  0.898E-03    0.42       2.2  T
   8    -42.3866480 -0.684671E-06  0.314E-03    0.42       6.4  T
   9    -42.3866481 -0.867947E-07  0.136E-03    0.42      14.8  T
  10    -42.3866481 -0.153312E-07  0.729E-04    0.42      27.4  T
  11    -42.3866481 -0.728061E-08  0.245E-04    0.42      81.5  T
     SCC iter.                  ...        0 min,  0.009 sec
     gradient                   ...        0 min,  0.008 sec
 * total energy  :   -41.8921925 Eh     change       -0.1682259E-01 Eh
   gradient norm :     0.1804546 Eh/α   predicted     0.0000000E+00 (-100.00%)
   displ. norm   :     0.5317832 α      lambda       -0.5002177E-01
   maximum displ.:     0.3433028 α      in ANC's #20, #27, #3, ...

........................................................................
.............................. CYCLE   22 ..............................
........................................................................

 iter      E             dE          RMSdq      gap      omega  full diag
   1    -42.4152580 -0.424153E+02  0.115E+00    0.52       0.0  T
   2    -42.4060942  0.916379E-02  0.832E-01    0.21       1.0  T
   3    -42.3691717  0.369225E-01  0.109E+00    1.01       1.0  T
   4    -42.4176795 -0.485078E-01  0.128E-01    0.43       1.0  T
   5    -42.4179720 -0.292508E-03  0.406E-02    0.44       1.0  T
   6    -42.4179956 -0.235799E-04  0.257E-02    0.43       1.0  T
   7    -42.4179958 -0.229140E-06  0.194E-02    0.44       1.0  T
   8    -42.4180035 -0.769460E-05  0.862E-03    0.44       2.3  T
   9    -42.4180058 -0.224632E-05  0.195E-03    0.44      10.3  T
  10    -42.4180058 -0.917275E-07  0.859E-04    0.44      23.3  T
  11    -42.4180058 -0.431132E-08  0.340E-04    0.44      58.8  T
     SCC iter.                  ...        0 min,  0.009 sec
     gradient                   ...        0 min,  0.008 sec
 * total energy  :   -41.9382135 Eh     change       -0.4602096E-01 Eh
   gradient norm :     0.1243190 Eh/α   predicted    -0.3208381E-01 ( -30.28%)
   displ. norm   :     0.8817871 α      lambda       -0.8927741E-01
   maximum displ.:     0.4296505 α      in ANC's #27, #20, #44, ...

........................................................................
.............................. CYCLE   23 ..............................
........................................................................

 iter      E             dE          RMSdq      gap      omega  full diag
   1    -42.3923171 -0.423923E+02  0.185E+00    1.22       0.0  T
   2    -41.9300957  0.462221E+00  0.367E+00    0.19       1.0  T
   3    -42.4370531 -0.506957E+00  0.102E+00    0.94       1.0  T
   4    -42.4486431 -0.115900E-01  0.442E-01    0.62       1.0  T
   5    -42.4501086 -0.146543E-02  0.188E-01    0.55       1.0  T
   6    -42.4503667 -0.258087E-03  0.139E-01    0.61       1.0  T
   7    -42.4509563 -0.589637E-03  0.411E-02    0.62       1.0  T
   8    -42.4509985 -0.421902E-04  0.990E-03    0.63       2.0  T
   9    -42.4509988 -0.336512E-06  0.609E-03    0.63       3.3  T
  10    -42.4509991 -0.239269E-06  0.273E-03    0.63       7.3  T
  11    -42.4509993 -0.212032E-06  0.828E-04    0.63      24.2  T
  12    -42.4509993 -0.240874E-11  0.450E-04    0.63      44.4  T
     SCC iter.                  ...        0 min,  0.010 sec
     gradient                   ...        0 min,  0.008 sec
 * total energy  :   -41.9838500 Eh     change       -0.4563651E-01 Eh
   gradient norm :     0.2126294 Eh/α   predicted    -0.7934748E-01 (  73.87%)
   displ. norm   :     0.4464901 α      lambda       -0.4618480E-01
   maximum displ.:     0.2107446 α      in ANC's #3, #20, #22, ...

........................................................................
.............................. CYCLE   24 ..............................
........................................................................

 iter      E             dE          RMSdq      gap      omega  full diag
   1    -42.4615611 -0.424616E+02  0.891E-01    1.07       0.0  T
   2    -42.3648116  0.967495E-01  0.176E+00    0.15       1.0  T
   3    -42.4821618 -0.117350E+00  0.419E-01    0.70       1.0  T
   4    -42.4837189 -0.155705E-02  0.269E-01    0.56       1.0  T
   5    -42.4832266  0.492336E-03  0.188E-01    0.54       1.0  T
   6    -42.4843560 -0.112941E-02  0.488E-02    0.59       1.0  T
   7    -42.4844451 -0.891637E-04  0.102E-02    0.61       2.0  T
   8    -42.4844450  0.178386E-06  0.734E-03    0.61       2.7  T
   9    -42.4844458 -0.842327E-06  0.307E-03    0.61       6.5  T
  10    -42.4844461 -0.254104E-06  0.742E-04    0.61      27.0  T
  11    -42.4844461 -0.356354E-08  0.377E-04    0.61      53.1  T
     SCC iter.                  ...        0 min,  0.009 sec
     gradient                   ...        0 min,  0.008 sec
 * total energy  :   -41.9858378 Eh     change       -0.1987858E-02 Eh
   gradient norm :     0.2037801 Eh/α   predicted    -0.2769625E-01 (1293.27%)
   displ. norm   :     0.3997068 α      lambda       -0.3619738E-01
   maximum displ.:     0.3219120 α      in ANC's #20, #44, #40, ...

........................................................................
.............................. CYCLE   25 ..............................
........................................................................

 iter      E             dE          RMSdq      gap      omega  full diag
   1    -42.4486675 -0.424487E+02  0.833E-01    0.28       0.0  T
   2    -42.3574278  0.912396E-01  0.181E+00    1.82       1.0  T
   3    -42.4704377 -0.113010E+00  0.545E-01    0.87       1.0  T
   4    -42.4748846 -0.444693E-02  0.278E-01    0.72       1.0  T
   5    -42.4749119 -0.272924E-04  0.167E-01    0.58       1.0  T
   6    -42.4760662 -0.115434E-02  0.498E-02    0.64       1.0  T
   7    -42.4761484 -0.821543E-04  0.130E-02    0.65       1.5  T
   8    -42.4761500 -0.160493E-05  0.597E-03    0.65       3.4  T
   9    -42.4761506 -0.632900E-06  0.294E-03    0.65       6.8  T
  10    -42.4761509 -0.239228E-06  0.840E-04    0.66      23.8  T
  11    -42.4761509 -0.933202E-08  0.336E-04    0.66      59.5  T
     SCC iter.                  ...        0 min,  0.009 sec
     gradient                   ...        0 min,  0.008 sec
 * total energy  :   -41.9895614 Eh     change       -0.3723567E-02 Eh
   gradient norm :     0.1430646 Eh/α   predicted    -0.2099023E-01 ( 463.71%)
   displ. norm   :     0.3239420 α      lambda       -0.3097044E-01
   maximum displ.:     0.1338092 α      in ANC's #44, #27, #14, ...

........................................................................
.............................. CYCLE   26 ..............................
........................................................................

 iter      E             dE          RMSdq      gap      omega  full diag
   1    -42.4819822 -0.424820E+02  0.643E-01    1.02       0.0  T
   2    -42.3779008  0.104081E+00  0.173E+00    0.01       1.0  T
   3    -42.4948589 -0.116958E+00  0.271E-01    0.68       1.0  T
   4    -42.4937517  0.110719E-02  0.225E-01    0.63       1.0  T
   5    -42.4946582 -0.906468E-03  0.115E-01    0.65       1.0  T
   6    -42.4950033 -0.345188E-03  0.567E-02    0.69       1.0  T
   7    -42.4951199 -0.116581E-03  0.139E-02    0.71       1.4  T
   8    -42.4951244 -0.450406E-05  0.559E-03    0.71       3.6  T
   9    -42.4951245 -0.293492E-07  0.304E-03    0.71       6.6  T
  10    -42.4951247 -0.232751E-06  0.921E-04    0.71      21.7  T
  11    -42.4951247 -0.554550E-08  0.425E-04    0.71      47.1  T
     SCC iter.                  ...        0 min,  0.009 sec
     gradient                   ...        0 min,  0.008 sec
 * total energy  :   -42.0056250 Eh     change       -0.1606359E-01 Eh
   gradient norm :     0.0674065 Eh/α   predicted    -0.1711025E-01 (   6.52%)
   displ. norm   :     0.3409448 α      lambda       -0.7229661E-02
   maximum displ.:     0.2231865 α      in ANC's #3, #9, #14, ...

........................................................................
.............................. CYCLE   27 ..............................
........................................................................

 iter      E             dE          RMSdq      gap      omega  full diag
   1    -42.4912709 -0.424913E+02  0.375E-01    0.89       0.0  T
   2    -42.4712298  0.200412E-01  0.739E-01    0.36       1.0  T
   3    -42.4934570 -0.222272E-01  0.217E-01    0.81       1.0  T
   4    -42.4945728 -0.111582E-02  0.802E-02    0.75       1.0  T
   5    -42.4946349 -0.620197E-04  0.160E-02    0.72       1.2  T
   6    -42.4946398 -0.490507E-05  0.677E-03    0.73       3.0  T
   7    -42.4946400 -0.242383E-06  0.462E-03    0.73       4.3  T
   8    -42.4946405 -0.526101E-06  0.162E-03    0.73      12.4  T
   9    -42.4946406 -0.377480E-07  0.660E-04    0.73      30.3  T
  10    -42.4946406 -0.208573E-09  0.381E-04    0.73      52.5  T
     SCC iter.                  ...        0 min,  0.008 sec
     gradient                   ...        0 min,  0.008 sec
 * total energy  :   -42.0087516 Eh     change       -0.3126603E-02 Eh
   gradient norm :     0.0348950 Eh/α   predicted    -0.4035038E-02 (  29.06%)
   displ. norm   :     0.3369285 α      lambda       -0.5007081E-02
   maximum displ.:     0.2044559 α      in ANC's #10, #9, #8, ...

........................................................................
.............................. CYCLE   28 ..............................
........................................................................

 iter      E             dE          RMSdq      gap      omega  full diag
   1    -42.5054615 -0.425055E+02  0.269E-01    0.87       0.0  T
   2    -42.4923776  0.130839E-01  0.625E-01    0.45       1.0  T
   3    -42.5075709 -0.151934E-01  0.101E-01    0.75       1.0  T
   4    -42.5074727  0.982900E-04  0.706E-02    0.73       1.0  T
   5    -42.5075703 -0.976806E-04  0.222E-02    0.74       1.0  T
   6    -42.5075854 -0.150866E-04  0.662E-03    0.75       3.0  T
   7    -42.5075863 -0.882724E-06  0.374E-03    0.75       5.4  T
   8    -42.5075865 -0.180079E-06  0.183E-03    0.75      10.9  T
   9    -42.5075866 -0.889863E-07  0.811E-04    0.75      24.7  T
  10    -42.5075866 -0.196775E-07  0.204E-04    0.75      98.2  T
     SCC iter.                  ...        0 min,  0.008 sec
     gradient                   ...        0 min,  0.008 sec
 * total energy  :   -42.0118356 Eh     change       -0.3084022E-02 Eh
   gradient norm :     0.0408507 Eh/α   predicted    -0.2787743E-02 (  -9.61%)
   displ. norm   :     0.4679566 α      lambda       -0.4678445E-02
   maximum displ.:     0.2810648 α      in ANC's #3, #10, #9, ...

........................................................................
.............................. CYCLE   29 ..............................
........................................................................

 iter      E             dE          RMSdq      gap      omega  full diag
   1    -42.5056363 -0.425056E+02  0.353E-01    0.94       0.0  T
   2    -42.4949962  0.106400E-01  0.536E-01    0.56       1.0  T
   3    -42.5056115 -0.106153E-01  0.256E-01    0.95       1.0  T
   4    -42.5072224 -0.161090E-02  0.621E-02    0.85       1.0  T
   5    -42.5073210 -0.985689E-04  0.118E-02    0.84       1.7  T
   6    -42.5073221 -0.110394E-05  0.616E-03    0.83       3.2  T
   7    -42.5073222 -0.111536E-06  0.505E-03    0.83       4.0  T
   8    -42.5073229 -0.661397E-06  0.118E-03    0.83      16.9  T
   9    -42.5073229 -0.240132E-07  0.651E-04    0.83      30.7  T
  10    -42.5073229 -0.881997E-08  0.198E-04    0.83     100.8  T
     SCC iter.                  ...        0 min,  0.008 sec
     gradient                   ...        0 min,  0.008 sec
 * total energy  :   -42.0147531 Eh     change       -0.2917529E-02 Eh
   gradient norm :     0.0265645 Eh/α   predicted    -0.2851479E-02 (  -2.26%)
   displ. norm   :     0.4370499 α      lambda       -0.2193646E-02
   maximum displ.:     0.2649466 α      in ANC's #3, #10, #9, ...

........................................................................
.............................. CYCLE   30 ..............................
........................................................................

 iter      E             dE          RMSdq      gap      omega  full diag
   1    -42.5051241 -0.425051E+02  0.275E-01    1.00       0.0  T
   2    -42.4936925  0.114316E-01  0.546E-01    0.59       1.0  T
   3    -42.5062372 -0.125447E-01  0.149E-01    0.94       1.0  T
   4    -42.5067410 -0.503866E-03  0.406E-02    0.89       1.0  T
   5    -42.5067730 -0.319771E-04  0.762E-03    0.88       2.6  T
   6    -42.5067740 -0.986948E-06  0.483E-03    0.88       4.1  T
   7    -42.5067744 -0.449530E-06  0.242E-03    0.88       8.3  T
   8    -42.5067745 -0.100465E-06  0.843E-04    0.88      23.7  T
   9    -42.5067746 -0.114521E-07  0.312E-04    0.88      64.1  T
     SCC iter.                  ...        0 min,  0.008 sec
     gradient                   ...        0 min,  0.008 sec
 * total energy  :   -42.0164953 Eh     change       -0.1742203E-02 Eh
   gradient norm :     0.0237059 Eh/α   predicted    -0.1306331E-02 ( -25.02%)
   displ. norm   :     0.6113565 α      lambda       -0.2976595E-02
   maximum displ.:     0.2957415 α      in ANC's #3, #10, #9, ...

........................................................................
.............................. CYCLE   31 ..............................
........................................................................

 iter      E             dE          RMSdq      gap      omega  full diag
   1    -42.5041800 -0.425042E+02  0.307E-01    1.02       0.0  T
   2    -42.4945289  0.965113E-02  0.510E-01    0.64       1.0  T
   3    -42.5046242 -0.100953E-01  0.198E-01    1.00       1.0  T
   4    -42.5055503 -0.926193E-03  0.405E-02    0.92       1.0  T
   5    -42.5055827 -0.323560E-04  0.857E-03    0.91       2.3  T
   6    -42.5055835 -0.816294E-06  0.441E-03    0.91       4.5  T
   7    -42.5055835  0.588371E-08  0.310E-03    0.91       6.5  T
   8    -42.5055838 -0.249337E-06  0.914E-04    0.91      21.9  T
   9    -42.5055838 -0.155818E-07  0.414E-04    0.91      48.3  T
     SCC iter.                  ...        0 min,  0.008 sec
     gradient                   ...        0 min,  0.008 sec
 * total energy  :   -42.0184135 Eh     change       -0.1918173E-02 Eh
   gradient norm :     0.0242437 Eh/α   predicted    -0.2044561E-02 (   6.59%)
   displ. norm   :     0.5400979 α      lambda       -0.2677278E-02
   maximum displ.:     0.2586867 α      in ANC's #10, #11, #3, ...

........................................................................
.............................. CYCLE   32 ..............................
........................................................................

 iter      E             dE          RMSdq      gap      omega  full diag
   1    -42.5064968 -0.425065E+02  0.289E-01    1.05       0.0  T
   2    -42.4991821  0.731473E-02  0.439E-01    0.72       1.0  T
   3    -42.5062781 -0.709595E-02  0.214E-01    1.06       1.0  T
   4    -42.5075056 -0.122751E-02  0.488E-02    0.97       1.0  T
   5    -42.5075431 -0.375238E-04  0.162E-02    0.96       1.2  T
   6    -42.5075512 -0.814689E-05  0.516E-03    0.96       3.9  T
   7    -42.5075516 -0.387098E-06  0.258E-03    0.96       7.8  T
   8    -42.5075517 -0.344084E-07  0.951E-04    0.96      21.0  T
   9    -42.5075517 -0.168781E-07  0.422E-04    0.96      47.4  T
     SCC iter.                  ...        0 min,  0.008 sec
     gradient                   ...        0 min,  0.008 sec
 * total energy  :   -42.0202606 Eh     change       -0.1847041E-02 Eh
   gradient norm :     0.0254538 Eh/α   predicted    -0.1729129E-02 (  -6.38%)
   displ. norm   :     0.5786814 α      lambda       -0.2635329E-02
   maximum displ.:     0.2441232 α      in ANC's #5, #10, #11, ...

........................................................................
.............................. CYCLE   33 ..............................
........................................................................

 iter      E             dE          RMSdq      gap      omega  full diag
   1    -42.5098635 -0.425099E+02  0.259E-01    1.07       0.0  T
   2    -42.5048363  0.502717E-02  0.377E-01    0.79       1.0  T
   3    -42.5097541 -0.491781E-02  0.181E-01    1.08       1.0  T
   4    -42.5105621 -0.808019E-03  0.573E-02    0.99       1.0  T
   5    -42.5106317 -0.695813E-04  0.208E-02    0.99       1.0  T
   6    -42.5106449 -0.131559E-04  0.500E-03    0.99       4.0  T
   7    -42.5106450 -0.113815E-06  0.273E-03    0.99       7.3  T
   8    -42.5106450 -0.499040E-07  0.937E-04    0.99      21.3  T
   9    -42.5106450 -0.813201E-08  0.464E-04    0.99      43.1  T
     SCC iter.                  ...        0 min,  0.007 sec
     gradient                   ...        0 min,  0.008 sec
 * total energy  :   -42.0227120 Eh     change       -0.2451483E-02 Eh
   gradient norm :     0.0262471 Eh/α   predicted    -0.1758918E-02 ( -28.25%)
   displ. norm   :     0.7596981 α      lambda       -0.5172255E-02
   maximum displ.:     0.4110128 α      in ANC's #5, #11, #10, ...

........................................................................
.............................. CYCLE   34 ..............................
........................................................................

 iter      E             dE          RMSdq      gap      omega  full diag
   1    -42.5244673 -0.425245E+02  0.336E-01    1.07       0.0  T
   2    -42.5212415  0.322578E-02  0.345E-01    0.85       1.0  T
   3    -42.5223740 -0.113246E-02  0.285E-01    1.16       1.0  T
   4    -42.5249127 -0.253872E-02  0.672E-02    1.00       1.0  T
   5    -42.5250159 -0.103188E-03  0.197E-02    1.01       1.0  T
   6    -42.5250253 -0.937354E-05  0.775E-03    1.01       2.6  T
   7    -42.5250257 -0.409340E-06  0.381E-03    1.01       5.2  T
   8    -42.5250258 -0.126269E-06  0.130E-03    1.01      15.4  T
   9    -42.5250258 -0.740508E-08  0.688E-04    1.01      29.1  T
  10    -42.5250258 -0.327835E-08  0.267E-04    1.01      74.8  T
     SCC iter.                  ...        0 min,  0.008 sec
     gradient                   ...        0 min,  0.008 sec
 * total energy  :   -42.0261954 Eh     change       -0.3483328E-02 Eh
   gradient norm :     0.0467816 Eh/α   predicted    -0.4078692E-02 (  17.09%)
   displ. norm   :     0.5761552 α      lambda       -0.3947156E-02
   maximum displ.:     0.2958224 α      in ANC's #11, #5, #10, ...

........................................................................
.............................. CYCLE   35 ..............................
........................................................................

 iter      E             dE          RMSdq      gap      omega  full diag
   1    -42.5214908 -0.425215E+02  0.247E-01    1.09       0.0  T
   2    -42.5190689  0.242189E-02  0.285E-01    0.90       1.0  T
   3    -42.5207629 -0.169395E-02  0.204E-01    1.14       1.0  T
   4    -42.5218854 -0.112252E-02  0.611E-02    1.02       1.0  T
   5    -42.5219840 -0.985933E-04  0.255E-02    1.04       1.0  T
   6    -42.5220025 -0.184619E-04  0.589E-03    1.04       3.4  T
   7    -42.5220028 -0.323998E-06  0.298E-03    1.04       6.7  T
   8    -42.5220028 -0.677771E-07  0.108E-03    1.04      18.5  T
   9    -42.5220029 -0.834731E-08  0.507E-04    1.04      39.5  T
  10    -42.5220029 -0.158908E-08  0.186E-04    1.04     107.3  T
     SCC iter.                  ...        0 min,  0.008 sec
     gradient                   ...        0 min,  0.008 sec
 * total energy  :   -42.0287662 Eh     change       -0.2570859E-02 Eh
   gradient norm :     0.0418328 Eh/α   predicted    -0.2628723E-02 (   2.25%)
   displ. norm   :     0.4425836 α      lambda       -0.5374430E-02
   maximum displ.:     0.2166283 α      in ANC's #3, #13, #5, ...

........................................................................
.............................. CYCLE   36 ..............................
........................................................................

 iter      E             dE          RMSdq      gap      omega  full diag
   1    -42.5477094 -0.425477E+02  0.243E-01    1.00       0.0  T
   2    -42.5473389  0.370474E-03  0.222E-01    1.13       1.0  T
   3    -42.5473303  0.862182E-05  0.184E-01    0.95       1.0  T
   4    -42.5477760 -0.445723E-03  0.126E-01    1.10       1.0  T
   5    -42.5483289 -0.552897E-03  0.403E-02    1.04       1.0  T
   6    -42.5483726 -0.437523E-04  0.798E-03    1.04       2.5  T
   7    -42.5483734 -0.739659E-06  0.404E-03    1.04       5.0  T
   8    -42.5483734 -0.164478E-07  0.142E-03    1.04      14.1  T
   9    -42.5483734 -0.392177E-07  0.539E-04    1.04      37.1  T
  10    -42.5483734 -0.102401E-08  0.239E-04    1.04      83.6  T
     SCC iter.                  ...        0 min,  0.009 sec
     gradient                   ...        0 min,  0.008 sec
 * total energy  :   -42.0304983 Eh     change       -0.1732032E-02 Eh
   gradient norm :     0.0643603 Eh/α   predicted    -0.3213587E-02 (  85.54%)
   displ. norm   :     0.5844921 α      lambda       -0.9560568E-02
   maximum displ.:     0.2954794 α      in ANC's #11, #17, #5, ...

........................................................................
.............................. CYCLE   37 ..............................
........................................................................

 iter      E             dE          RMSdq      gap      omega  full diag
   1    -42.5289719 -0.425290E+02  0.404E-01    1.07       0.0  T
   2    -42.5293040 -0.332098E-03  0.297E-01    0.96       1.0  T
   3    -42.5284277  0.876298E-03  0.272E-01    1.18       1.0  T
   4    -42.5290909 -0.663260E-03  0.216E-01    0.93       1.0  T
   5    -42.5305502 -0.145928E-02  0.783E-02    1.06       1.0  T
   6    -42.5307738 -0.223531E-03  0.119E-02    1.04       1.7  T
   7    -42.5307764 -0.260713E-05  0.556E-03    1.04       3.6  T
   8    -42.5307765 -0.111457E-06  0.241E-03    1.04       8.3  T
   9    -42.5307765 -0.351728E-07  0.892E-04    1.04      22.4  T
  10    -42.5307765 -0.625955E-08  0.416E-04    1.04      48.1  T
     SCC iter.                  ...        0 min,  0.008 sec
     gradient                   ...        0 min,  0.008 sec
 * total energy  :   -42.0345143 Eh     change       -0.4016033E-02 Eh
   gradient norm :     0.0587774 Eh/α   predicted    -0.6413391E-02 (  59.69%)
   displ. norm   :     0.4626326 α      lambda       -0.5877620E-02
   maximum displ.:     0.2582963 α      in ANC's #5, #11, #4, ...

........................................................................
.............................. CYCLE   38 ..............................
........................................................................

 iter      E             dE          RMSdq      gap      omega  full diag
   1    -42.5395727 -0.425396E+02  0.282E-01    1.04       0.0  T
   2    -42.5400441 -0.471395E-03  0.171E-01    1.01       1.0  T
   3    -42.5401124 -0.683538E-04  0.114E-01    1.07       1.0  T
   4    -42.5396534  0.459010E-03  0.136E-01    0.96       1.0  T
   5    -42.5401869 -0.533497E-03  0.659E-02    1.06       1.0  T
   6    -42.5403529 -0.166015E-03  0.671E-03    1.03       3.0  T
   7    -42.5403535 -0.549836E-06  0.374E-03    1.03       5.4  T
   8    -42.5403536 -0.954837E-07  0.153E-03    1.03      13.1  T
   9    -42.5403536 -0.444835E-07  0.579E-04    1.03      34.5  T
  10    -42.5403536  0.163119E-09  0.303E-04    1.03      66.1  T
     SCC iter.                  ...        0 min,  0.008 sec
     gradient                   ...        0 min,  0.008 sec
 * total energy  :   -42.0376517 Eh     change       -0.3137446E-02 Eh
   gradient norm :     0.0384282 Eh/α   predicted    -0.3567800E-02 (  13.72%)
   displ. norm   :     0.5430075 α      lambda       -0.4853994E-02
   maximum displ.:     0.2303211 α      in ANC's #13, #5, #11, ...

........................................................................
.............................. CYCLE   39 ..............................
........................................................................

 iter      E             dE          RMSdq      gap      omega  full diag
   1    -42.5380344 -0.425380E+02  0.224E-01    1.07       0.0  T
   2    -42.5375954  0.438995E-03  0.191E-01    0.97       1.0  T
   3    -42.5370321  0.563300E-03  0.195E-01    1.14       1.0  T
   4    -42.5381773 -0.114526E-02  0.796E-02    1.00       1.0  T
   5    -42.5383431 -0.165812E-03  0.327E-02    1.05       1.0  T
   6    -42.5383756 -0.324101E-04  0.570E-03    1.04       3.5  T
   7    -42.5383759 -0.307499E-06  0.316E-03    1.04       6.3  T
   8    -42.5383760 -0.884957E-07  0.112E-03    1.04      17.8  T
   9    -42.5383760 -0.170722E-07  0.483E-04    1.04      41.4  T
  10    -42.5383760 -0.794479E-09  0.201E-04    1.04      99.3  T
     SCC iter.                  ...        0 min,  0.008 sec
     gradient                   ...        0 min,  0.008 sec
 * total energy  :   -42.0406782 Eh     change       -0.3026450E-02 Eh
   gradient norm :     0.0297223 Eh/α   predicted    -0.3142615E-02 (   3.84%)
   displ. norm   :     0.6060569 α      lambda       -0.4538162E-02
   maximum displ.:     0.2602368 α      in ANC's #11, #3, #5, ...

........................................................................
.............................. CYCLE   40 ..............................
........................................................................

 iter      E             dE          RMSdq      gap      omega  full diag
   1    -42.5395512 -0.425396E+02  0.264E-01    0.98       0.0  T
   2    -42.5371587  0.239253E-02  0.304E-01    1.18       1.0  T
   3    -42.5391121 -0.195345E-02  0.186E-01    0.95       1.0  T
   4    -42.5398294 -0.717310E-03  0.829E-02    1.06       1.0  T
   5    -42.5400361 -0.206693E-03  0.188E-02    1.03       1.1  T
   6    -42.5400480 -0.118384E-04  0.438E-03    1.03       4.6  T
   7    -42.5400481 -0.116732E-06  0.228E-03    1.03       8.8  T
   8    -42.5400481 -0.411265E-07  0.740E-04    1.03      27.0  T
   9    -42.5400481 -0.464706E-08  0.352E-04    1.03      56.9  T
     SCC iter.                  ...        0 min,  0.008 sec
     gradient                   ...        0 min,  0.008 sec
 * total energy  :   -42.0443972 Eh     change       -0.3718976E-02 Eh
   gradient norm :     0.0332275 Eh/α   predicted    -0.3102531E-02 ( -16.58%)
   displ. norm   :     0.6057065 α      lambda       -0.5812687E-02
   maximum displ.:     0.2753172 α      in ANC's #3, #13, #11, ...

........................................................................
.............................. CYCLE   41 ..............................
........................................................................

 iter      E             dE          RMSdq      gap      omega  full diag
   1    -42.5597526 -0.425598E+02  0.274E-01    1.02       0.0  T
   2    -42.5596401  0.112437E-03  0.195E-01    1.08       1.0  T
   3    -42.5573490  0.229113E-02  0.262E-01    0.90       1.0  T
   4    -42.5595281 -0.217909E-02  0.121E-01    1.09       1.0  T
   5    -42.5600181 -0.490021E-03  0.208E-02    1.04       1.0  T
   6    -42.5600299 -0.118251E-04  0.101E-02    1.03       2.0  T
   7    -42.5600323 -0.239798E-05  0.327E-03    1.03       6.1  T
   8    -42.5600324 -0.252164E-07  0.111E-03    1.03      18.1  T
   9    -42.5600324 -0.176007E-07  0.519E-04    1.03      38.6  T
  10    -42.5600324 -0.179674E-08  0.183E-04    1.03     109.3  T
     SCC iter.                  ...        0 min,  0.008 sec
     gradient                   ...        0 min,  0.008 sec
 * total energy  :   -42.0460957 Eh     change       -0.1698555E-02 Eh
   gradient norm :     0.0539730 Eh/α   predicted    -0.3972627E-02 ( 133.88%)
   displ. norm   :     0.6406840 α      lambda       -0.6970139E-02
   maximum displ.:     0.2932940 α      in ANC's #5, #11, #13, ...

........................................................................
.............................. CYCLE   42 ..............................
........................................................................

 iter      E             dE          RMSdq      gap      omega  full diag
   1    -42.5478009 -0.425478E+02  0.332E-01    0.99       0.0  T
   2    -42.5469854  0.815580E-03  0.278E-01    1.11       1.0  T
   3    -42.5454163  0.156907E-02  0.304E-01    0.88       1.0  T
   4    -42.5476610 -0.224471E-02  0.156E-01    1.09       1.0  T
   5    -42.5485127 -0.851698E-03  0.352E-02    1.01       1.0  T
   6    -42.5485474 -0.346712E-04  0.965E-03    1.02       2.1  T
   7    -42.5485480 -0.632163E-06  0.467E-03    1.02       4.3  T
   8    -42.5485481 -0.966619E-07  0.163E-03    1.02      12.3  T
   9    -42.5485481 -0.169270E-07  0.784E-04    1.02      25.5  T
  10    -42.5485481 -0.152524E-08  0.276E-04    1.02      72.5  T
     SCC iter.                  ...        0 min,  0.008 sec
     gradient                   ...        0 min,  0.008 sec
 * total energy  :   -42.0489778 Eh     change       -0.2882088E-02 Eh
   gradient norm :     0.0613598 Eh/α   predicted    -0.4915608E-02 (  70.56%)
   displ. norm   :     0.3484373 α      lambda       -0.5308085E-02
   maximum displ.:     0.1269254 α      in ANC's #2, #7, #3, ...
 * RMSD in coord.:     1.3815611 α      energy gain  -0.1736079E+00 Eh

generating ANC from model Hessian ...
Using Lindh-Hessian (1995)
 Shifting diagonal of input Hessian by    9.0944692906344791E-003
 Lowest  eigenvalues of input Hessian
    0.000000    0.000000    0.000000    0.000000    0.000000    0.000000
    0.010000    0.010686    0.012189    0.012884    0.015193    0.016116
    0.017923    0.019028    0.020011    0.022158    0.026694    0.031841
 Highest eigenvalues
    2.029763    2.094977    2.167739    2.266903    2.520460    3.001976


........................................................................
.............................. CYCLE   43 ..............................
........................................................................

 iter      E             dE          RMSdq      gap      omega  full diag
   1    -42.5474441 -0.425474E+02  0.240E-01    0.94       0.0  T
   2    -42.5433796  0.406444E-02  0.385E-01    1.23       1.0  T
   3    -42.5484928 -0.511314E-02  0.130E-01    0.98       1.0  T
   4    -42.5486801 -0.187371E-03  0.785E-02    1.04       1.0  T
   5    -42.5487369 -0.567387E-04  0.417E-02    1.01       1.0  T
   6    -42.5487928 -0.559614E-04  0.812E-03    1.01       2.5  T
   7    -42.5487940 -0.113657E-05  0.369E-03    1.02       5.4  T
   8    -42.5487940 -0.650846E-07  0.141E-03    1.02      14.2  T
   9    -42.5487940 -0.902514E-08  0.442E-04    1.02      45.3  T
  10    -42.5487940 -0.105825E-08  0.236E-04    1.02      84.6  T
     SCC iter.                  ...        0 min,  0.008 sec
     gradient                   ...        0 min,  0.008 sec
 * total energy  :   -42.0493239 Eh     change       -0.3461190E-03 Eh
   gradient norm :     0.0576299 Eh/α   predicted     0.0000000E+00 (-100.00%)
   displ. norm   :     0.2985569 α      lambda       -0.5573803E-02
   maximum displ.:     0.1823187 α      in ANC's #1, #3, #12, ...

........................................................................
.............................. CYCLE   44 ..............................
........................................................................

 iter      E             dE          RMSdq      gap      omega  full diag
   1    -42.5590647 -0.425591E+02  0.227E-01    1.07       0.0  T
   2    -42.5555018  0.356295E-02  0.335E-01    0.85       1.0  T
   3    -42.5591362 -0.363448E-02  0.141E-01    1.07       1.0  T
   4    -42.5595413 -0.405021E-03  0.365E-02    1.01       1.0  T
   5    -42.5595619 -0.206369E-04  0.126E-02    1.01       1.6  T
   6    -42.5595658 -0.391081E-05  0.459E-03    1.01       4.4  T
   7    -42.5595661 -0.320729E-06  0.219E-03    1.01       9.1  T
   8    -42.5595662 -0.318351E-07  0.597E-04    1.01      33.5  T
   9    -42.5595662 -0.511938E-08  0.248E-04    1.01      80.7  T
     SCC iter.                  ...        0 min,  0.008 sec
     gradient                   ...        0 min,  0.008 sec
 * total energy  :   -42.0531036 Eh     change       -0.3779625E-02 Eh
   gradient norm :     0.0195170 Eh/α   predicted    -0.3041894E-02 ( -19.52%)
   displ. norm   :     0.4243553 α      lambda       -0.2698063E-02
   maximum displ.:     0.2772446 α      in ANC's #1, #3, #5, ...

........................................................................
.............................. CYCLE   45 ..............................
........................................................................

 iter      E             dE          RMSdq      gap      omega  full diag
   1    -42.5661934 -0.425662E+02  0.159E-01    1.04       0.0  T
   2    -42.5652339  0.959494E-03  0.184E-01    0.92       1.0  T
   3    -42.5658652 -0.631325E-03  0.125E-01    1.07       1.0  T
   4    -42.5663301 -0.464813E-03  0.197E-02    1.01       1.0  T
   5    -42.5663367 -0.659431E-05  0.511E-03    1.01       3.9  T
   6    -42.5663369 -0.284408E-06  0.303E-03    1.01       6.6  T
   7    -42.5663371 -0.145344E-06  0.163E-03    1.01      12.3  T
   8    -42.5663371 -0.390825E-07  0.357E-04    1.01      56.0  T
   9    -42.5663371 -0.813444E-09  0.188E-04    1.01     106.4  T
     SCC iter.                  ...        0 min,  0.008 sec
     gradient                   ...        0 min,  0.008 sec
 * total energy  :   -42.0551329 Eh     change       -0.2029368E-02 Eh
   gradient norm :     0.0182032 Eh/α   predicted    -0.1591965E-02 ( -21.55%)
   displ. norm   :     0.5679842 α      lambda       -0.2389840E-02
   maximum displ.:     0.3880886 α      in ANC's #1, #3, #2, ...

........................................................................
.............................. CYCLE   46 ..............................
........................................................................

 iter      E             dE          RMSdq      gap      omega  full diag
   1    -42.5672233 -0.425672E+02  0.176E-01    1.00       0.0  T
   2    -42.5672239 -0.564300E-06  0.103E-01    0.99       1.0  T
   3    -42.5667205  0.503371E-03  0.114E-01    1.06       1.0  T
   4    -42.5672019 -0.481434E-03  0.292E-02    0.98       1.0  T
   5    -42.5672366 -0.346768E-04  0.754E-03    1.00       2.7  T
   6    -42.5672381 -0.149306E-05  0.341E-03    1.00       5.9  T
   7    -42.5672383 -0.155194E-06  0.139E-03    1.00      14.4  T
   8    -42.5672383 -0.107341E-07  0.466E-04    1.00      42.9  T
   9    -42.5672383 -0.242485E-08  0.237E-04    1.00      84.3  T
     SCC iter.                  ...        0 min,  0.008 sec
     gradient                   ...        0 min,  0.008 sec
 * total energy  :   -42.0572805 Eh     change       -0.2147610E-02 Eh
   gradient norm :     0.0279873 Eh/α   predicted    -0.1580410E-02 ( -26.41%)
   displ. norm   :     0.7132761 α      lambda       -0.3143322E-02
   maximum displ.:     0.4787093 α      in ANC's #1, #3, #2, ...

........................................................................
.............................. CYCLE   47 ..............................
........................................................................

 iter      E             dE          RMSdq      gap      omega  full diag
   1    -42.5663211 -0.425663E+02  0.198E-01    0.99       0.0  T
   2    -42.5663282 -0.709137E-05  0.115E-01    1.00       1.0  T
   3    -42.5654041  0.924049E-03  0.151E-01    0.92       1.0  T
   4    -42.5662306 -0.826443E-03  0.602E-02    1.02       1.0  T
   5    -42.5663626 -0.132007E-03  0.114E-02    0.99       1.8  T
   6    -42.5663660 -0.347277E-05  0.420E-03    0.99       4.8  T
   7    -42.5663663 -0.272461E-06  0.188E-03    0.99      10.6  T
   8    -42.5663663 -0.921958E-08  0.695E-04    0.99      28.8  T
   9    -42.5663663 -0.818506E-08  0.277E-04    0.99      72.3  T
     SCC iter.                  ...        0 min,  0.008 sec
     gradient                   ...        0 min,  0.008 sec
 * total energy  :   -42.0600892 Eh     change       -0.2808694E-02 Eh
   gradient norm :     0.0250259 Eh/α   predicted    -0.2371272E-02 ( -15.57%)
   displ. norm   :     0.7546375 α      lambda       -0.3367140E-02
   maximum displ.:     0.5164168 α      in ANC's #1, #3, #2, ...

........................................................................
.............................. CYCLE   48 ..............................
........................................................................

 iter      E             dE          RMSdq      gap      omega  full diag
   1    -42.5665467 -0.425665E+02  0.202E-01    0.97       0.0  T
   2    -42.5663385  0.208194E-03  0.139E-01    1.02       1.0  T
   3    -42.5639568  0.238176E-02  0.254E-01    0.85       1.0  T
   4    -42.5665509 -0.259419E-02  0.514E-02    1.00       1.0  T
   5    -42.5666263 -0.753820E-04  0.125E-02    0.98       1.6  T
   6    -42.5666307 -0.437746E-05  0.417E-03    0.98       4.8  T
   7    -42.5666309 -0.234167E-06  0.196E-03    0.98      10.2  T
   8    -42.5666309 -0.293961E-08  0.792E-04    0.98      25.3  T
   9    -42.5666310 -0.127980E-07  0.287E-04    0.98      69.6  T
     SCC iter.                  ...        0 min,  0.008 sec
     gradient                   ...        0 min,  0.008 sec
 * total energy  :   -42.0629647 Eh     change       -0.2875477E-02 Eh
   gradient norm :     0.0224502 Eh/α   predicted    -0.2642335E-02 (  -8.11%)
   displ. norm   :     0.6867475 α      lambda       -0.3341056E-02
   maximum displ.:     0.4656684 α      in ANC's #1, #3, #2, ...

........................................................................
.............................. CYCLE   49 ..............................
........................................................................

 iter      E             dE          RMSdq      gap      omega  full diag
   1    -42.5737607 -0.425738E+02  0.184E-01    0.96       0.0  T
   2    -42.5735586  0.202105E-03  0.134E-01    1.02       1.0  T
   3    -42.5719818  0.157675E-02  0.217E-01    0.87       1.0  T
   4    -42.5738345 -0.185264E-02  0.448E-02    0.99       1.0  T
[...]
C           -2.54131123797935        1.94675346320113       -0.90044948303467
O           -3.59272777143738        1.57509865842748       -0.59659768081633
N            0.06392625766706       -2.97386638777046        0.38396004349157
C           -1.20316095257334       -3.16540696055462        0.97346588315863
H            1.57261561107440        2.06666701488736        0.48805471263953
H            3.14144923374493        1.59573141650279       -0.19680221312844
H            1.79751344116838        1.99593513185818       -1.27106653618342
H            3.47301759786285       -0.66942665288965       -1.07772625829632
H           -1.19063218272954        2.20163226792894        1.30163008589648
H           -0.57903338218317        1.74857898023966       -1.55983379152601
H           -0.98422187506343        3.32680689476798       -0.85006382070567
H           -1.10866587353661       -3.96920096342285        1.70675849390095
H           -1.90180761299034       -3.51018628974458        0.20546448159826
H           -1.60755233629271       -2.26783580494576        1.45139315004477
H            2.32633229061503       -2.91780778476559       -0.63943699864786

 Bond Distances (Angstroems)
 ---------------------------
C1-N2=1.4420         C1-H15=1.0873        C1-H16=1.0887        C1-H17=1.0911        N2-C1=1.4420         N2-C3=1.3223         
N2-C6=1.3937         C3-N2=1.3223         C3-N4=1.3274         C3-H18=1.0736        N4-C3=1.3274         N4-C5=1.4003         
N4-H25=1.0093        C5-N4=1.4003         C5-C6=1.4706         C5-N13=1.2863        C6-N2=1.3937         C6-C5=1.4706         
C6-C7=1.4410         C7-C6=1.4410         C7-O8=1.2174         C7-N9=1.4651         O8-C7=1.2174         N9-C7=1.4651         
N9-C10=1.4559        N9-H19=1.0180        C10-N9=1.4559        C10-C11=1.4436       C10-H20=1.0961       C10-H21=1.0984       
C11-C10=1.4436       C11-O12=1.1558       O12-C11=1.1558       N13-C5=1.2863        N13-C14=1.4106       C14-N13=1.4106       
C14-H22=1.0921       C14-H23=1.0940       C14-H24=1.0943       H15-C1=1.0873        H16-C1=1.0887        H17-C1=1.0911        
H18-C3=1.0736        H19-N9=1.0180        H20-C10=1.0961       H21-C10=1.0984       H22-C14=1.0921       H23-C14=1.0940       
H24-C14=1.0943       H25-N4=1.0093        
 C  H  Rav=1.0906 sigma=0.0069  Rmin=1.0736  Rmax=1.0984     9
 C  C  Rav=1.4517 sigma=0.0134  Rmin=1.4410  Rmax=1.4706     3
 N  H  Rav=1.0136 sigma=0.0044  Rmin=1.0093  Rmax=1.0180     2
 N  C  Rav=1.3893 sigma=0.0601  Rmin=1.2863  Rmax=1.4651     9
 O  C  Rav=1.1866 sigma=0.0308  Rmin=1.1558  Rmax=1.2174     2

 selected bond angles (degree)
 --------------------
H15-C1-N2=109.99               H16-C1-N2=109.04               H16-C1-H15=109.36              H17-C1-N2=111.02               
H17-C1-H15=109.13              H17-C1-H16=108.27              C3-N2-C1=122.06                C6-N2-C1=127.95                
C6-N2-C3=109.78                N4-C3-N2=110.07                H18-C3-N2=124.64               H18-C3-N4=125.29               
C5-N4-C3=111.07                H25-N4-C3=127.41               H25-N4-C5=121.47               C6-C5-N4=103.20                
N13-C5-N4=114.69               N13-C5-C6=142.10               C5-C6-N2=105.84                C7-C6-N2=124.48                
C7-C6-C5=129.41                O8-C7-C6=123.06                N9-C7-C6=119.23                N9-C7-O8=117.68                
C10-N9-C7=117.02               H19-N9-C7=106.76               H19-N9-C10=111.38              C11-C10-N9=110.90              
H20-C10-N9=110.21              H20-C10-C11=109.17             H21-C10-N9=109.18              H21-C10-C11=109.17             
H21-C10-H20=108.17             

 selected dihedral angles (degree)
 ---------------------------------
C3-N2-C1-H15=212.70           C3-N2-C1-H16=332.61           C3-N2-C1-H17= 91.81           C6-N2-C1-H15= 26.83           
C6-N2-C1-H16=146.74           C6-N2-C1-H17=265.95           N4-C3-N2-C1=175.26            N4-C3-N2-C6=  0.18            
H18-C3-N2-C1=356.04           H18-C3-N2-C6=180.96           C5-N4-C3-N2=358.44            C5-N4-C3-H18=177.65           
H25-N4-C3-N2=181.26           H25-N4-C3-H18=  0.47          C6-C5-N4-C3=  2.17            C6-C5-N4-H25=179.54           
N13-C5-N4-C3=181.60           N13-C5-N4-H25=358.98          C5-C6-N2-C1=186.45            C5-C6-N2-C3=  1.17            
C7-C6-N2-C1=  0.88            C7-C6-N2-C3=175.60            N2-C6-C5-N4=358.04            N2-C6-C5-N13=178.87           
C7-C6-C5-N4=183.99            C7-C6-C5-N13=  4.82           O8-C7-C6-N2=199.04            O8-C7-C6-C5= 12.09            
N9-C7-C6-N2= 16.76            N9-C7-C6-C5=189.82            C10-N9-C7-C6= 77.57           C10-N9-C7-O8=255.42           
H19-N9-C7-C6=203.09           H19-N9-C7-O8= 20.94           C11-C10-N9-C7= 68.11          C11-C10-N9-H19=304.93         
H20-C10-N9-C7=307.11          H20-C10-N9-H19=183.93         H21-C10-N9-C7=188.43          H21-C10-N9-H19= 65.25         
           -------------------------------------------------
          |                Final Singlepoint                |
           -------------------------------------------------

          ...................................................
          :                      SETUP                      :
          :.................................................:
          :  # basis functions                  67          :
          :  # atomic orbitals                  67          :
          :  # shells                           39          :
          :  # electrons                        74          :
          :  max. iterations                   250          :
          :  Hamiltonian                  GFN2-xTB          :
          :  restarted?                      false          :
          :  GBSA solvation                  false          :
          :  PC potential                    false          :
          :  electronic temp.         5000.0000000     K    :
          :  accuracy                    1.0000000          :
          :  -> integral cutoff          0.2500000E+02      :
          :  -> integral neglect         0.1000000E-07      :
          :  -> SCF convergence          0.1000000E-05 Eh   :
          :  -> wf. convergence          0.1000000E-03 e    :
          :  Broyden damping             0.4000000          :
          ...................................................

 iter      E             dE          RMSdq      gap      omega  full diag
   1    -42.6218242 -0.426218E+02  0.703E-05    1.22       0.0  T
   2    -42.6218242  0.360266E-09  0.972E-05    1.22     205.7  T
   3    -42.6218242 -0.331255E-09  0.557E-05    1.22     359.2  T

   *** convergence criteria satisfied after 3 iterations ***

         #    Occupation            Energy/Eh            Energy/eV
      -------------------------------------------------------------
         1        2.0000           -0.9280958             -25.2548
       ...           ...                  ...                  ...
        31        1.9995           -0.6030825             -16.4107
        32        1.9993           -0.5979641             -16.2714
        33        1.9965           -0.5730884             -15.5945
        34        1.9960           -0.5709898             -15.5374
        35        1.9781           -0.5440819             -14.8052
        36        1.8037           -0.5078835             -13.8202
        37        1.6276           -0.4961140             -13.4999 (HOMO)
        38        0.4095           -0.4512761             -12.2798 (LUMO)
        39        0.1456           -0.4324742             -11.7682
        40        0.0423           -0.4120467             -11.2124
        41        0.0022           -0.3649539              -9.9309
        42        0.0000           -0.2983070              -8.1173
       ...           ...                  ...                  ...
        67                          0.7310805              19.8937
      -------------------------------------------------------------
                  HL-Gap            0.0448379 Eh            1.2201 eV
             Fermi-level           -0.4727600 Eh          -12.8645 eV

 SCC (total)                   0 d,  0 h,  0 min,  0.015 sec
 SCC setup                      ...        0 min,  0.000 sec (  1.066%)
 Dispersion                     ...        0 min,  0.000 sec (  0.873%)
 classical contributions        ...        0 min,  0.000 sec (  0.353%)
 integral evaluation            ...        0 min,  0.003 sec ( 21.810%)
 iterations                     ...        0 min,  0.003 sec ( 20.383%)
 molecular gradient             ...        0 min,  0.008 sec ( 54.834%)
 printout                       ...        0 min,  0.000 sec (  0.637%)

         :::::::::::::::::::::::::::::::::::::::::::::::::::::
         ::                     SUMMARY                     ::
         :::::::::::::::::::::::::::::::::::::::::::::::::::::
         :: total energy             -42.099494343506 Eh    ::
         :: gradient norm              0.001557981370 Eh/a0 ::
         :: HOMO-LUMO gap              1.220102062388 eV    ::
         ::.................................................::
         :: SCC energy               -42.621824158705 Eh    ::
         :: -> isotropic ES            0.130904795334 Eh    ::
         :: -> anisotropic ES         -0.010221476288 Eh    ::
         :: -> anisotropic XC          0.020897445833 Eh    ::
         :: -> dispersion             -0.021594463227 Eh    ::
         :: repulsion energy           0.521957893224 Eh    ::
         :: add. restraining           0.000143787710 Eh    ::
         :: total charge               1.000000000011 e     ::
         :::::::::::::::::::::::::::::::::::::::::::::::::::::

           -------------------------------------------------
          |                Property Printout                |
           -------------------------------------------------

    * Orbital Energies and Occupations

         #    Occupation            Energy/Eh            Energy/eV
      -------------------------------------------------------------
         1        2.0000           -0.9280958             -25.2548
       ...           ...                  ...                  ...
        25        2.0000           -0.6652305             -18.1018
        26        2.0000           -0.6532032             -17.7746
        27        2.0000           -0.6420816             -17.4719
        28        2.0000           -0.6406344             -17.4325
        29        1.9999           -0.6323137             -17.2061
        30        1.9999           -0.6294894             -17.1293
        31        1.9995           -0.6030825             -16.4107
        32        1.9993           -0.5979641             -16.2714
        33        1.9965           -0.5730884             -15.5945
        34        1.9960           -0.5709898             -15.5374
        35        1.9781           -0.5440819             -14.8052
        36        1.8037           -0.5078835             -13.8202
        37        1.6276           -0.4961140             -13.4999 (HOMO)
        38        0.4095           -0.4512761             -12.2798 (LUMO)
        39        0.1456           -0.4324742             -11.7682
        40        0.0423           -0.4120467             -11.2124
        41        0.0022           -0.3649539              -9.9309
        42        0.0000           -0.2983070              -8.1173
        43                         -0.1758271              -4.7845
        44                         -0.1663245              -4.5259
        45                         -0.1211396              -3.2964
        46                         -0.0726233              -1.9762
        47                         -0.0646704              -1.7598
        48                         -0.0621369              -1.6908
       ...                                ...                  ...
        67                          0.7310805              19.8937
      -------------------------------------------------------------
                  HL-Gap            0.0448379 Eh            1.2201 eV
             Fermi-level           -0.4727600 Eh          -12.8645 eV

     #   Z          covCN         q      C6AA      α(0)
     1   6 C        3.696    -0.092    22.430     6.775
     2   7 N        2.816     0.051    20.343     6.699
     3   6 C        2.968     0.068    26.475     8.440
     4   7 N        2.802    -0.071    22.609     7.062
     5   6 C        2.931     0.140    24.940     8.190
     6   6 C        3.033    -0.039    28.927     8.822
     7   6 C        2.747     0.260    22.616     7.787
     8   8 O        0.858    -0.386    21.399     6.202
     9   7 N        2.683    -0.237    26.208     7.603
    10   6 C        3.738     0.000    20.654     6.485
    11   6 C        1.842     0.226    25.872     8.217
    12   8 O        0.856    -0.070    16.076     5.376
    13   7 N        1.838    -0.194    26.031     7.561
    14   6 C        3.693    -0.045    21.571     6.646
    15   1 H        0.925     0.113     1.669     2.020
    16   1 H        0.925     0.098     1.805     2.101
    17   1 H        0.924     0.088     1.896     2.153
    18   1 H        0.926     0.109     1.708     2.044
    19   1 H        0.860     0.201     1.101     1.644
    20   1 H        0.924     0.124     1.580     1.966
    21   1 H        0.923     0.140     1.460     1.889
    22   1 H        0.924     0.097     1.810     2.104
    23   1 H        0.924     0.091     1.865     2.136
    24   1 H        0.924     0.095     1.828     2.114
    25   1 H        0.860     0.230     0.965     1.539

 Mol. C6AA /au·bohr⁶  :       6578.908078
 Mol. C8AA /au·bohr⁸  :     151355.210915
 Mol. α(0) /au        :        123.573486


Wiberg/Mayer (AO) data.
largest (>0.10) Wiberg bond orders for each atom

 ---------------------------------------------------------------------------
     #   Z sym  total        # sym  WBO       # sym  WBO       # sym  WBO
 ---------------------------------------------------------------------------
     1   6 C    3.934 --     2 N    0.989    16 H    0.972    17 H    0.963
                            15 H    0.961
     2   7 N    3.659 --     3 C    1.382     6 C    1.125     1 C    0.989
                             4 N    0.104
     3   6 C    3.882 --     2 N    1.382     4 N    1.341    18 H    0.952
     4   7 N    3.554 --     3 C    1.341     5 C    1.082    25 H    0.918
                             2 N    0.104
     5   6 C    3.936 --    13 N    1.569     6 C    1.137     4 N    1.082
     6   6 C    3.737 --     7 C    1.164     5 C    1.137     2 N    1.125
     7   6 C    3.915 --     8 O    1.679     6 C    1.164     9 N    0.981
     8   8 O    1.971 --     7 C    1.679
     9   7 N    3.151 --     7 C    0.981    10 C    0.978    19 H    0.932
    10   6 C    3.951 --    11 C    1.072     9 N    0.978    20 H    0.919
                            21 H    0.910
    11   6 C    3.346 --    12 O    2.164    10 C    1.072
    12   8 O    2.301 --    11 C    2.164
    13   7 N    2.836 --     5 C    1.569    14 C    1.067
    14   6 C    3.902 --    13 N    1.067    22 H    0.939    23 H    0.928
                            24 H    0.927
    15   1 H    0.986 --     1 C    0.961
    16   1 H    0.989 --     1 C    0.972
    17   1 H    0.989 --     1 C    0.963
    18   1 H    0.986 --     3 C    0.952
    19   1 H    0.959 --     9 N    0.932
    20   1 H    0.973 --    10 C    0.919
    21   1 H    0.968 --    10 C    0.910
    22   1 H    0.961 --    14 C    0.939
    23   1 H    0.957 --    14 C    0.928
    24   1 H    0.948 --    14 C    0.927
    25   1 H    0.946 --     4 N    0.918
 ---------------------------------------------------------------------------

Topologies differ in total number of bonds
Writing topology from bond orders to xtbtopo.mol

molecular dipole:
                 x           y           z       tot (Debye)
 q only:        1.796       0.944      -1.590
   full:        1.837       1.168      -1.706       7.031
molecular quadrupole (traceless):
                xx          xy          yy          xz          yz          zz
 q only:        3.379      -7.418      14.366      -1.330      -4.801     -17.745
  q+dip:        4.952     -10.505      12.780      -2.279      -3.246     -17.732
   full:        3.860     -10.523      12.185      -0.970      -3.355     -16.045

           -------------------------------------------------
          |                Geometry Summary                 |
           -------------------------------------------------

      molecular mass/u    :      195.1988581
   center of mass at/Å    :       -0.1558986      -0.1133497       0.0467909
  moments of inertia/u·Å² :        0.5376390E+03   0.9153608E+03   0.1297037E+04
rotational constants/cm⁻¹ :        0.3135493E-01   0.1841638E-01   0.1299704E-01

 * 21 selected distances

     #   Z          #   Z                                           value/Å
     1   6 C        2   7 N                                       1.4419870
     2   7 N        3   6 C                                       1.3223346
     3   6 C        4   7 N                                       1.3273779
     4   7 N        5   6 C                                       1.4002810
     2   7 N        6   6 C                                       1.3936964
     7   6 C        8   8 O                                       1.2174451
     9   7 N       10   6 C                                       1.4558644 (max)
    11   6 C       12   8 O                                       1.1558245
     5   6 C       13   7 N                                       1.2863345
    13   7 N       14   6 C                                       1.4105727
     1   6 C       15   1 H                                       1.0873003
     1   6 C       16   1 H                                       1.0886508
     1   6 C       17   1 H                                       1.0910862
     3   6 C       18   1 H                                       1.0735564
     9   7 N       19   1 H                                       1.0180299
    10   6 C       20   1 H                                       1.0961085
    10   6 C       21   1 H                                       1.0983697
    14   6 C       22   1 H                                       1.0921229
    14   6 C       23   1 H                                       1.0939864
    14   6 C       24   1 H                                       1.0943405
     4   7 N       25   1 H                                       1.0092532 (min)

 * 4 distinct bonds (by element types)

   Z      Z             #   av. dist./Å        max./Å        min./Å
   1 H    6 C           9     1.0906135     1.0983697     1.0735564
   1 H    7 N           2     1.0136416     1.0180299     1.0092532
   6 C    7 N           8     1.3798061     1.4558644     1.2863345
   6 C    8 O           2     1.1866348     1.2174451     1.1558245


optimized geometry written to: xtbopt.xyz


           -------------------------------------------------
          | TOTAL ENERGY              -42.099494343506 Eh   |
          | GRADIENT NORM               0.001557981370 Eh/α |
          | HOMO-LUMO GAP               1.220102062388 eV   |
           -------------------------------------------------

------------------------------------------------------------------------
 * finished run on 2024/06/05 at 20:00:14.684     
------------------------------------------------------------------------
 total:
 * wall-time:     0 d,  0 h,  0 min,  2.135 sec
 *  cpu-time:     0 d,  0 h,  0 min,  2.109 sec
 * ratio c/w:     0.988 speedup
 SCF:
 * wall-time:     0 d,  0 h,  0 min,  0.034 sec
 *  cpu-time:     0 d,  0 h,  0 min,  0.034 sec
 * ratio c/w:     0.999 speedup
 ANC optimizer:
 * wall-time:     0 d,  0 h,  0 min,  2.052 sec
 *  cpu-time:     0 d,  0 h,  0 min,  2.047 sec
 * ratio c/w:     0.997 speedup

