      -----------------------------------------------------------      
     |                   =====================                   |     
     |                           x T B                           |     
     |                   =====================                   |     
     |                         S. Grimme                         |     
     |          Mulliken Center for Theoretical Chemistry        |     
     |                    University of Bonn                     |     
      -----------------------------------------------------------      

   * xtb version 6.6.1 (8d0f1dd) compiled by 'conda@1efc2f54142f' on 2023-08-01

   xtb is free software: you can redistribute it and/or modify it under
   the terms of the GNU Lesser General Public License as published by
   the Free Software Foundation, either version 3 of the License, or
   (at your option) any later version.
   
   xtb is distributed in the hope that it will be useful,
   but WITHOUT ANY WARRANTY; without even the implied warranty of
   MERCHANTABILITY or FITNESS FOR A PARTICULAR PURPOSE.  See the
   GNU Lesser General Public License for more details.
   
   Cite this work as:
   * C. Bannwarth, E. Caldeweyher, S. Ehlert, A. Hansen, P. Pracht,
     J. Seibert, S. Spicher, S. Grimme, WIREs Comput. Mol. Sci., 2020, 11,
     e01493. DOI: 10.1002/wcms.1493
   
   for GFN2-xTB:
   * C. Bannwarth, S. Ehlert and S. Grimme., J. Chem. Theory Comput., 2019,
     15, 1652-1671. DOI: 10.1021/acs.jctc.8b01176
   for GFN1-xTB:
   * S. Grimme, C. Bannwarth, P. Shushkov, J. Chem. Theory Comput., 2017,
     13, 1989-2009. DOI: 10.1021/acs.jctc.7b00118
   for GFN0-xTB:
   * P. Pracht, E. Caldeweyher, S. Ehlert, S. Grimme, ChemRxiv, 2019, preprint.
     DOI: 10.26434/chemrxiv.8326202.v1
   for GFN-FF:
   * S. Spicher and S. Grimme, Angew. Chem. Int. Ed., 2020, 59, 15665-15673.
     DOI: 10.1002/anie.202004239
   
   for ALPB and GBSA implicit solvation:
   * S. Ehlert, M. Stahn, S. Spicher, S. Grimme, J. Chem. Theory Comput.,
     2021, 17, 4250-4261. DOI: 10.1021/acs.jctc.1c00471
   
   for DFT-D4:
   * E. Caldeweyher, C. Bannwarth and S. Grimme, J. Chem. Phys., 2017,
     147, 034112. DOI: 10.1063/1.4993215
   * E. Caldeweyher, S. Ehlert, A. Hansen, H. Neugebauer, S. Spicher,
     C. Bannwarth and S. Grimme, J. Chem. Phys., 2019, 150, 154122.
     DOI: 10.1063/1.5090222
   * E. Caldeweyher, J.-M. Mewes, S. Ehlert and S. Grimme, Phys. Chem. Chem. Phys.
     2020, 22, 8499-8512. DOI: 10.1039/D0CP00502A
   
   for sTDA-xTB:
   * S. Grimme and C. Bannwarth, J. Chem. Phys., 2016, 145, 054103.
     DOI: 10.1063/1.4959605
   
   in the mass-spec context:
   * V. Asgeirsson, C. Bauer and S. Grimme, Chem. Sci., 2017, 8, 4879.
     DOI: 10.1039/c7sc00601b
   * J. Koopman and S. Grimme, ACS Omega 2019, 4, 12, 15120-15133.
     DOI: 10.1021/acsomega.9b02011
   
   for metadynamics refer to:
   * S. Grimme, J. Chem. Theory Comput., 2019, 155, 2847-2862
     DOI: 10.1021/acs.jctc.9b00143
   
   for SPH calculations refer to:
   * S. Spicher and S. Grimme, J. Chem. Theory Comput., 2021, 17, 1701-1714
     DOI: 10.1021/acs.jctc.0c01306
   
   with help from (in alphabetical order)
   P. Atkinson, C. Bannwarth, F. Bohle, G. Brandenburg, E. Caldeweyher
   M. Checinski, S. Dohm, S. Ehlert, S. Ehrlich, I. Gerasimov, C. Hölzer
   A. Katbashev, J. Koopman, C. Lavigne, S. Lehtola, F. März, M. Müller,
   F. Musil, H. Neugebauer, J. Pisarek, C. Plett, P. Pracht, F. Pultar,
   J. Seibert, P. Shushkov, S. Spicher, M. Stahn, M. Steiner, T. Strunk,
   J. Stückrath, T. Rose, and J. Unsleber
   
 * started run on 2024/04/06 at 11:17:01.024     

           -------------------------------------------------
          |                Calculation Setup                |
           -------------------------------------------------

          program call               : xtb struc.xyz --opt loose --input .xc1 --gfn2
          hostname                   : n-62-30-23
          coordinate file            : struc.xyz
          omp threads                :                     1

   ID    Z sym.   atoms
    1    7 N      1, 17
    2    6 C      2-6, 8, 9, 11-16, 18-23, 25, 26, 28-33
    3    8 O      7, 10, 24, 27
    4    1 H      34-72
constraining bond 23 61 to    3.7133300 Å, actual value:    3.4015202 Å

           -------------------------------------------------
          |                 G F N 2 - x T B                 |
           -------------------------------------------------

        Reference                      10.1021/acs.jctc.8b01176
      * Hamiltonian:
        H0-scaling (s, p, d)           1.850000    2.230000    2.230000
        zeta-weighting                 0.500000
      * Dispersion:
        s8                             2.700000
        a1                             0.520000
        a2                             5.000000
        s9                             5.000000
      * Repulsion:
        kExp                           1.500000    1.000000
        rExp                           1.000000
      * Coulomb:
        alpha                          2.000000
        third order                    shell-resolved
        anisotropic                    true
        a3                             3.000000
        a5                             4.000000
        cn-shift                       1.200000
        cn-exp                         4.000000
        max-rad                        5.000000


          ...................................................
          :                      SETUP                      :
          :.................................................:
          :  # basis functions                 171          :
          :  # atomic orbitals                 171          :
          :  # shells                          105          :
          :  # electrons                       180          :
          :  max. iterations                   250          :
          :  Hamiltonian                  GFN2-xTB          :
          :  restarted?                      false          :
          :  GBSA solvation                  false          :
          :  PC potential                    false          :
          :  electronic temp.         5000.0000000     K    :
          :  accuracy                    1.0000000          :
          :  -> integral cutoff          0.2500000E+02      :
          :  -> integral neglect         0.1000000E-07      :
          :  -> SCF convergence          0.1000000E-05 Eh   :
          :  -> wf. convergence          0.1000000E-03 e    :
          :  Broyden damping             0.4000000          :
          ...................................................

 iter      E             dE          RMSdq      gap      omega  full diag
   1   -100.5973919 -0.100597E+03  0.374E+00    3.20       0.0  T
   2   -100.7362642 -0.138872E+00  0.221E+00    1.08       1.0  T
   3   -100.7049001  0.313641E-01  0.141E+00    3.29       1.0  T
   4   -100.7721690 -0.672689E-01  0.526E-01    1.50       1.0  T
   5   -100.7894292 -0.172602E-01  0.190E-01    1.98       1.0  T
   6   -100.7911978 -0.176856E-02  0.792E-02    1.77       1.0  T
   7   -100.7914750 -0.277198E-03  0.375E-02    1.83       1.0  T
   8   -100.7914914 -0.164582E-04  0.140E-02    1.83       1.0  T
   9   -100.7914976 -0.616739E-05  0.474E-03    1.82       2.5  T
  10   -100.7914988 -0.118227E-05  0.172E-03    1.82       6.8  T
  11   -100.7914989 -0.139928E-06  0.766E-04    1.82      15.4  T
  12   -100.7914989 -0.773143E-08  0.318E-04    1.82      37.0  T

   *** convergence criteria satisfied after 12 iterations ***

         #    Occupation            Energy/Eh            Energy/eV
      -------------------------------------------------------------
         1        2.0000           -0.8078051             -21.9815
       ...           ...                  ...                  ...
        84        1.9966           -0.5157491             -14.0342
        85        1.9959           -0.5128261             -13.9547
        86        1.9840           -0.4911498             -13.3649
        87        1.9795           -0.4872543             -13.2589
        88        1.9640           -0.4782114             -13.0128
        89        1.8920           -0.4602041             -12.5228
        90        1.8557           -0.4553147             -12.3897 (HOMO)
        91        0.3166           -0.3884132             -10.5693 (LUMO)
        92        0.0218           -0.3434697              -9.3463
        93        0.0041           -0.3169887              -8.6257
        94        0.0034           -0.3139726              -8.5436
        95        0.0029           -0.3112618              -8.4699
       ...           ...                  ...                  ...
       171                          0.5822580              15.8440
      -------------------------------------------------------------
                  HL-Gap            0.0669015 Eh            1.8205 eV
             Fermi-level           -0.4148687 Eh          -11.2892 eV

 SCC (total)                   0 d,  0 h,  0 min,  0.192 sec
 SCC setup                      ...        0 min,  0.001 sec (  0.752%)
 Dispersion                     ...        0 min,  0.002 sec (  1.251%)
 classical contributions        ...        0 min,  0.001 sec (  0.337%)
 integral evaluation            ...        0 min,  0.018 sec (  9.562%)
 iterations                     ...        0 min,  0.099 sec ( 51.509%)
 molecular gradient             ...        0 min,  0.070 sec ( 36.244%)
 printout                       ...        0 min,  0.001 sec (  0.336%)

         :::::::::::::::::::::::::::::::::::::::::::::::::::::
         ::                     SUMMARY                     ::
         :::::::::::::::::::::::::::::::::::::::::::::::::::::
         :: total energy             -99.421490812162 Eh    ::
         :: gradient norm              0.090112066070 Eh/a0 ::
         :: HOMO-LUMO gap              1.820481192090 eV    ::
         ::.................................................::
         :: SCC energy              -100.791498925389 Eh    ::
         :: -> isotropic ES            0.109302908418 Eh    ::
         :: -> anisotropic ES          0.005415138735 Eh    ::
         :: -> anisotropic XC          0.042392697176 Eh    ::
         :: -> dispersion             -0.075527661009 Eh    ::
         :: repulsion energy           1.386151658689 Eh    ::
         :: add. restraining          -0.017359897967 Eh    ::
         :: total charge               1.000000000108 e     ::
         :::::::::::::::::::::::::::::::::::::::::::::::::::::

      ----------------------------------------------------------- 
     |                   =====================                   |
     |                        A N C O P T                        |
     |                   =====================                   |
     |               Approximate Normal Coordinate               |
     |                Rational Function Optimizer                |
      ----------------------------------------------------------- 

          ...................................................
          :                      SETUP                      :
          :.................................................:
          :   optimization level             loose          :
          :   max. optcycles                   200          :
          :   ANC micro-cycles                  20          :
          :   degrees of freedom               210          :
          :.................................................:
          :   RF solver                   davidson          :
          :   write xtbopt.log                true          :
          :   linear?                        false          :
          :   energy convergence         0.5000000E-04 Eh   :
          :   grad. convergence          0.4000000E-02 Eh/α :
          :   maxmium RF displ.          1.0000000          :
          :   Hlow (freq-cutoff)         0.1000000E-01      :
          :   Hmax (freq-cutoff)         5.0000000          :
          :   S6 in model hess.         20.0000000          :
          ...................................................

generating ANC from model Hessian ...
Using Lindh-Hessian (1995)
 Shifting diagonal of input Hessian by    9.9219166999112689E-003
 Lowest  eigenvalues of input Hessian
    0.000000    0.000000    0.000000    0.000000    0.000000    0.000000
    0.010000    0.010033    0.010219    0.010272    0.010309    0.010651
    0.010707    0.010928    0.011135    0.011663    0.011799    0.012736
 Highest eigenvalues
    2.031034    2.035943    2.045880    2.179365    2.183214    2.186977


........................................................................
.............................. CYCLE    1 ..............................
........................................................................

 iter      E             dE          RMSdq      gap      omega  full diag
   1   -100.7914989 -0.100791E+03  0.114E-04    1.82       0.0  T
   2   -100.7914989 -0.678995E-10  0.713E-05    1.82     165.2  T
   3   -100.7914989  0.665210E-10  0.496E-05    1.82     237.5  T
     SCC iter.                  ...        0 min,  0.026 sec
     gradient                   ...        0 min,  0.069 sec
 * total energy  :   -99.4214908 Eh     change       -0.4035485E-08 Eh
   gradient norm :     0.0901119 Eh/α   predicted     0.0000000E+00 (-100.00%)
   displ. norm   :     0.5609272 α      lambda       -0.3590441E-01
   maximum displ.:     0.3068199 α      in ANC's #54, #57, #55, ...

........................................................................
.............................. CYCLE    2 ..............................
........................................................................

 iter      E             dE          RMSdq      gap      omega  full diag
   1   -100.8134721 -0.100813E+03  0.372E-01    1.81       0.0  T
   2   -100.8136258 -0.153665E-03  0.222E-01    1.87       1.0  T
   3   -100.8117371  0.188865E-02  0.145E-01    1.67       1.0  T
   4   -100.8137134 -0.197633E-02  0.341E-02    1.87       1.0  T
   5   -100.8138124 -0.989830E-04  0.771E-03    1.83       1.5  T
   6   -100.8138138 -0.142637E-05  0.449E-03    1.83       2.6  T
   7   -100.8138141 -0.283826E-06  0.190E-03    1.83       6.2  T
   8   -100.8138143 -0.135656E-06  0.631E-04    1.83      18.7  T
   9   -100.8138143 -0.487512E-08  0.319E-04    1.83      36.9  T
     SCC iter.                  ...        0 min,  0.073 sec
     gradient                   ...        0 min,  0.069 sec
 * total energy  :   -99.4518833 Eh     change       -0.3039253E-01 Eh
   gradient norm :     0.0769471 Eh/α   predicted    -0.2360287E-01 ( -22.34%)
   displ. norm   :     0.7265676 α      lambda       -0.3413318E-01
   maximum displ.:     0.4021473 α      in ANC's #54, #57, #55, ...

........................................................................
.............................. CYCLE    3 ..............................
........................................................................

 iter      E             dE          RMSdq      gap      omega  full diag
   1   -100.7705103 -0.100771E+03  0.505E-01    1.77       0.0  T
   2   -100.7710880 -0.577706E-03  0.294E-01    1.87       1.0  T
   3   -100.7693375  0.175046E-02  0.147E-01    1.67       1.0  T
   4   -100.7709222 -0.158470E-02  0.629E-02    1.90       1.0  T
   5   -100.7712986 -0.376393E-03  0.116E-02    1.83       1.0  T
   6   -100.7713028 -0.423917E-05  0.636E-03    1.83       1.9  T
   7   -100.7713034 -0.597200E-06  0.278E-03    1.83       4.2  T
   8   -100.7713037 -0.313122E-06  0.988E-04    1.83      11.9  T
   9   -100.7713038 -0.219742E-07  0.489E-04    1.83      24.1  T
     SCC iter.                  ...        0 min,  0.073 sec
     gradient                   ...        0 min,  0.069 sec
 * total energy  :   -99.4791620 Eh     change       -0.2727868E-01 Eh
   gradient norm :     0.1118360 Eh/α   predicted    -0.2607607E-01 (  -4.41%)
   displ. norm   :     0.6983283 α      lambda       -0.2958100E-01
   maximum displ.:     0.3611862 α      in ANC's #54, #57, #55, ...

........................................................................
.............................. CYCLE    4 ..............................
........................................................................

 iter      E             dE          RMSdq      gap      omega  full diag
   1   -100.6492414 -0.100649E+03  0.391E-01    1.42       0.0  T
   2   -100.6477554  0.148604E-02  0.358E-01    1.97       1.0  T
   3   -100.6541801 -0.642472E-02  0.189E-01    1.60       1.0  T
   4   -100.6551298 -0.949763E-03  0.973E-02    1.79       1.0  T
   5   -100.6556519 -0.522082E-03  0.366E-02    1.78       1.0  T
   6   -100.6557177 -0.657958E-04  0.130E-02    1.75       1.0  T
   7   -100.6557246 -0.686979E-05  0.477E-03    1.76       2.5  T
   8   -100.6557255 -0.954916E-06  0.154E-03    1.75       7.6  T
   9   -100.6557256 -0.622426E-07  0.757E-04    1.75      15.6  T
  10   -100.6557256 -0.670248E-08  0.312E-04    1.75      37.7  T
     SCC iter.                  ...        0 min,  0.080 sec
     gradient                   ...        0 min,  0.073 sec
 * total energy  :   -99.5051319 Eh     change       -0.2596989E-01 Eh
   gradient norm :     0.1835692 Eh/α   predicted    -0.2200328E-01 ( -15.27%)
   displ. norm   :     0.8303623 α      lambda       -0.4673239E-01
   maximum displ.:     0.3854464 α      in ANC's #54, #57, #55, ...

........................................................................
.............................. CYCLE    5 ..............................
........................................................................

 iter      E             dE          RMSdq      gap      omega  full diag
   1   -100.4330349 -0.100433E+03  0.884E-01    0.22       0.0  T
   2   -100.2393131  0.193722E+00  0.154E+00    1.44       1.0  T
   3   -100.5101416 -0.270829E+00  0.509E-01    1.54       1.0  T
   4   -100.5268853 -0.167436E-01  0.206E-01    1.08       1.0  T
   5   -100.5261733  0.711961E-03  0.124E-01    0.95       1.0  T
   6   -100.5279638 -0.179050E-02  0.393E-02    1.05       1.0  T
   7   -100.5280486 -0.847645E-04  0.151E-02    1.07       1.0  T
   8   -100.5280529 -0.428682E-05  0.929E-03    1.06       1.3  T
   9   -100.5280574 -0.453054E-05  0.408E-03    1.06       2.9  T
  10   -100.5280583 -0.887689E-06  0.164E-03    1.06       7.2  T
  11   -100.5280585 -0.196217E-06  0.666E-04    1.06      17.7  T
  12   -100.5280585 -0.140088E-07  0.208E-04    1.06      56.7  T
     SCC iter.                  ...        0 min,  0.096 sec
     gradient                   ...        0 min,  0.069 sec
 * total energy  :   -99.5481563 Eh     change       -0.4302439E-01 Eh
   gradient norm :     0.2806216 Eh/α   predicted    -0.3947724E-01 (  -8.24%)
   displ. norm   :     0.5449436 α      lambda       -0.7507667E-01
   maximum displ.:     0.1937401 α      in ANC's #160, #209, #203, ...

........................................................................
.............................. CYCLE    6 ..............................
........................................................................

 iter      E             dE          RMSdq      gap      omega  full diag
   1   -100.5149521 -0.100515E+03  0.520E-01    1.35       0.0  T
   2   -100.4642048  0.507473E-01  0.738E-01    0.39       1.0  T
   3   -100.5199515 -0.557467E-01  0.358E-01    1.43       1.0  T
   4   -100.5294764 -0.952487E-02  0.134E-01    1.10       1.0  T
   5   -100.5297525 -0.276151E-03  0.464E-02    1.08       1.0  T
   6   -100.5298770 -0.124481E-03  0.197E-02    1.08       1.0  T
   7   -100.5298906 -0.136371E-04  0.806E-03    1.09       1.5  T
   8   -100.5298907 -0.551698E-07  0.419E-03    1.09       2.8  T
   9   -100.5298914 -0.701331E-06  0.206E-03    1.09       5.7  T
  10   -100.5298916 -0.203432E-06  0.971E-04    1.09      12.1  T
  11   -100.5298916 -0.148051E-07  0.425E-04    1.09      27.7  T
     SCC iter.                  ...        0 min,  0.089 sec
     gradient                   ...        0 min,  0.069 sec
 * total energy  :   -99.5869476 Eh     change       -0.3879131E-01 Eh
   gradient norm :     0.4443790 Eh/α   predicted    -0.4868587E-01 (  25.51%)
   displ. norm   :     0.6718958 α      lambda       -0.1232267E+00
   maximum displ.:     0.2077637 α      in ANC's #57, #42, #203, ...

........................................................................
.............................. CYCLE    7 ..............................
........................................................................

 iter      E             dE          RMSdq      gap      omega  full diag
   1   -100.4711351 -0.100471E+03  0.565E-01    1.33       0.0  T
   2   -100.4058432  0.652919E-01  0.803E-01    0.34       1.0  T
   3   -100.4750117 -0.691684E-01  0.321E-01    1.31       1.0  T
   4   -100.4807410 -0.572935E-02  0.168E-01    1.07       1.0  T
   5   -100.4819348 -0.119383E-02  0.517E-02    1.07       1.0  T
   6   -100.4821294 -0.194591E-03  0.227E-02    1.06       1.0  T
   7   -100.4821432 -0.137538E-04  0.954E-03    1.06       1.2  T
   8   -100.4821433 -0.670858E-07  0.646E-03    1.06       1.8  T
   9   -100.4821459 -0.266149E-05  0.132E-03    1.06       8.9  T
  10   -100.4821459 -0.227301E-07  0.752E-04    1.06      15.7  T
  11   -100.4821460 -0.210209E-07  0.349E-04    1.06      33.8  T
     SCC iter.                  ...        0 min,  0.089 sec
     gradient                   ...        0 min,  0.069 sec
 * total energy  :   -99.7255796 Eh     change       -0.1386320E+00 Eh
   gradient norm :     0.4618413 Eh/α   predicted    -0.8942832E-01 ( -35.49%)
   displ. norm   :     0.8006378 α      lambda       -0.1825027E+00
   maximum displ.:     0.2568004 α      in ANC's #57, #54, #203, ...

........................................................................
.............................. CYCLE    8 ..............................
........................................................................

 iter      E             dE          RMSdq      gap      omega  full diag
   1   -100.3775823 -0.100378E+03  0.669E-01    1.21       0.0  T
   2   -100.2072092  0.170373E+00  0.115E+00    0.08       1.0  T
   3   -100.3924317 -0.185222E+00  0.366E-01    1.14       1.0  T
   4   -100.3952778 -0.284609E-02  0.268E-01    1.03       1.0  T
   5   -100.3994294 -0.415161E-02  0.900E-02    1.00       1.0  T
   6   -100.3999991 -0.569624E-03  0.436E-02    0.97       1.0  T
   7   -100.4001375 -0.138421E-03  0.186E-02    0.98       1.0  T
   8   -100.4001348  0.271988E-05  0.153E-02    0.99       1.0  T
   9   -100.4001535 -0.187356E-04  0.350E-03    0.99       3.4  T
  10   -100.4001542 -0.677095E-06  0.176E-03    0.99       6.7  T
  11   -100.4001543 -0.108014E-06  0.841E-04    0.99      14.0  T
  12   -100.4001543 -0.395962E-07  0.330E-04    0.99      35.7  T
     SCC iter.                  ...        0 min,  0.097 sec
     gradient                   ...        0 min,  0.069 sec
 * total energy  :   -99.9243125 Eh     change       -0.1987328E+00 Eh
   gradient norm :     0.6091612 Eh/α   predicted    -0.1497454E+00 ( -24.65%)
   displ. norm   :     0.7515985 α      lambda       -0.2253825E+00
   maximum displ.:     0.2672892 α      in ANC's #57, #54, #84, ...

........................................................................
.............................. CYCLE    9 ..............................
........................................................................

 iter      E             dE          RMSdq      gap      omega  full diag
   1   -100.2889361 -0.100289E+03  0.545E-01    0.99       0.0  T
   2   -100.2686284  0.203077E-01  0.602E-01    0.86       1.0  T
   3   -100.2934610 -0.248325E-01  0.294E-01    1.04       1.0  T
   4   -100.2731031  0.203579E-01  0.454E-01    0.62       1.0  T
   5   -100.2984479 -0.253448E-01  0.120E-01    1.09       1.0  T
   6   -100.3001266 -0.167872E-02  0.379E-02    0.98       1.0  T
   7   -100.3002252 -0.985518E-04  0.328E-02    1.00       1.0  T
   8   -100.3003130 -0.878265E-04  0.122E-02    1.00       1.0  T
   9   -100.3003122  0.860114E-06  0.815E-03    1.00       1.4  T
  10   -100.3003197 -0.753011E-05  0.215E-03    1.00       5.5  T
  11   -100.3003198 -0.157575E-06  0.114E-03    1.00      10.3  T
  12   -100.3003199 -0.384709E-07  0.446E-04    1.00      26.4  T
  13   -100.3003199 -0.207071E-07  0.128E-04    1.00      92.0  T
     SCC iter.                  ...        0 min,  0.104 sec
     gradient                   ...        0 min,  0.072 sec
 * total energy  :  -100.1597234 Eh     change       -0.2354110E+00 Eh
   gradient norm :     0.5913871 Eh/α   predicted    -0.1763506E+00 ( -25.09%)
   displ. norm   :     0.8385667 α      lambda       -0.4349152E+00
   maximum displ.:     0.3207090 α      in ANC's #205, #57, #139, ...

........................................................................
.............................. CYCLE   10 ..............................
........................................................................

 iter      E             dE          RMSdq      gap      omega  full diag
   1   -100.1900723 -0.100190E+03  0.100E+00    0.97       0.0  T
   2    -99.9788710  0.211201E+00  0.162E+00    0.62       1.0  T
   3   -100.2090254 -0.230154E+00  0.591E-01    0.95       1.0  T
   4   -100.1897068  0.193185E-01  0.651E-01    0.73       1.0  T
   5   -100.2391605 -0.494537E-01  0.217E-01    0.96       1.0  T
   6   -100.2423383 -0.317781E-02  0.552E-02    0.93       1.0  T
   7   -100.2420961  0.242201E-03  0.646E-02    0.93       1.0  T
   8   -100.2424597 -0.363604E-03  0.325E-02    0.92       1.0  T
   9   -100.2425684 -0.108697E-03  0.202E-02    0.93       1.0  T
  10   -100.2425920 -0.235318E-04  0.111E-02    0.93       1.1  T
  11   -100.2426051 -0.130962E-04  0.395E-03    0.93       3.0  T
  12   -100.2426063 -0.122323E-05  0.111E-03    0.93      10.6  T
  13   -100.2426063  0.381432E-07  0.758E-04    0.93      15.5  T
  14   -100.2426064 -0.101364E-06  0.152E-04    0.93      77.6  T
     SCC iter.                  ...        0 min,  0.112 sec
     gradient                   ...        0 min,  0.069 sec
 * total energy  :   -99.2569633 Eh     change        0.9027601E+00 Eh
   gradient norm :     6.6335700 Eh/α   predicted    -0.3703725E+00 (-141.03%)
   displ. norm   :     0.4960908 α      lambda       -0.3254147E+01
   maximum displ.:     0.1674136 α      in ANC's #139, #54, #151, ...

........................................................................
.............................. CYCLE   11 ..............................
........................................................................

 iter      E             dE          RMSdq      gap      omega  full diag
   1   -100.1793149 -0.100179E+03  0.738E-01    0.88       0.0  T
   2   -100.0739601  0.105355E+00  0.120E+00    0.78       1.0  T
   3   -100.2097066 -0.135747E+00  0.365E-01    0.80       1.0  T
   4   -100.2134443 -0.373765E-02  0.345E-01    0.76       1.0  T
   5   -100.2269282 -0.134840E-01  0.158E-01    0.83       1.0  T
   6   -100.2279485 -0.102030E-02  0.669E-02    0.82       1.0  T
   7   -100.2279386  0.991737E-05  0.732E-02    0.86       1.0  T
   8   -100.2285104 -0.571820E-03  0.177E-02    0.83       1.0  T
   9   -100.2285251 -0.146751E-04  0.143E-02    0.83       1.0  T
  10   -100.2285391 -0.139267E-04  0.677E-03    0.83       1.7  T
  11   -100.2285422 -0.312947E-05  0.215E-03    0.83       5.5  T
  12   -100.2285424 -0.220292E-06  0.994E-04    0.83      11.9  T
  13   -100.2285425 -0.819999E-07  0.280E-04    0.83      42.2  T
     SCC iter.                  ...        0 min,  0.104 sec
     gradient                   ...        0 min,  0.069 sec
 * total energy  :  -100.2634235 Eh     change       -0.1006460E+01 Eh
   gradient norm :     0.2176865 Eh/α   predicted    -0.2027506E+01 ( 101.45%)
   displ. norm   :     0.7452950 α      lambda       -0.9826036E-01
   maximum displ.:     0.2282102 α      in ANC's #209, #57, #41, ...

........................................................................
.............................. CYCLE   12 ..............................
........................................................................

 iter      E             dE          RMSdq      gap      omega  full diag
   1   -100.2713518 -0.100271E+03  0.649E-01    0.75       0.0  T
   2   -100.2570875  0.142643E-01  0.609E-01    0.52       1.0  T
   3   -100.2482287  0.885883E-02  0.561E-01    0.97       1.0  T
   4   -100.2610105 -0.127818E-01  0.438E-01    0.53       1.0  T
   5   -100.2657476 -0.473713E-02  0.341E-01    0.65       1.0  T
   6   -100.2824781 -0.167304E-01  0.416E-02    0.69       1.0  T
   7   -100.2824635  0.146190E-04  0.363E-02    0.69       1.0  T
   8   -100.2826015 -0.138021E-03  0.140E-02    0.69       1.0  T
   9   -100.2826060 -0.447400E-05  0.103E-02    0.69       1.1  T
  10   -100.2826180 -0.120140E-04  0.402E-03    0.69       2.9  T
  11   -100.2826186 -0.597286E-06  0.221E-03    0.69       5.3  T
  12   -100.2826190 -0.444180E-06  0.616E-04    0.69      19.1  T
  13   -100.2826190 -0.562406E-08  0.297E-04    0.69      39.7  T
     SCC iter.                  ...        0 min,  0.104 sec
     gradient                   ...        0 min,  0.070 sec
 * total energy  :  -100.2879566 Eh     change       -0.2453314E-01 Eh
   gradient norm :     0.3543351 Eh/α   predicted    -0.7642031E-01 ( 211.50%)
   displ. norm   :     0.5597152 α      lambda       -0.1016639E+00
   maximum displ.:     0.1942801 α      in ANC's #205, #54, #148, ...

........................................................................
.............................. CYCLE   13 ..............................
........................................................................

 iter      E             dE          RMSdq      gap      omega  full diag
   1   -100.2655727 -0.100266E+03  0.597E-01    0.40       0.0  T
   2   -100.1379973  0.127575E+00  0.992E-01    0.57       1.0  T
   3   -100.2626782 -0.124681E+00  0.456E-01    0.39       1.0  T
   4   -100.2647194 -0.204121E-02  0.287E-01    0.49       1.0  T
   5   -100.2700198 -0.530042E-02  0.246E-01    0.44       1.0  T
   6   -100.2781999 -0.818006E-02  0.107E-01    0.46       1.0  T
   7   -100.2794797 -0.127979E-02  0.501E-02    0.47       1.0  T
   8   -100.2797239 -0.244172E-03  0.179E-02    0.47       1.0  T
   9   -100.2796930  0.308155E-04  0.147E-02    0.47       1.0  T
  10   -100.2797320 -0.389257E-04  0.345E-03    0.47       3.4  T
  11   -100.2797327 -0.787329E-06  0.193E-03    0.47       6.1  T
  12   -100.2797330 -0.251902E-06  0.920E-04    0.47      12.8  T
  13   -100.2797331 -0.531791E-07  0.358E-04    0.47      32.9  T
     SCC iter.                  ...        0 min,  0.104 sec
     gradient                   ...        0 min,  0.069 sec
 * total energy  :  -100.3477489 Eh     change       -0.5979222E-01 Eh
   gradient norm :     0.3008077 Eh/α   predicted    -0.6675666E-01 (  11.65%)
   displ. norm   :     0.6394547 α      lambda       -0.6060251E-01
   maximum displ.:     0.2388945 α      in ANC's #42, #135, #41, ...

........................................................................
.............................. CYCLE   14 ..............................
........................................................................

 iter      E             dE          RMSdq      gap      omega  full diag
   1   -100.2711427 -0.100271E+03  0.583E-01    0.09       0.0  T
   2   -100.1460242  0.125118E+00  0.959E-01    0.27       1.0  T
   3   -100.2654387 -0.119414E+00  0.403E-01    0.16       1.0  T
   4   -100.2673859 -0.194713E-02  0.363E-01    0.12       1.0  T
   5   -100.2725581 -0.517226E-02  0.245E-01    0.19       1.0  T
   6   -100.2815798 -0.902167E-02  0.860E-02    0.20       1.0  T
   7   -100.2824076 -0.827826E-03  0.242E-02    0.18       1.0  T
   8   -100.2824349 -0.273316E-04  0.183E-02    0.18       1.0  T
   9   -100.2824585 -0.235837E-04  0.646E-03    0.18       1.8  T
  10   -100.2824606 -0.211675E-05  0.234E-03    0.18       5.0  T
  11   -100.2824610 -0.386231E-06  0.106E-03    0.18      11.1  T
  12   -100.2824611 -0.290452E-07  0.537E-04    0.18      22.0  T
  13   -100.2824611 -0.297464E-07  0.194E-04    0.18      60.9  T
     SCC iter.                  ...        0 min,  0.104 sec
     gradient                   ...        0 min,  0.069 sec
 * total energy  :  -100.3641918 Eh     change       -0.1644291E-01 Eh
   gradient norm :     0.1502581 Eh/α   predicted    -0.4269150E-01 ( 159.63%)
   displ. norm   :     0.5668426 α      lambda       -0.4697424E-01
   maximum displ.:     0.2412718 α      in ANC's #41, #54, #50, ...

........................................................................
.............................. CYCLE   15 ..............................
........................................................................

 iter      E             dE          RMSdq      gap      omega  full diag
   1   -100.3320518 -0.100332E+03  0.398E-01    0.13       0.0  T
   2   -100.3093069  0.227449E-01  0.500E-01    0.14       1.0  T
   3   -100.3213077 -0.120008E-01  0.370E-01    0.25       1.0  T
   4   -100.3159383  0.536936E-02  0.315E-01    0.06       1.0  T
   5   -100.3342940 -0.183557E-01  0.750E-02    0.09       1.0  T
   6   -100.3349199 -0.625906E-03  0.326E-02    0.07       1.0  T
   7   -100.3349722 -0.522632E-04  0.287E-02    0.08       1.0  T
   8   -100.3350721 -0.999597E-04  0.868E-03    0.08       1.4  T
   9   -100.3350737 -0.158953E-05  0.455E-03    0.08       2.6  T
  10   -100.3350749 -0.113192E-05  0.171E-03    0.08       6.9  T
  11   -100.3350750 -0.109509E-06  0.113E-03    0.08      10.4  T
  12   -100.3350751 -0.109812E-06  0.327E-04    0.08      36.0  T
  13   -100.3350751 -0.514390E-08  0.150E-04    0.08      78.7  T
     SCC iter.                  ...        0 min,  0.104 sec
     gradient                   ...        0 min,  0.069 sec
 * total energy  :  -100.4076252 Eh     change       -0.4343345E-01 Eh
   gradient norm :     0.1544081 Eh/α   predicted    -0.3103376E-01 ( -28.55%)
   displ. norm   :     0.7073541 α      lambda       -0.5231179E-01
   maximum displ.:     0.3050051 α      in ANC's #41, #50, #47, ...

........................................................................
.............................. CYCLE   16 ..............................
........................................................................

 iter      E             dE          RMSdq      gap      omega  full diag
   1   -100.3827665 -0.100383E+03  0.471E-01    0.09       0.0  T
   2   -100.3800982  0.266827E-02  0.304E-01    0.09       1.0  T
   3   -100.3465697  0.335285E-01  0.468E-01    0.11       1.0  T
   4   -100.3792404 -0.326708E-01  0.180E-01    0.15       1.0  T
   5   -100.3809636 -0.172316E-02  0.155E-01    0.08       1.0  T
   6   -100.3841401 -0.317648E-02  0.407E-02    0.10       1.0  T
   7   -100.3842863 -0.146275E-03  0.209E-02    0.09       1.0  T
   8   -100.3843009 -0.145592E-04  0.175E-02    0.10       1.0  T
   9   -100.3843395 -0.385596E-04  0.468E-03    0.09       2.5  T
  10   -100.3843404 -0.923116E-06  0.207E-03    0.09       5.7  T
  11   -100.3843409 -0.531857E-06  0.925E-04    0.09      12.7  T
  12   -100.3843410 -0.391420E-07  0.410E-04    0.09      28.7  T
     SCC iter.                  ...        0 min,  0.097 sec
     gradient                   ...        0 min,  0.069 sec
 * total energy  :  -100.4069379 Eh     change        0.6872798E-03 Eh
   gradient norm :     0.5001491 Eh/α   predicted    -0.3924303E-01 (*******%)
   displ. norm   :     0.3240959 α      lambda       -0.6793505E-01
   maximum displ.:     0.1143308 α      in ANC's #50, #42, #41, ...

........................................................................
.............................. CYCLE   17 ..............................
........................................................................

 iter      E             dE          RMSdq      gap      omega  full diag
   1   -100.3848829 -0.100385E+03  0.184E-01    0.02       0.0  T
   2   -100.3844757  0.407163E-03  0.119E-01    0.06       1.0  T
   3   -100.3750493  0.942639E-02  0.260E-01    0.11       1.0  T
   4   -100.3849422 -0.989287E-02  0.501E-02    0.04       1.0  T
   5   -100.3850809 -0.138686E-03  0.204E-02    0.04       1.0  T
   6   -100.3851158 -0.348772E-04  0.114E-02    0.03       1.0  T
   7   -100.3851276 -0.118389E-04  0.651E-03    0.03       1.8  T
   8   -100.3851274  0.237786E-06  0.546E-03    0.03       2.2  T
   9   -100.3851308 -0.346313E-05  0.249E-03    0.03       4.7  T
  10   -100.3851317 -0.916905E-06  0.715E-04    0.03      16.5  T
  11   -100.3851318 -0.657964E-08  0.526E-04    0.03      22.4  T
     SCC iter.                  ...        0 min,  0.088 sec
     gradient                   ...        0 min,  0.070 sec
 * total energy  :  -100.4456008 Eh     change       -0.3866290E-01 Eh
   gradient norm :     0.2051143 Eh/α   predicted    -0.3753541E-01 (  -2.92%)
   displ. norm   :     0.4592980 α      lambda       -0.2125446E-01
   maximum displ.:     0.1886247 α      in ANC's #18, #70, #45, ...

........................................................................
.............................. CYCLE   18 ..............................
........................................................................

 iter      E             dE          RMSdq      gap      omega  full diag
   1   -100.4003860 -0.100400E+03  0.359E-01    0.39       0.0  T
   2   -100.3043030  0.960830E-01  0.923E-01    0.37       1.0  T
   3   -100.4125945 -0.108292E+00  0.125E-01    0.17       1.0  T
   4   -100.4050163  0.757824E-02  0.234E-01    0.16       1.0  T
   5   -100.4130586 -0.804236E-02  0.568E-02    0.18       1.0  T
   6   -100.4124737  0.584977E-03  0.751E-02    0.17       1.0  T
   7   -100.4134330 -0.959368E-03  0.959E-03    0.19       1.2  T
   8   -100.4134407 -0.764175E-05  0.454E-03    0.19       2.6  T
   9   -100.4134405  0.137162E-06  0.297E-03    0.19       4.0  T
  10   -100.4134410 -0.452476E-06  0.986E-04    0.19      12.0  T
  11   -100.4134411 -0.599992E-07  0.406E-04    0.19      29.1  T
     SCC iter.                  ...        0 min,  0.088 sec
     gradient                   ...        0 min,  0.069 sec
 * total energy  :  -100.4636108 Eh     change       -0.1800993E-01 Eh
   gradient norm :     0.1462881 Eh/α   predicted    -0.1286910E-01 ( -28.54%)
   displ. norm   :     0.6521149 α      lambda       -0.3485851E-01
   maximum displ.:     0.2170605 α      in ANC's #18, #70, #69, ...

........................................................................
.............................. CYCLE   19 ..............................
........................................................................

 iter      E             dE          RMSdq      gap      omega  full diag
   1   -100.4384416 -0.100438E+03  0.347E-01    0.50       0.0  T
   2   -100.3960167  0.424249E-01  0.605E-01    0.22       1.0  T
   3   -100.4396866 -0.436699E-01  0.214E-01    0.46       1.0  T
   4   -100.4403357 -0.649068E-03  0.181E-01    0.39       1.0  T
   5   -100.4424280 -0.209225E-02  0.924E-02    0.35       1.0  T
   6   -100.4432215 -0.793564E-03  0.496E-02    0.37       1.0  T
   7   -100.4435584 -0.336877E-03  0.176E-02    0.37       1.0  T
   8   -100.4435919 -0.334621E-04  0.810E-03    0.37       1.5  T
   9   -100.4435961 -0.417904E-05  0.242E-03    0.38       4.9  T
  10   -100.4435959  0.126723E-06  0.180E-03    0.38       6.5  T
  11   -100.4435964 -0.441293E-06  0.496E-04    0.38      23.8  T
  12   -100.4435964  0.289519E-08  0.275E-04    0.38      42.8  T
     SCC iter.                  ...        0 min,  0.096 sec
     gradient                   ...        0 min,  0.075 sec
 * total energy  :  -100.4937765 Eh     change       -0.3016577E-01 Eh
   gradient norm :     0.1177521 Eh/α   predicted    -0.2484115E-01 ( -17.65%)
   displ. norm   :     0.7632229 α      lambda       -0.4709504E-01
   maximum displ.:     0.2228519 α      in ANC's #70, #45, #201, ...

........................................................................
.............................. CYCLE   20 ..............................
........................................................................

 iter      E             dE          RMSdq      gap      omega  full diag
   1   -100.4661089 -0.100466E+03  0.609E-01    1.05       0.0  T
   2   -100.3271177  0.138991E+00  0.108E+00    0.31       1.0  T
   3   -100.4743839 -0.147266E+00  0.393E-01    0.98       1.0  T
   4   -100.4728690  0.151490E-02  0.311E-01    0.75       1.0  T
   5   -100.4802142 -0.734513E-02  0.211E-01    0.77       1.0  T
   6   -100.4864063 -0.619213E-02  0.267E-02    0.70       1.0  T
   7   -100.4864601 -0.537980E-04  0.112E-02    0.71       1.1  T
   8   -100.4864627 -0.263771E-05  0.724E-03    0.71       1.6  T
   9   -100.4864665 -0.373255E-05  0.266E-03    0.71       4.4  T
  10   -100.4864667 -0.240717E-06  0.149E-03    0.71       7.9  T
  11   -100.4864669 -0.164043E-06  0.747E-04    0.71      15.8  T
  12   -100.4864669 -0.350219E-07  0.277E-04    0.71      42.5  T
     SCC iter.                  ...        0 min,  0.095 sec
     gradient                   ...        0 min,  0.069 sec
 * total energy  :  -100.5347350 Eh     change       -0.4095845E-01 Eh
   gradient norm :     0.1878885 Eh/α   predicted    -0.3726422E-01 (  -9.02%)
   displ. norm   :     0.7636443 α      lambda       -0.5159210E-01
   maximum displ.:     0.2360805 α      in ANC's #126, #45, #201, ...
 * RMSD in coord.:     0.7016065 α      energy gain  -0.1113244E+01 Eh

generating ANC from model Hessian ...
Using Lindh-Hessian (1995)
 Shifting diagonal of input Hessian by    9.9664317643121478E-003
 Lowest  eigenvalues of input Hessian
    0.000000    0.000000    0.000000    0.000000    0.000000    0.000000
    0.010000    0.010084    0.010205    0.010256    0.010315    0.010524
    0.010749    0.010829    0.011017    0.011336    0.011481    0.011916
 Highest eigenvalues
    2.025225    2.042653    2.043250    2.091193    2.181089    2.216536


........................................................................
.............................. CYCLE   21 ..............................
........................................................................

 iter      E             dE          RMSdq      gap      omega  full diag
   1   -100.4963662 -0.100496E+03  0.623E-01    1.15       0.0  T
   2   -100.4391855  0.571807E-01  0.805E-01    0.24       1.0  T
   3   -100.4912594 -0.520738E-01  0.489E-01    1.25       1.0  T
   4   -100.5095220 -0.182626E-01  0.187E-01    0.91       1.0  T
   5   -100.4975266  0.119954E-01  0.300E-01    0.93       1.0  T
   6   -100.5116538 -0.141272E-01  0.285E-02    0.85       1.0  T
   7   -100.5117185 -0.647826E-04  0.140E-02    0.87       1.0  T
   8   -100.5117390 -0.204222E-04  0.713E-03    0.86       1.7  T
   9   -100.5117403 -0.136637E-05  0.405E-03    0.86       2.9  T
  10   -100.5117415 -0.116107E-05  0.180E-03    0.86       6.5  T
  11   -100.5117418 -0.297706E-06  0.586E-04    0.86      20.1  T
  12   -100.5117418 -0.226778E-07  0.183E-04    0.86      64.5  T
     SCC iter.                  ...        0 min,  0.096 sec
     gradient                   ...        0 min,  0.069 sec
 * total energy  :  -100.5740538 Eh     change       -0.3931876E-01 Eh
   gradient norm :     0.2500333 Eh/α   predicted     0.0000000E+00 (-100.00%)
   displ. norm   :     0.4556925 α      lambda       -0.6550524E-01
   maximum displ.:     0.2015560 α      in ANC's #43, #42, #50, ...

........................................................................
.............................. CYCLE   22 ..............................
........................................................................

 iter      E             dE          RMSdq      gap      omega  full diag
   1   -100.5397172 -0.100540E+03  0.392E-01    0.92       0.0  T
   2   -100.4479917  0.917255E-01  0.932E-01    0.34       1.0  T
   3   -100.5566420 -0.108650E+00  0.155E-01    0.87       1.0  T
   4   -100.5534717  0.317031E-02  0.199E-01    0.74       1.0  T
   5   -100.5550605 -0.158876E-02  0.113E-01    0.91       1.0  T
   6   -100.5568487 -0.178818E-02  0.483E-02    0.85       1.0  T
   7   -100.5571550 -0.306373E-03  0.894E-03    0.88       1.3  T
   8   -100.5571609 -0.589747E-05  0.487E-03    0.88       2.4  T
   9   -100.5571619 -0.101780E-05  0.290E-03    0.88       4.1  T
  10   -100.5571623 -0.332435E-06  0.988E-04    0.88      11.9  T
  11   -100.5571623 -0.545194E-08  0.604E-04    0.88      19.5  T
     SCC iter.                  ...        0 min,  0.088 sec
     gradient                   ...        0 min,  0.069 sec
 * total energy  :  -100.6136013 Eh     change       -0.3954752E-01 Eh
   gradient norm :     0.2510603 Eh/α   predicted    -0.3961649E-01 (   0.17%)
   displ. norm   :     0.5568576 α      lambda       -0.5446400E-01
   maximum displ.:     0.2556553 α      in ANC's #43, #127, #42, ...

........................................................................
.............................. CYCLE   23 ..............................
........................................................................

 iter      E             dE          RMSdq      gap      omega  full diag
   1   -100.5608305 -0.100561E+03  0.518E-01    0.81       0.0  T
   2   -100.4196278  0.141203E+00  0.120E+00    0.26       1.0  T
   3   -100.5943265 -0.174699E+00  0.192E-01    0.99       1.0  T
   4   -100.5868875  0.743891E-02  0.299E-01    0.75       1.0  T
   5   -100.5927121 -0.582457E-02  0.145E-01    0.94       1.0  T
   6   -100.5950854 -0.237330E-02  0.727E-02    0.91       1.0  T
   7   -100.5956305 -0.545062E-03  0.168E-02    0.95       1.0  T
   8   -100.5956572 -0.266947E-04  0.703E-03    0.96       1.7  T
   9   -100.5956585 -0.134698E-05  0.470E-03    0.96       2.5  T
  10   -100.5956598 -0.126984E-05  0.189E-03    0.96       6.2  T
  11   -100.5956598 -0.345797E-07  0.107E-03    0.96      11.0  T
  12   -100.5956599 -0.854243E-07  0.491E-04    0.96      24.0  T
  13   -100.5956599 -0.121168E-07  0.116E-04    0.96     101.2  T
     SCC iter.                  ...        0 min,  0.104 sec
     gradient                   ...        0 min,  0.069 sec
 * total energy  :  -100.6434642 Eh     change       -0.2986289E-01 Eh
   gradient norm :     0.0789031 Eh/α   predicted    -0.3567646E-01 (  19.47%)
   displ. norm   :     0.5250731 α      lambda       -0.1620744E-01
   maximum displ.:     0.2747893 α      in ANC's #43, #42, #50, ...

........................................................................
.............................. CYCLE   24 ..............................
........................................................................

 iter      E             dE          RMSdq      gap      omega  full diag
   1   -100.5998855 -0.100600E+03  0.247E-01    1.05       0.0  T
   2   -100.5854555  0.144300E-01  0.406E-01    0.70       1.0  T
   3   -100.6023583 -0.169028E-01  0.128E-01    1.07       1.0  T
   4   -100.6007954  0.156281E-02  0.132E-01    0.92       1.0  T
   5   -100.6022060 -0.141059E-02  0.809E-02    1.08       1.0  T
   6   -100.6030358 -0.829762E-03  0.204E-02    1.02       1.0  T
   7   -100.6030712 -0.353844E-04  0.323E-03    1.03       3.6  T
   8   -100.6030712 -0.352071E-08  0.199E-03    1.03       5.9  T
   9   -100.6030713 -0.897447E-07  0.117E-03    1.03      10.0  T
  10   -100.6030714 -0.152913E-06  0.357E-04    1.03      33.0  T
  11   -100.6030714 -0.303193E-08  0.174E-04    1.03      67.9  T
     SCC iter.                  ...        0 min,  0.089 sec
     gradient                   ...        0 min,  0.069 sec
 * total energy  :  -100.6547883 Eh     change       -0.1132411E-01 Eh
   gradient norm :     0.0415492 Eh/α   predicted    -0.1033807E-01 (  -8.71%)
   displ. norm   :     0.5012108 α      lambda       -0.8741713E-02
   maximum displ.:     0.1937003 α      in ANC's #24, #43, #38, ...

........................................................................
.............................. CYCLE   25 ..............................
........................................................................

 iter      E             dE          RMSdq      gap      omega  full diag
   1   -100.6038535 -0.100604E+03  0.174E-01    1.09       0.0  T
   2   -100.6028688  0.984700E-03  0.130E-01    0.98       1.0  T
   3   -100.5962550  0.661383E-02  0.242E-01    1.22       1.0  T
   4   -100.6039353 -0.768029E-02  0.263E-02    1.08       1.0  T
   5   -100.6040073 -0.720246E-04  0.132E-02    1.06       1.0  T
   6   -100.6040202 -0.128947E-04  0.952E-03    1.07       1.2  T
   7   -100.6040295 -0.935689E-05  0.270E-03    1.07       4.4  T
   8   -100.6040296 -0.375291E-07  0.174E-03    1.07       6.8  T
   9   -100.6040298 -0.184139E-06  0.474E-04    1.07      24.9  T
  10   -100.6040298 -0.151647E-07  0.198E-04    1.07      59.6  T
     SCC iter.                  ...        0 min,  0.080 sec
     gradient                   ...        0 min,  0.069 sec
 * total energy  :  -100.6606766 Eh     change       -0.5888332E-02 Eh
   gradient norm :     0.0297869 Eh/α   predicted    -0.5469058E-02 (  -7.12%)
   displ. norm   :     0.5107973 α      lambda       -0.5216048E-02
   maximum displ.:     0.2050985 α      in ANC's #24, #23, #21, ...

........................................................................
.............................. CYCLE   26 ..............................
........................................................................

 iter      E             dE          RMSdq      gap      omega  full diag
   1   -100.6083813 -0.100608E+03  0.194E-01    1.07       0.0  T
   2   -100.5974973  0.108839E-01  0.355E-01    0.87       1.0  T
   3   -100.6109655 -0.134682E-01  0.793E-02    1.08       1.0  T
   4   -100.6108688  0.967313E-04  0.499E-02    1.08       1.0  T
   5   -100.6109526 -0.838374E-04  0.234E-02    1.10       1.0  T
   6   -100.6109005  0.520972E-04  0.300E-02    1.05       1.0  T
   7   -100.6110266 -0.126130E-03  0.256E-03    1.08       4.6  T
   8   -100.6110269 -0.254567E-06  0.142E-03    1.08       8.3  T
   9   -100.6110269 -0.234884E-07  0.872E-04    1.08      13.5  T
  10   -100.6110270 -0.333393E-07  0.213E-04    1.08      55.2  T
     SCC iter.                  ...        0 min,  0.079 sec
     gradient                   ...        0 min,  0.069 sec
 * total energy  :  -100.6644006 Eh     change       -0.3723944E-02 Eh
   gradient norm :     0.0273391 Eh/α   predicted    -0.3288655E-02 ( -11.69%)
   displ. norm   :     0.6125587 α      lambda       -0.4475495E-02
   maximum displ.:     0.2170301 α      in ANC's #24, #18, #38, ...

........................................................................
.............................. CYCLE   27 ..............................
........................................................................

 iter      E             dE          RMSdq      gap      omega  full diag
   1   -100.6094714 -0.100609E+03  0.173E-01    1.06       0.0  T
   2   -100.6087267  0.744692E-03  0.139E-01    1.13       1.0  T
   3   -100.6063638  0.236294E-02  0.176E-01    0.96       1.0  T
   4   -100.6083613 -0.199753E-02  0.961E-02    1.17       1.0  T
   5   -100.6096192 -0.125788E-02  0.303E-02    1.05       1.0  T
   6   -100.6097264 -0.107176E-03  0.842E-03    1.08       1.4  T
   7   -100.6097322 -0.582125E-05  0.257E-03    1.08       4.6  T
   8   -100.6097322  0.266908E-08  0.133E-03    1.08       8.8  T
   9   -100.6097322 -0.683821E-07  0.513E-04    1.08      23.0  T
  10   -100.6097323 -0.169367E-07  0.185E-04    1.08      63.6  T
     SCC iter.                  ...        0 min,  0.079 sec
     gradient                   ...        0 min,  0.069 sec
 * total energy  :  -100.6674146 Eh     change       -0.3014061E-02 Eh
   gradient norm :     0.0309842 Eh/α   predicted    -0.3077430E-02 (   2.10%)
   displ. norm   :     0.4668148 α      lambda       -0.3261917E-02
   maximum displ.:     0.1423841 α      in ANC's #24, #18, #21, ...

........................................................................
.............................. CYCLE   28 ..............................
........................................................................

 iter      E             dE          RMSdq      gap      omega  full diag
   1   -100.6150824 -0.100615E+03  0.147E-01    1.03       0.0  T
   2   -100.6108095  0.427282E-02  0.219E-01    1.06       1.0  T
   3   -100.6157317 -0.492213E-02  0.789E-02    1.01       1.0  T
   4   -100.6138953  0.183635E-02  0.132E-01    1.20       1.0  T
   5   -100.6159784 -0.208307E-02  0.293E-02    1.04       1.0  T
   6   -100.6160747 -0.963145E-04  0.502E-03    1.06       2.3  T
   7   -100.6160764 -0.171776E-05  0.223E-03    1.06       5.3  T
   8   -100.6160766 -0.161708E-06  0.116E-03    1.06      10.2  T
   9   -100.6160766 -0.346016E-07  0.487E-04    1.06      24.2  T
  10   -100.6160766 -0.103915E-07  0.195E-04    1.06      60.3  T
     SCC iter.                  ...        0 min,  0.080 sec
     gradient                   ...        0 min,  0.069 sec
 * total energy  :  -100.6695293 Eh     change       -0.2114719E-02 Eh
   gradient norm :     0.0181548 Eh/α   predicted    -0.1986384E-02 (  -6.07%)
   displ. norm   :     0.3974290 α      lambda       -0.1458204E-02
   maximum displ.:     0.1398707 α      in ANC's #18, #38, #14, ...

........................................................................
.............................. CYCLE   29 ..............................
........................................................................

 iter      E             dE          RMSdq      gap      omega  full diag
   1   -100.6168282 -0.100617E+03  0.106E-01    1.04       0.0  T
   2   -100.6165305  0.297690E-03  0.792E-02    1.10       1.0  T
   3   -100.6132881  0.324240E-02  0.160E-01    0.89       1.0  T
   4   -100.6168065 -0.351842E-02  0.243E-02    1.06       1.0  T
   5   -100.6168612 -0.546897E-04  0.743E-03    1.05       1.6  T
   6   -100.6168660 -0.475067E-05  0.342E-03    1.05       3.4  T
   7   -100.6168666 -0.634958E-06  0.130E-03    1.05       9.1  T
   8   -100.6168666 -0.200940E-08  0.635E-04    1.05      18.6  T
   9   -100.6168666 -0.306685E-07  0.212E-04    1.05      55.6  T
     SCC iter.                  ...        0 min,  0.072 sec
     gradient                   ...        0 min,  0.069 sec
 * total energy  :  -100.6705452 Eh     change       -0.1015866E-02 Eh
   gradient norm :     0.0160906 Eh/α   predicted    -0.8442646E-03 ( -16.89%)
   displ. norm   :     0.4042901 α      lambda       -0.1439878E-02
   maximum displ.:     0.1505452 α      in ANC's #9, #4, #14, ...

........................................................................
.............................. CYCLE   30 ..............................
........................................................................

 iter      E             dE          RMSdq      gap      omega  full diag
   1   -100.6210358 -0.100621E+03  0.955E-02    1.04       0.0  T
   2   -100.6209599  0.759125E-04  0.628E-02    1.07       1.0  T
   3   -100.6180851  0.287480E-02  0.143E-01    0.90       1.0  T
   4   -100.6210120 -0.292693E-02  0.214E-02    1.06       1.0  T
   5   -100.6210446 -0.325955E-04  0.118E-02    1.04       1.0  T
   6   -100.6210586 -0.140109E-04  0.372E-03    1.05       3.2  T
   7   -100.6210597 -0.107663E-05  0.141E-03    1.04       8.3  T
   8   -100.6210597 -0.105330E-07  0.672E-04    1.04      17.5  T
   9   -100.6210597 -0.150856E-07  0.263E-04    1.04      44.8  T
     SCC iter.                  ...        0 min,  0.073 sec
     gradient                   ...        0 min,  0.069 sec
 * total energy  :  -100.6715673 Eh     change       -0.1022112E-02 Eh
   gradient norm :     0.0142010 Eh/α   predicted    -0.8376140E-03 ( -18.05%)
   displ. norm   :     0.4671316 α      lambda       -0.1234456E-02
   maximum displ.:     0.1577934 α      in ANC's #14, #9, #4, ...

........................................................................
.............................. CYCLE   31 ..............................
........................................................................

 iter      E             dE          RMSdq      gap      omega  full diag
   1   -100.6208495 -0.100621E+03  0.101E-01    1.05       0.0  T
   2   -100.6208175  0.319863E-04  0.623E-02    1.03       1.0  T
   3   -100.6195165  0.130109E-02  0.101E-01    1.11       1.0  T
   4   -100.6207749 -0.125848E-02  0.268E-02    1.02       1.0  T
   5   -100.6208560 -0.810998E-04  0.843E-03    1.05       1.4  T
   6   -100.6208637 -0.770407E-05  0.276E-03    1.04       4.3  T
   7   -100.6208640 -0.301123E-06  0.115E-03    1.05      10.2  T
   8   -100.6208641 -0.331883E-07  0.392E-04    1.05      30.1  T
   9   -100.6208641 -0.539944E-08  0.209E-04    1.05      56.5  T
     SCC iter.                  ...        0 min,  0.073 sec
     gradient                   ...        0 min,  0.069 sec
 * total energy  :  -100.6724726 Eh     change       -0.9053311E-03 Eh
   gradient norm :     0.0185711 Eh/α   predicted    -0.7519162E-03 ( -16.95%)
   displ. norm   :     0.4579697 α      lambda       -0.1227577E-02
   maximum displ.:     0.1453665 α      in ANC's #26, #4, #7, ...

........................................................................
.............................. CYCLE   32 ..............................
........................................................................

 iter      E             dE          RMSdq      gap      omega  full diag
   1   -100.6235087 -0.100624E+03  0.920E-02    1.06       0.0  T
   2   -100.6233588  0.149883E-03  0.615E-02    1.01       1.0  T
   3   -100.6208303  0.252850E-02  0.141E-01    1.20       1.0  T
   4   -100.6235208 -0.269048E-02  0.120E-02    1.06       1.0  T
   5   -100.6235300 -0.914687E-05  0.377E-03    1.05       3.1  T
   6   -100.6235296  0.388769E-06  0.358E-03    1.05       3.3  T
   7   -100.6235305 -0.935846E-06  0.151E-03    1.05       7.8  T
   8   -100.6235307 -0.151337E-06  0.596E-04    1.05      19.8  T
   9   -100.6235307 -0.430838E-07  0.195E-04    1.05      60.5  T
     SCC iter.                  ...        0 min,  0.073 sec
     gradient                   ...        0 min,  0.069 sec
 * total energy  :  -100.6733343 Eh     change       -0.8616313E-03 Eh
   gradient norm :     0.0167102 Eh/α   predicted    -0.7425222E-03 ( -13.82%)
   displ. norm   :     0.4474285 α      lambda       -0.9036557E-03
   maximum displ.:     0.1439323 α      in ANC's #26, #14, #4, ...

........................................................................
.............................. CYCLE   33 ..............................
........................................................................

 iter      E             dE          RMSdq      gap      omega  full diag
   1   -100.6209847 -0.100621E+03  0.854E-02    1.05       0.0  T
   2   -100.6209299  0.547823E-04  0.580E-02    1.05       1.0  T
   3   -100.6201537  0.776181E-03  0.860E-02    1.08       1.0  T
   4   -100.6209590 -0.805250E-03  0.199E-02    1.03       1.0  T
   5   -100.6209919 -0.328831E-04  0.114E-02    1.06       1.0  T
   6   -100.6210082 -0.163338E-04  0.320E-03    1.05       3.7  T
   7   -100.6210089 -0.685278E-06  0.121E-03    1.05       9.7  T
   8   -100.6210089 -0.156496E-07  0.442E-04    1.05      26.7  T
   9   -100.6210089 -0.716133E-08  0.219E-04    1.05      53.7  T
     SCC iter.                  ...        0 min,  0.073 sec
     gradient                   ...        0 min,  0.071 sec
 * total energy  :  -100.6739600 Eh     change       -0.6256854E-03 Eh
   gradient norm :     0.0178595 Eh/α   predicted    -0.5422808E-03 ( -13.33%)
   displ. norm   :     0.3816373 α      lambda       -0.1046865E-02
   maximum displ.:     0.1411314 α      in ANC's #24, #26, #3, ...

........................................................................
.............................. CYCLE   34 ..............................
........................................................................

 iter      E             dE          RMSdq      gap      omega  full diag
   1   -100.6284954 -0.100628E+03  0.860E-02    1.04       0.0  T
   2   -100.6281878  0.307662E-03  0.755E-02    1.07       1.0  T
   3   -100.6281479  0.398987E-04  0.695E-02    1.02       1.0  T
   4   -100.6281419  0.595568E-05  0.587E-02    1.11       1.0  T
   5   -100.6285580 -0.416104E-03  0.148E-02    1.04       1.0  T
   6   -100.6285855 -0.274367E-04  0.306E-03    1.05       3.9  T
   7   -100.6285860 -0.556473E-06  0.131E-03    1.05       9.0  T
   8   -100.6285860  0.611668E-08  0.655E-04    1.05      18.0  T
   9   -100.6285860 -0.313525E-07  0.210E-04    1.05      56.2  T
     SCC iter.                  ...        0 min,  0.073 sec
     gradient                   ...        0 min,  0.075 sec
 * total energy  :  -100.6744514 Eh     change       -0.4914103E-03 Eh
   gradient norm :     0.0129704 Eh/α   predicted    -0.5996696E-03 (  22.03%)
   displ. norm   :     0.3796959 α      lambda       -0.7669245E-03
   maximum displ.:     0.1295682 α      in ANC's #4, #14, #3, ...

........................................................................
.............................. CYCLE   35 ..............................
........................................................................

 iter      E             dE          RMSdq      gap      omega  full diag
   1   -100.6218153 -0.100622E+03  0.979E-02    1.03       0.0  T
   2   -100.6205961  0.121923E-02  0.135E-01    1.07       1.0  T
   3   -100.6221228 -0.152668E-02  0.486E-02    1.03       1.0  T
   4   -100.6214598  0.662916E-03  0.701E-02    1.11       1.0  T
   5   -100.6221139 -0.654097E-03  0.239E-02    1.02       1.0  T
   6   -100.6221798 -0.658396E-04  0.499E-03    1.04       2.4  T
   7   -100.6221815 -0.174778E-05  0.138E-03    1.04       8.5  T
   8   -100.6221815  0.727979E-08  0.773E-04    1.04      15.3  T
   9   -100.6221815 -0.217698E-07  0.293E-04    1.04      40.3  T
     SCC iter.                  ...        0 min,  0.072 sec
     gradient                   ...        0 min,  0.069 sec
 * total energy  :  -100.6747932 Eh     change       -0.3417975E-03 Eh
   gradient norm :     0.0160905 Eh/α   predicted    -0.4387467E-03 (  28.36%)
   displ. norm   :     0.1197622 α      lambda       -0.4819275E-03
   maximum displ.:     0.0456334 α      in ANC's #18, #3, #13, ...

........................................................................
.............................. CYCLE   36 ..............................
........................................................................

 iter      E             dE          RMSdq      gap      omega  full diag
   1   -100.6232629 -0.100623E+03  0.464E-02    1.02       0.0  T
   2   -100.6224767  0.786208E-03  0.931E-02    1.07       1.0  T
   3   -100.6234279 -0.951189E-03  0.232E-02    1.02       1.0  T
   4   -100.6232856  0.142270E-03  0.363E-02    1.07       1.0  T
   5   -100.6234387 -0.153094E-03  0.960E-03    1.03       1.2  T
   6   -100.6234467 -0.798794E-05  0.400E-03    1.04       2.9  T
   7   -100.6234487 -0.201959E-05  0.562E-04    1.03      21.0  T
   8   -100.6234487 -0.674500E-08  0.358E-04    1.03      32.9  T
   9   -100.6234487 -0.926077E-08  0.153E-04    1.03      77.2  T
     SCC iter.                  ...        0 min,  0.072 sec
     gradient                   ...        0 min,  0.075 sec
 * total energy  :  -100.6750456 Eh     change       -0.2524758E-03 Eh
   gradient norm :     0.0104802 Eh/α   predicted    -0.2444228E-03 (  -3.19%)
   displ. norm   :     0.2108468 α      lambda       -0.4150989E-03
   maximum displ.:     0.1179848 α      in ANC's #3, #4, #7, ...

........................................................................
.............................. CYCLE   37 ..............................
........................................................................

 iter      E             dE          RMSdq      gap      omega  full diag
   1   -100.6260059 -0.100626E+03  0.518E-02    1.02       0.0  T
   2   -100.6255947  0.411108E-03  0.773E-02    1.05       1.0  T
   3   -100.6261104 -0.515653E-03  0.253E-02    1.02       1.0  T
   4   -100.6258988  0.211606E-03  0.409E-02    1.07       1.0  T
   5   -100.6260978 -0.199036E-03  0.163E-02    1.01       1.0  T
   6   -100.6261288 -0.310139E-04  0.281E-03    1.03       4.2  T
   7   -100.6261294 -0.513663E-06  0.972E-04    1.03      12.1  T
   8   -100.6261294 -0.180408E-08  0.651E-04    1.03      18.1  T
     SCC iter.                  ...        0 min,  0.064 sec
     gradient                   ...        0 min,  0.069 sec
 * total energy  :  -100.6752301 Eh     change       -0.1844970E-03 Eh
   gradient norm :     0.0091629 Eh/α   predicted    -0.2167795E-03 (  17.50%)
   displ. norm   :     0.2297375 α      lambda       -0.3196199E-03
   maximum displ.:     0.1143703 α      in ANC's #3, #13, #4, ...

........................................................................
.............................. CYCLE   38 ..............................
........................................................................

 iter      E             dE          RMSdq      gap      omega  full diag
   1   -100.6270535 -0.100627E+03  0.445E-02    1.02       0.0  T
   2   -100.6269978  0.557770E-04  0.343E-02    1.04       1.0  T
   3   -100.6266471  0.350628E-03  0.562E-02    0.97       1.0  T
   4   -100.6269888 -0.341715E-03  0.261E-02    1.04       1.0  T
   5   -100.6270630 -0.741613E-04  0.328E-03    1.02       3.6  T
   6   -100.6270639 -0.855834E-06  0.148E-03    1.02       8.0  T
   7   -100.6270641 -0.208745E-06  0.599E-04    1.02      19.7  T
   8   -100.6270641 -0.233065E-08  0.319E-04    1.02      37.0  T
     SCC iter.                  ...        0 min,  0.064 sec
     gradient                   ...        0 min,  0.075 sec
 * total energy  :  -100.6754161 Eh     change       -0.1859529E-03 Eh
   gradient norm :     0.0089377 Eh/α   predicted    -0.1682455E-03 (  -9.52%)
   displ. norm   :     0.3425729 α      lambda       -0.2751155E-03
   maximum displ.:     0.1632229 α      in ANC's #3, #4, #13, ...

........................................................................
.............................. CYCLE   39 ..............................
........................................................................

 iter      E             dE          RMSdq      gap      omega  full diag
   1   -100.6238609 -0.100624E+03  0.673E-02    1.01       0.0  T
   2   -100.6236176  0.243291E-03  0.684E-02    1.03       1.0  T
   3   -100.6238174 -0.199749E-03  0.432E-02    1.01       1.0  T
   4   -100.6238359 -0.185078E-04  0.255E-02    1.04       1.0  T
   5   -100.6239162 -0.802897E-04  0.107E-02    1.01       1.1  T
   6   -100.6239298 -0.136585E-04  0.254E-03    1.02       4.6  T
   7   -100.6239302 -0.397955E-06  0.913E-04    1.02      12.9  T
   8   -100.6239302 -0.234337E-10  0.428E-04    1.02      27.5  T
     SCC iter.                  ...        0 min,  0.064 sec
     gradient                   ...        0 min,  0.069 sec
 * total energy  :  -100.6755795 Eh     change       -0.1634490E-03 Eh
   gradient norm :     0.0101110 Eh/α   predicted    -0.1537049E-03 (  -5.96%)
   displ. norm   :     0.2396367 α      lambda       -0.2915681E-03
   maximum displ.:     0.1545933 α      in ANC's #3, #4, #13, ...

........................................................................
.............................. CYCLE   40 ..............................
........................................................................

 iter      E             dE          RMSdq      gap      omega  full diag
   1   -100.6261408 -0.100626E+03  0.475E-02    1.01       0.0  T
   2   -100.6260923  0.484492E-04  0.367E-02    1.03       1.0  T
   3   -100.6257993  0.293009E-03  0.551E-02    0.97       1.0  T
   4   -100.6260508 -0.251545E-03  0.274E-02    1.04       1.0  T
   5   -100.6261507 -0.999003E-04  0.246E-03    1.01       4.8  T
   6   -100.6261512 -0.448809E-06  0.129E-03    1.02       9.1  T
   7   -100.6261513 -0.115810E-06  0.573E-04    1.02      20.6  T
   8   -100.6261513 -0.315991E-08  0.237E-04    1.02      49.7  T
     SCC iter.                  ...        0 min,  0.064 sec
     gradient                   ...        0 min,  0.069 sec
 * total energy  :  -100.6757725 Eh     change       -0.1930044E-03 Eh
   gradient norm :     0.0090719 Eh/α   predicted    -0.1541572E-03 ( -20.13%)
   displ. norm   :     0.4057741 α      lambda       -0.3742564E-03
   maximum displ.:     0.2426280 α      in ANC's #3, #13, #4, ...

........................................................................
.............................. CYCLE   41 ..............................
........................................................................

 iter      E             dE          RMSdq      gap      omega  full diag
   1   -100.6259086 -0.100626E+03  0.859E-02    1.00       0.0  T
   2   -100.6257713  0.137254E-03  0.647E-02    1.04       1.0  T
   3   -100.6245725  0.119884E-02  0.107E-01    0.92       1.0  T
   4   -100.6256474 -0.107494E-02  0.465E-02    1.04       1.0  T
   5   -100.6259333 -0.285832E-03  0.384E-03    1.01       3.1  T
   6   -100.6259343 -0.989816E-06  0.204E-03    1.01       5.8  T
   7   -100.6259345 -0.227823E-06  0.914E-04    1.01      12.9  T
   8   -100.6259345 -0.258973E-08  0.398E-04    1.01      29.6  T
     SCC iter.                  ...        0 min,  0.064 sec
     gradient                   ...        0 min,  0.069 sec
 * total energy  :  -100.6760101 Eh     change       -0.2375861E-03 Eh
   gradient norm :     0.0086382 Eh/α   predicted    -0.2179431E-03 (  -8.27%)
   displ. norm   :     0.3302954 α      lambda       -0.3015827E-03
   maximum displ.:     0.2261439 α      in ANC's #3, #4, #13, ...

........................................................................
.............................. CYCLE   42 ..............................
........................................................................

 iter      E             dE          RMSdq      gap      omega  full diag
   1   -100.6273952 -0.100627E+03  0.630E-02    1.01       0.0  T
   2   -100.6273746  0.205876E-04  0.399E-02    1.02       1.0  T
   3   -100.6261715  0.120311E-02  0.923E-02    0.92       1.0  T
   4   -100.6273940 -0.122248E-02  0.857E-03    1.01       1.4  T
   5   -100.6273994 -0.538979E-05  0.316E-03    1.01       3.7  T
   6   -100.6273999 -0.448048E-06  0.218E-03    1.01       5.4  T
   7   -100.6274002 -0.352525E-06  0.894E-04    1.01      13.2  T
   8   -100.6274002 -0.210505E-07  0.318E-04    1.01      37.1  T
     SCC iter.                  ...        0 min,  0.064 sec
     gradient                   ...        0 min,  0.075 sec
 * total energy  :  -100.6762303 Eh     change       -0.2201919E-03 Eh
   gradient norm :     0.0071661 Eh/α   predicted    -0.1672462E-03 ( -24.05%)
   displ. norm   :     0.5328425 α      lambda       -0.3831486E-03
   maximum displ.:     0.3619730 α      in ANC's #3, #4, #13, ...
 * RMSD in coord.:     0.7184288 α      energy gain  -0.1414953E+00 Eh

generating ANC from model Hessian ...
Using Lindh-Hessian (1995)
 Shifting diagonal of input Hessian by    9.9642518679902495E-003
 Lowest  eigenvalues of input Hessian
    0.000000    0.000000    0.000000    0.000000    0.000000    0.000000
    0.010000    0.010082    0.010198    0.010310    0.010420    0.010504
    0.010709    0.010856    0.011011    0.011199    0.011489    0.012417
 Highest eigenvalues
    1.984554    2.041675    2.042242    2.101796    2.156229    2.179657


........................................................................
.............................. CYCLE   43 ..............................
........................................................................

 iter      E             dE          RMSdq      gap      omega  full diag
   1   -100.6248188 -0.100625E+03  0.102E-01    1.00       0.0  T
   2   -100.6245270  0.291802E-03  0.880E-02    1.02       1.0  T
   3   -100.6244160  0.110940E-03  0.790E-02    0.98       1.0  T
   4   -100.6247542 -0.338167E-03  0.334E-02    1.03       1.0  T
   5   -100.6248792 -0.125044E-03  0.145E-02    0.99       1.0  T
   6   -100.6249064 -0.271380E-04  0.366E-03    1.00       3.2  T
   7   -100.6249072 -0.862070E-06  0.137E-03    1.00       8.6  T
   8   -100.6249073 -0.238664E-07  0.688E-04    1.00      17.1  T
   9   -100.6249073 -0.443697E-07  0.225E-04    1.00      52.4  T
     SCC iter.                  ...        0 min,  0.072 sec
     gradient                   ...        0 min,  0.070 sec
 * total energy  :  -100.6764982 Eh     change       -0.2678615E-03 Eh
   gradient norm :     0.0108691 Eh/α   predicted     0.0000000E+00 (-100.00%)
   displ. norm   :     0.0899803 α      lambda       -0.2721749E-03
   maximum displ.:     0.0398541 α      in ANC's #5, #17, #7, ...

........................................................................
.............................. CYCLE   44 ..............................
........................................................................

 iter      E             dE          RMSdq      gap      omega  full diag
   1   -100.6269231 -0.100627E+03  0.279E-02    1.02       0.0  T
   2   -100.6267124  0.210605E-03  0.481E-02    0.97       1.0  T
   3   -100.6269346 -0.222153E-03  0.168E-02    1.02       1.0  T
   4   -100.6268700  0.645680E-04  0.257E-02    0.99       1.0  T
   5   -100.6269556 -0.855338E-04  0.211E-03    1.01       5.6  T
   6   -100.6269558 -0.241043E-06  0.871E-04    1.01      13.5  T
   7   -100.6269559 -0.484532E-07  0.421E-04    1.01      28.0  T
     SCC iter.                  ...        0 min,  0.056 sec
     gradient                   ...        0 min,  0.069 sec
 * total energy  :  -100.6767104 Eh     change       -0.2122513E-03 Eh
   gradient norm :     0.0052270 Eh/α   predicted    -0.1371898E-03 ( -35.36%)
   displ. norm   :     0.2338768 α      lambda       -0.3580678E-03
   maximum displ.:     0.1129535 α      in ANC's #5, #17, #7, ...

........................................................................
.............................. CYCLE   45 ..............................
........................................................................

 iter      E             dE          RMSdq      gap      omega  full diag
   1   -100.6288489 -0.100629E+03  0.516E-02    1.03       0.0  T
   2   -100.6283381  0.510763E-03  0.749E-02    0.96       1.0  T
   3   -100.6288062 -0.468109E-03  0.366E-02    1.05       1.0  T
   4   -100.6286254  0.180821E-03  0.480E-02    0.98       1.0  T
   5   -100.6289210 -0.295530E-03  0.313E-03    1.02       3.8  T
   6   -100.6289215 -0.536407E-06  0.130E-03    1.02       9.0  T
   7   -100.6289216 -0.108287E-06  0.677E-04    1.02      17.4  T
   8   -100.6289216 -0.172255E-07  0.272E-04    1.02      43.3  T
     SCC iter.                  ...        0 min,  0.064 sec
     gradient                   ...        0 min,  0.069 sec
 * total energy  :  -100.6769609 Eh     change       -0.2504644E-03 Eh
   gradient norm :     0.0083877 Eh/α   predicted    -0.1888310E-03 ( -24.61%)
   displ. norm   :     0.3519285 α      lambda       -0.3621984E-03
   maximum displ.:     0.1763336 α      in ANC's #5, #17, #7, ...

........................................................................
.............................. CYCLE   46 ..............................
........................................................................

 iter      E             dE          RMSdq      gap      omega  full diag
   1   -100.6286061 -0.100629E+03  0.636E-02    1.04       0.0  T
   2   -100.6281970  0.409119E-03  0.690E-02    0.97       1.0  T
   3   -100.6282466 -0.496422E-04  0.615E-02    1.08       1.0  T
   4   -100.6284216 -0.174980E-03  0.438E-02    1.00       1.0  T
   5   -100.6286536 -0.232034E-03  0.241E-03    1.03       4.9  T
   6   -100.6286539 -0.295357E-06  0.116E-03    1.03      10.1  T
   7   -100.6286540 -0.708039E-07  0.653E-04    1.03      18.0  T
   8   -100.6286540 -0.146513E-07  0.223E-04    1.03      53.0  T
     SCC iter.                  ...        0 min,  0.064 sec
     gradient                   ...        0 min,  0.075 sec
 * total energy  :  -100.6772357 Eh     change       -0.2748109E-03 Eh
   gradient norm :     0.0155862 Eh/α   predicted    -0.2035310E-03 ( -25.94%)
   displ. norm   :     0.5530705 α      lambda       -0.5354768E-03
   maximum displ.:     0.2815861 α      in ANC's #5, #17, #7, ...

........................................................................
.............................. CYCLE   47 ..............................
........................................................................

 iter      E             dE          RMSdq      gap      omega  full diag
   1   -100.6251521 -0.100625E+03  0.919E-02    1.06       0.0  T
   2   -100.6246466  0.505435E-03  0.807E-02    0.98       1.0  T
   3   -100.6235044  0.114221E-02  0.116E-01    1.15       1.0  T
   4   -100.6251801 -0.167571E-02  0.148E-02    1.04       1.0  T
   5   -100.6251979 -0.177914E-04  0.543E-03    1.04       2.2  T
   6   -100.6252011 -0.320035E-05  0.147E-03    1.04       8.0  T
   7   -100.6252012 -0.382779E-07  0.796E-04    1.04      14.8  T
   8   -100.6252012 -0.225304E-07  0.236E-04    1.04      49.9  T
     SCC iter.                  ...        0 min,  0.063 sec
     gradient                   ...        0 min,  0.075 sec
 * total energy  :  -100.6776428 Eh     change       -0.4070871E-03 Eh
   gradient norm :     0.0163498 Eh/α   predicted    -0.3497959E-03 ( -14.07%)
   displ. norm   :     0.4150909 α      lambda       -0.5423348E-03
   maximum displ.:     0.2342113 α      in ANC's #5, #17, #7, ...

........................................................................
.............................. CYCLE   48 ..............................
........................................................................

 iter      E             dE          RMSdq      gap      omega  full diag
   1   -100.6238539 -0.100624E+03  0.622E-02    1.04       0.0  T
   2   -100.6237537  0.100162E-03  0.495E-02    1.02       1.0  T
   3   -100.6233954  0.358351E-03  0.639E-02    1.08       1.0  T
   4   -100.6236344 -0.239024E-03  0.433E-02    1.00       1.0  T
   5   -100.6238752 -0.240841E-03  0.448E-03    1.04       2.6  T
   6   -100.6238772 -0.199926E-05  0.158E-03    1.04       7.4  T
   7   -100.6238774 -0.149073E-06  0.773E-04    1.04      15.2  T
   8   -100.6238774 -0.270191E-07  0.260E-04    1.04      45.3  T
     SCC iter.                  ...        0 min,  0.063 sec
     gradient                   ...        0 min,  0.075 sec
 * total energy  :  -100.6780913 Eh     change       -0.4485338E-03 Eh
   gradient norm :     0.0145405 Eh/α   predicted    -0.3178980E-03 ( -29.13%)
   displ. norm   :     0.4312104 α      lambda       -0.1093909E-02
   maximum displ.:     0.2688332 α      in ANC's #5, #7, #23, ...

........................................................................
.............................. CYCLE   49 ..............................
........................................................................

 iter      E             dE          RMSdq      gap      omega  full diag
   1   -100.6285387 -0.100629E+03  0.790E-02    1.02       0.0  T
   2   -100.6281131  0.425588E-03  0.899E-02    1.07       1.0  T
   3   -100.6285367 -0.423594E-03  0.457E-02    1.01       1.0  T
   4   -100.6278831  0.653607E-03  0.738E-02    1.09       1.0  T
   5   -100.6286564 -0.773275E-03  0.676E-03    1.03       1.7  T
[...]
         ::                     SUMMARY                     ::
         :::::::::::::::::::::::::::::::::::::::::::::::::::::
         :: total energy            -100.803334237819 Eh    ::
         :: gradient norm              0.002949876114 Eh/a0 ::
         :: HOMO-LUMO gap              1.652758336335 eV    ::
         ::.................................................::
         :: SCC energy              -100.781501218982 Eh    ::
         :: -> isotropic ES            0.112376899212 Eh    ::
         :: -> anisotropic ES          0.002517366032 Eh    ::
         :: -> anisotropic XC          0.043529064521 Eh    ::
         :: -> dispersion             -0.076541899698 Eh    ::
         :: repulsion energy           1.510818193659 Eh    ::
         :: add. restraining          -1.534167218134 Eh    ::
         :: total charge               1.000000000274 e     ::
         :::::::::::::::::::::::::::::::::::::::::::::::::::::

           -------------------------------------------------
          |                Property Printout                |
           -------------------------------------------------

    * Orbital Energies and Occupations

         #    Occupation            Energy/Eh            Energy/eV
      -------------------------------------------------------------
         1        2.0000           -0.8538711             -23.2350
       ...           ...                  ...                  ...
        78        1.9986           -0.5300141             -14.4224
        79        1.9984           -0.5271025             -14.3432
        80        1.9983           -0.5262102             -14.3189
        81        1.9976           -0.5208577             -14.1733
        82        1.9975           -0.5200698             -14.1518
        83        1.9960           -0.5130527             -13.9609
        84        1.9953           -0.5102379             -13.8843
        85        1.9944           -0.5076586             -13.8141
        86        1.9819           -0.4888965             -13.3036
        87        1.9396           -0.4694600             -12.7747
        88        1.9385           -0.4691505             -12.7662
        89        1.8792           -0.4579755             -12.4621
        90        1.8307           -0.4522193             -12.3055 (HOMO)
        91        0.3784           -0.3914815             -10.6528 (LUMO)
        92        0.0612           -0.3598050              -9.7908
        93        0.0150           -0.3371546              -9.1744
        94        0.0037           -0.3149778              -8.5710
        95        0.0031           -0.3120494              -8.4913
        96        0.0000           -0.2322524              -6.3199
        97        0.0000           -0.2212730              -6.0211
        98        0.0000           -0.1892747              -5.1504
        99                         -0.1305247              -3.5518
       100                         -0.1037840              -2.8241
       101                         -0.0879047              -2.3920
       ...                                ...                  ...
       171                          1.2976099              35.3098
      -------------------------------------------------------------
                  HL-Gap            0.0607378 Eh            1.6528 eV
             Fermi-level           -0.4145237 Eh          -11.2798 eV

     #   Z          covCN         q      C6AA      α(0)
     1   7 N        1.774    -0.271    27.851     7.815
     2   6 C        2.826     0.102    25.740     8.313
     3   6 C        3.907     0.006    20.415     6.422
     4   6 C        2.974     0.002    27.967     8.675
     5   6 C        2.921    -0.081    30.016     8.984
     6   6 C        2.862     0.129    25.168     8.223
     7   8 O        1.706    -0.231    17.827     5.701
     8   6 C        3.644     0.028    20.444     6.499
     9   6 C        2.864     0.128    25.190     8.227
    10   8 O        1.706    -0.230    17.809     5.698
    11   6 C        3.645     0.027    20.450     6.499
    12   6 C        2.914    -0.075    29.867     8.962
    13   6 C        2.921    -0.054    29.342     8.883
    14   6 C        3.812    -0.065    21.733     6.636
    15   6 C        3.802    -0.069    21.822     6.651
    16   6 C        2.842     0.008    27.835     8.646
    17   7 N        2.729     0.018    20.933     6.795
    18   6 C        3.756    -0.021    21.005     6.535
    19   6 C        3.804    -0.069    21.824     6.651
    20   6 C        3.056    -0.010    28.221     8.712
    21   6 C        3.021    -0.050    29.216     8.866
    22   6 C        3.037    -0.041    28.991     8.831
    23   6 C        2.991    -0.082    30.041     8.991
    24   8 O        1.705    -0.242    18.009     5.730
    25   6 C        3.647     0.024    20.496     6.505
    26   6 C        2.732     0.283    22.213     7.716
    27   8 O        1.704    -0.235    17.900     5.712
    28   6 C        3.637     0.019    20.626     6.534
    29   6 C        3.086    -0.063    29.452     8.896
    30   6 C        3.701    -0.072    22.050     6.715
    31   6 C        3.853    -0.007    20.665     6.466
    32   6 C        3.756    -0.119    22.838     6.814
    33   6 C        3.755    -0.118    22.810     6.810
    34   1 H        0.926     0.052     2.293     2.368
    35   1 H        0.924     0.054     2.276     2.359
    36   1 H        0.925     0.081     1.971     2.195
    37   1 H        0.924     0.047     2.364     2.404
    38   1 H        0.924     0.055     2.263     2.353
    39   1 H        0.925     0.081     1.973     2.196
    40   1 H        0.924     0.047     2.360     2.402
    41   1 H        0.926     0.051     2.307     2.375
    42   1 H        0.926     0.039     2.457     2.451
    43   1 H        0.925     0.059     2.206     2.322
    44   1 H        0.924     0.053     2.280     2.361
    45   1 H        0.925     0.065     2.138     2.287
    46   1 H        0.924     0.080     1.977     2.199
    47   1 H        0.922     0.003     3.012     2.714
    48   1 H        0.926     0.070     2.090     2.261
    49   1 H        0.924     0.075     2.033     2.230
    50   1 H        0.924     0.069     2.096     2.264
    51   1 H        0.924     0.054     2.272     2.357
    52   1 H        0.925     0.060     2.202     2.320
    53   1 H        0.926     0.035     2.522     2.484
    54   1 H        0.926     0.042     2.424     2.435
    55   1 H        0.924     0.071     2.076     2.253
    56   1 H        0.924     0.072     2.060     2.245
    57   1 H        0.925     0.072     2.066     2.248
    58   1 H        0.925     0.088     1.897     2.154
    59   1 H        0.924     0.071     2.072     2.251
    60   1 H        0.924     0.070     2.081     2.256
    61   1 H        0.930     0.082     1.954     2.186
    62   1 H        0.924     0.076     2.016     2.220
    63   1 H        0.924     0.080     1.975     2.198
    64   1 H        0.925     0.080     1.977     2.199
    65   1 H        0.924     0.037     2.494     2.470
    66   1 H        0.925     0.070     2.086     2.259
    67   1 H        0.925     0.036     2.509     2.477
    68   1 H        0.925     0.051     2.308     2.376
    69   1 H        0.925     0.059     2.208     2.323
    70   1 H        0.925     0.034     2.527     2.486
    71   1 H        0.925     0.054     2.271     2.357
    72   1 H        0.860     0.155     1.364     1.830

 Mol. C6AA /au·bohr⁶  :      47407.232991
 Mol. C8AA /au·bohr⁸  :    1081677.241695
 Mol. α(0) /au        :        334.237474


Wiberg/Mayer (AO) data.
largest (>0.10) Wiberg bond orders for each atom

 ---------------------------------------------------------------------------
     #   Z sym  total        # sym  WBO       # sym  WBO       # sym  WBO
 ---------------------------------------------------------------------------
     1   7 N    3.032 --     2 C    1.956    72 H    0.943
     2   6 C    3.932 --     1 N    1.956     3 C    0.995    47 H    0.910
     3   6 C    3.976 --     2 C    0.995     4 C    0.969    14 C    0.960
                            31 C    0.940
     4   6 C    3.951 --    13 C    1.414     5 C    1.367     3 C    0.969
     5   6 C    3.963 --     6 C    1.402     4 C    1.367    34 H    0.958
     6   6 C    3.907 --     5 C    1.402     9 C    1.223     7 O    1.098
     7   8 O    2.255 --     6 C    1.098     8 C    0.978
     8   6 C    3.933 --     7 O    0.978    36 H    0.977    37 H    0.974
                            35 H    0.974
     9   6 C    3.903 --    12 C    1.394     6 C    1.223    10 O    1.100
    10   8 O    2.252 --     9 C    1.100    11 C    0.978
    11   6 C    3.932 --    10 O    0.978    39 H    0.977    40 H    0.974
                            38 H    0.974
    12   6 C    3.963 --    13 C    1.401     9 C    1.394    41 H    0.964
    13   6 C    3.956 --     4 C    1.414    12 C    1.401    42 H    0.963
    14   6 C    3.971 --    15 C    0.978    44 H    0.972    43 H    0.969
                             3 C    0.960
    15   6 C    3.986 --    16 C    1.059    14 C    0.978    45 H    0.962
                            46 H    0.929
    16   6 C    3.605 --    17 N    1.421    15 C    1.059    48 H    0.957
    17   7 N    3.492 --    16 C    1.421    30 C    0.998    18 C    0.986
    18   6 C    3.947 --    17 N    0.986    50 H    0.969    19 C    0.962
                            49 H    0.957
    19   6 C    3.976 --    20 C    1.021    51 H    0.972    52 H    0.964
                            18 C    0.962
    20   6 C    3.861 --    21 C    1.536    29 C    1.141    19 C    1.021
    21   6 C    3.907 --    20 C    1.536    22 C    1.253    53 H    0.972
    22   6 C    3.903 --    23 C    1.560    21 C    1.253    54 H    0.972
    23   6 C    3.858 --    22 C    1.560    29 C    1.162    61 H    0.979
    24   8 O    2.281 --    26 C    1.114    25 C    0.957
    25   6 C    3.919 --    57 H    0.979    55 H    0.974    56 H    0.974
                            24 O    0.957
    26   6 C    3.840 --    29 C    1.396    27 O    1.139    24 O    1.114
    27   8 O    2.309 --    26 C    1.139    28 C    0.956
    28   6 C    3.912 --    58 H    0.976    59 H    0.973    60 H    0.972
                            27 O    0.956
    29   6 C    3.921 --    26 C    1.396    23 C    1.162    20 C    1.141
    30   6 C    3.957 --    17 N    0.998    64 H    0.976    62 H    0.964
                            63 H    0.960
    31   6 C    3.973 --    33 C    1.009    32 C    1.008    65 H    0.961
                             3 C    0.940
    32   6 C    3.979 --    31 C    1.008    67 H    0.982    68 H    0.981
                            66 H    0.974
    33   6 C    3.984 --    31 C    1.009    70 H    0.983    71 H    0.980
                            69 H    0.977
    34   1 H    0.996 --     5 C    0.958
    35   1 H    0.994 --     8 C    0.974
    36   1 H    0.993 --     8 C    0.977
    37   1 H    0.994 --     8 C    0.974
    38   1 H    0.993 --    11 C    0.974
    39   1 H    0.993 --    11 C    0.977
    40   1 H    0.994 --    11 C    0.974
    41   1 H    0.996 --    12 C    0.964
    42   1 H    0.998 --    13 C    0.963
    43   1 H    0.995 --    14 C    0.969
    44   1 H    0.996 --    14 C    0.972
    45   1 H    0.996 --    15 C    0.962
    46   1 H    0.971 --    15 C    0.929
    47   1 H    0.987 --     2 C    0.910
    48   1 H    0.995 --    16 C    0.957
    49   1 H    0.987 --    18 C    0.957
    50   1 H    0.995 --    18 C    0.969
    51   1 H    0.996 --    19 C    0.972
    52   1 H    0.993 --    19 C    0.964
    53   1 H    0.998 --    21 C    0.972
    54   1 H    0.996 --    22 C    0.972
    55   1 H    0.992 --    25 C    0.974
    56   1 H    0.992 --    25 C    0.974
    57   1 H    0.994 --    25 C    0.979
    58   1 H    0.992 --    28 C    0.976
    59   1 H    0.994 --    28 C    0.973
    60   1 H    0.993 --    28 C    0.972
    61   1 H    0.993 --    23 C    0.979
    62   1 H    0.984 --    30 C    0.964
    63   1 H    0.989 --    30 C    0.960
    64   1 H    0.992 --    30 C    0.976
    65   1 H    0.993 --    31 C    0.961
    66   1 H    0.991 --    32 C    0.974
    67   1 H    0.997 --    32 C    0.982
    68   1 H    0.994 --    32 C    0.981
    69   1 H    0.994 --    33 C    0.977
    70   1 H    0.997 --    33 C    0.983
    71   1 H    0.994 --    33 C    0.980
    72   1 H    0.971 --     1 N    0.943
 ---------------------------------------------------------------------------

Topologies differ in total number of bonds
Writing topology from bond orders to xtbtopo.mol

molecular dipole:
                 x           y           z       tot (Debye)
 q only:        1.484      -0.542       0.061
   full:        1.985      -0.632      -0.033       5.296
molecular quadrupole (traceless):
                xx          xy          yy          xz          yz          zz
 q only:       54.434     -16.423     -25.200      16.940     -14.493     -29.234
  q+dip:       53.360     -13.601     -27.404      22.705     -18.286     -25.956
   full:       53.519     -14.673     -26.940      20.814     -17.813     -26.579

           -------------------------------------------------
          |                Geometry Summary                 |
           -------------------------------------------------

      molecular mass/u    :      455.6105846
   center of mass at/Å    :       -0.0658475       0.0022277      -0.0354598
  moments of inertia/u·Å² :        0.2662497E+04   0.9120615E+04   0.1000386E+05
rotational constants/cm⁻¹ :        0.6331512E-02   0.1848300E-02   0.1685112E-02

 * 63 selected distances

     #   Z          #   Z                                           value/Å
     1   7 N        2   6 C                                       1.2495031
     4   6 C        5   6 C                                       1.3965921
     5   6 C        6   6 C                                       1.3844332
     6   6 C        7   8 O                                       1.3493998
     7   8 O        8   6 C                                       1.4081015
     6   6 C        9   6 C                                       1.4209492
     9   6 C       10   8 O                                       1.3485634
    10   8 O       11   6 C                                       1.4081946
     9   6 C       12   6 C                                       1.3854145
     4   6 C       13   6 C                                       1.3860830
    12   6 C       13   6 C                                       1.3899362
    15   6 C       16   6 C                                       1.4803567
    16   6 C       17   7 N                                       1.3238398
    17   7 N       18   6 C                                       1.4442058
    19   6 C       20   6 C                                       1.4903407
    20   6 C       21   6 C                                       1.3710986
    21   6 C       22   6 C                                       1.4151472
    22   6 C       23   6 C                                       1.3769283
    24   8 O       25   6 C                                       1.4209281
    24   8 O       26   6 C                                       1.3411890
    26   6 C       27   8 O                                       1.3315828
    27   8 O       28   6 C                                       1.4132595
    26   6 C       29   6 C                                       1.3782696
    17   7 N       30   6 C                                       1.4430727
    31   6 C       32   6 C                                       1.5269720 (max)
    31   6 C       33   6 C                                       1.5260686
     5   6 C       34   1 H                                       1.0770852
     8   6 C       35   1 H                                       1.0941070
     8   6 C       36   1 H                                       1.0882123
     8   6 C       37   1 H                                       1.0951304
    11   6 C       38   1 H                                       1.0939979
    11   6 C       39   1 H                                       1.0882304
    11   6 C       40   1 H                                       1.0948390
    12   6 C       41   1 H                                       1.0778494
    13   6 C       42   1 H                                       1.0791088
    14   6 C       43   1 H                                       1.0892788
    14   6 C       44   1 H                                       1.0907344
    15   6 C       45   1 H                                       1.0883607
    15   6 C       46   1 H                                       1.0975043
    16   6 C       48   1 H                                       1.0804840
    18   6 C       49   1 H                                       1.0924706
    18   6 C       50   1 H                                       1.0908783
    19   6 C       51   1 H                                       1.0926549
    19   6 C       52   1 H                                       1.0901116
    21   6 C       53   1 H                                       1.0741421
    22   6 C       54   1 H                                       1.0744838
    25   6 C       55   1 H                                       1.0929852
    25   6 C       56   1 H                                       1.0905152
    25   6 C       57   1 H                                       1.0896096
    28   6 C       58   1 H                                       1.0886790
    28   6 C       59   1 H                                       1.0906945
    28   6 C       60   1 H                                       1.0910893
    23   6 C       61   1 H                                       0.7820823 (min)
    30   6 C       62   1 H                                       1.0928623
    30   6 C       63   1 H                                       1.0920088
    30   6 C       64   1 H                                       1.0877707
    31   6 C       65   1 H                                       1.0962571
    32   6 C       66   1 H                                       1.0850979
    32   6 C       67   1 H                                       1.0872331
    32   6 C       68   1 H                                       1.0868016
    33   6 C       69   1 H                                       1.0857360
    33   6 C       70   1 H                                       1.0868053
    33   6 C       71   1 H                                       1.0868432

 * 4 distinct bonds (by element types)

   Z      Z             #   av. dist./Å        max./Å        min./Å
   1 H    6 C          37     1.0800739     1.0975043     0.7820823
   6 C    6 C          14     1.4234707     1.5269720     1.3710986
   6 C    7 N           4     1.3651554     1.4442058     1.2495031
   6 C    8 O           8     1.3776523     1.4209281     1.3315828


optimized geometry written to: xtbopt.xyz


           -------------------------------------------------
          | TOTAL ENERGY             -100.803334237819 Eh   |
          | GRADIENT NORM               0.002949876114 Eh/α |
          | HOMO-LUMO GAP               1.652758336335 eV   |
           -------------------------------------------------

------------------------------------------------------------------------
 * finished run on 2024/04/06 at 11:17:27.038     
------------------------------------------------------------------------
 total:
 * wall-time:     0 d,  0 h,  0 min, 26.013 sec
 *  cpu-time:     0 d,  0 h,  0 min, 25.988 sec
 * ratio c/w:     0.999 speedup
 SCF:
 * wall-time:     0 d,  0 h,  0 min,  0.192 sec
 *  cpu-time:     0 d,  0 h,  0 min,  0.191 sec
 * ratio c/w:     0.994 speedup
 ANC optimizer:
 * wall-time:     0 d,  0 h,  0 min, 25.780 sec
 *  cpu-time:     0 d,  0 h,  0 min, 25.773 sec
 * ratio c/w:     1.000 speedup

