72
 energy: -99.269167019786 gnorm: 0.784979023587 xtb: 6.6.1 (8d0f1dd)
N           -1.58985758482048        3.19303913828282        2.10738428958051
C           -1.55126054431868        2.46697074837607        1.09121856929235
C           -2.74175010194217        2.14315480656831        0.22991599931817
C           -3.15841220256830        0.69648209752909        0.44746299660736
C           -4.06453918808751        0.09936509950572       -0.43165825585601
C           -4.47835834061901       -1.21127414443715       -0.26542540245197
O           -5.34208788302343       -1.86341673043832       -1.07137880570606
C           -5.94534692477013       -1.17123705441966       -2.13895326393973
C           -3.97483390078372       -1.97090328506923        0.82476860903559
O           -4.42540431087705       -3.23951266132801        0.90375877592837
C           -4.03249959222203       -4.03911998533755        1.99429331326473
C           -3.08596120509439       -1.36896357911913        1.70052361071375
C           -2.68217784105548       -0.05237265338323        1.51218977913958
C           -2.27794707218470        2.34900143300752       -1.23557620132358
C           -1.35337436789254        1.24250041204242       -1.78015729979436
C            0.04598165587743        1.33436979198080       -1.30600712175233
N            0.76406574323759        0.34342684517739       -0.80109241644421
C            2.19785522935954        0.45386375819516       -0.66774527060889
C            2.91948236673197       -0.56248542673058       -1.57714924317691
C            4.35728980396591       -0.21171058117558       -1.75259652448124
C            4.87302065656950        0.40231708810390       -2.86475782882170
C            6.27012750533291        0.55693361831674       -2.70096714434563
C            6.66484896478658        0.03257203759464       -1.49052463120304
O            4.14888921791185       -1.36269725377787        0.87539396889412
C            4.07124572329861       -2.01055430259561        2.13764948652522
C            5.36554078511698       -1.09103203328607        0.38067727608292
O            6.33564422761375       -1.48539992601821        1.20316478762808
C            7.70822646335796       -1.42131488132367        0.87269058640741
C            5.46167839450724       -0.47305339318236       -0.84752738067224
C            0.18141404627895       -0.92197676842964       -0.42462302430924
C           -3.97733846842169        3.04723441664152        0.52392263299625
C           -4.54678395775363        2.78825831002920        1.91687137830548
C           -3.68309249172848        4.53543760440651        0.35792409802415
H           -4.46078487828262        0.67358537619004       -1.25225122547847
H           -6.52014239834754       -0.30987284716152       -1.78577941496619
H           -6.61980673925779       -1.88625260395379       -2.60592484209133
H           -5.20446656591113       -0.84153545383690       -2.87495842565780
H           -4.33902469642649       -3.59664395173605        2.94670526973563
H           -4.54305175012495       -4.99036863982224        1.85751692232198
H           -2.95058568382098       -4.20675098328782        2.00014611116907
H           -2.70329485711238       -1.91446703039280        2.54772582471177
H           -2.00918840798720        0.39154937630303        2.22947221363556
H           -3.15747809307218        2.40071087654767       -1.87610672752466
H           -1.76331981748386        3.30779228899347       -1.31027633552147
H           -1.78606792082351        0.26459731429493       -1.57764628872317
H           -1.32146943702450        1.37551638432200       -2.86910374080825
H           -0.62200823637603        2.01543963220053        0.69587616639422
H            0.57624502856066        2.25186424404434       -1.51688636642421
H            2.48686463635727        0.27478180765623        0.37047199000219
H            2.50700081119343        1.46148938962667       -0.94905434272027
H            2.44266929080935       -0.54270018817309       -2.56007971970033
H            2.82326303736185       -1.56497810943363       -1.15990425207108
H            4.31470764550427        0.70671998028899       -3.73044051726962
H            6.92530839677310        1.01551260061508       -3.41857331610159
H            4.52776803090260       -1.39961345608990        2.92056393820123
H            4.56203918418576       -2.98396650359244        2.10912634642120
H            3.00763205597604       -2.13773733496798        2.33714709234975
H            8.21280957868622       -1.99742967875841        1.64645377510214
H            7.90292209820690       -1.86685604583276       -0.10362953822251
H            8.06724137561651       -0.39127562338982        0.89724823624121
H            7.39270564463375        0.03021595138871       -1.20439231644415
H            0.00497460436085       -1.55442437254633       -1.29825159725729
H           -0.76612932733654       -0.76838151370019        0.09600446363955
H            0.86727423321102       -1.43881063949855        0.24300223914229
H           -4.74362609790246        2.76846599704834       -0.20879202383474
H           -3.81288564247518        3.04796703691856        2.67276948470839
H           -4.82836816570623        1.74536919142554        2.04003069566148
H           -5.43168204032259        3.40110307367092        2.06691863229104
H           -2.91735738192481        4.84932898497257        1.06073590811915
H           -3.36370088318449        4.77728507163263       -0.65234533361832
H           -4.58660135355571        5.10261990772253        0.56577940489131
H           -0.71815448673155        3.36638746710052        2.59829610939841
72
 energy: -99.374790474531 gnorm: 0.033107926858 xtb: 6.6.1 (8d0f1dd)
N           -1.58982624648943        3.19308579579739        2.10733087169776
C           -1.55129253507231        2.46685593157005        1.09128183001877
C           -2.74172944133824        2.14316276091830        0.22989937389044
C           -3.15839260152241        0.69648974705361        0.44742625692613
C           -4.06452859131596        0.09936333188384       -0.43165686661770
C           -4.47835523906796       -1.21128515779076       -0.26540601994859
O           -5.34215307568220       -1.86342135396414       -1.07128891255991
C           -5.94538048023197       -1.17126242229008       -2.13889865952866
C           -3.97482593997492       -1.97089815384677        0.82480743750428
O           -4.42541789825757       -3.23949311565658        0.90382082926749
C           -4.03250938198780       -4.03909834650157        1.99434702751990
C           -3.08595301583635       -1.36894742419162        1.70053631175872
C           -2.68216244992103       -0.05235068401072        1.51217546547860
C           -2.27794137870049        2.34901313554202       -1.23561943141574
C           -1.35338667265280        1.24251631775344       -1.78016236327552
C            0.04583429230445        1.33437693635904       -1.30595566259406
N            0.76370031299442        0.34345412433367       -0.80080049290932
C            2.19712484098311        0.45409965123398       -0.66747977509664
C            2.91438481078592       -0.56340402343087       -1.57769772255737
C            4.34564212760042       -0.21159922605106       -1.75710701296924
C            4.85979891730585        0.40384096399470       -2.87163548016982
C            6.24917792161048        0.56079217779861       -2.71622551785206
C            6.59624393856745        0.03215731118003       -1.51821722100371
O            4.14684290956030       -1.36345688841394        0.87699594606674
C            4.07064188307754       -2.01114989082190        2.13850946575718
C            5.36117666612391       -1.09134853740904        0.37996362947763
O            6.33478167201332       -1.48394015450100        1.20127187142499
C            7.70790114630055       -1.42096035921195        0.87209469203255
C            5.43854219566728       -0.47622973705554       -0.85089882361574
C            0.18133352735007       -0.92198595941985       -0.42463011782825
C           -3.97732262819352        3.04722661036478        0.52388902989135
C           -4.54676077109424        2.78825470724633        1.91683322918429
C           -3.68308373763927        4.53542930659115        0.35788163006535
H           -4.46077404650596        0.67357566327675       -1.25225658314795
H           -6.52019530526568       -0.30990358095340       -1.78573293136543
H           -6.61983130631192       -1.88626678704991       -2.60586110366220
H           -5.20452798286005       -0.84155388651008       -2.87488976369383
H           -4.33900399083296       -3.59661892247878        2.94675602663992
H           -4.54307673947371       -4.99032709271888        1.85758685459512
H           -2.95059691556771       -4.20674703148391        2.00018955058214
H           -2.70328049950487       -1.91444582652466        2.54774177859941
H           -2.00917585345184        0.39156576392692        2.22944903418806
H           -3.15745123757114        2.40064258834405       -1.87616382671618
H           -1.76332675132908        3.30778299484181       -1.31031517338071
H           -1.78609046838769        0.26459742184660       -1.57765802487936
H           -1.32137189349328        1.37550661288513       -2.86912033628355
H           -0.62201720543592        2.01542866568344        0.69584952956068
H            0.57622704734144        2.25188509405742       -1.51680722491440
H            2.48689594378125        0.27457637222623        0.37057273567403
H            2.50694080106508        1.46158499111113       -0.94902368521902
H            2.44073901186553       -0.54303714089959       -2.56089005185546
H            2.82244001764771       -1.56544069187715       -1.15993064045237
H            4.30788375703041        0.70823252282733       -3.73544755068165
H            6.92209719407099        1.01590366969698       -3.42011007344769
H            4.52755037049726       -1.40033184899947        2.92015120013338
H            4.56232426613642       -2.98426957406663        2.10960602695923
H            3.00790426150721       -2.13786884296983        2.33750371525778
H            8.21251021075968       -1.99723272076070        1.64653084627488
H            7.90293544163682       -1.86725560599718       -0.10390277659716
H            8.06761312632710       -0.39102652212652        0.89710860593432
H            7.55729431448826        0.02877789381641       -1.13888108108586
H            0.00498587744367       -1.55427763345581       -1.29806634905646
H           -0.76611232815673       -0.76843162282289        0.09598074976917
H            0.86716552446873       -1.43876779053363        0.24286939016963
H           -4.74361376770014        2.76847405301193       -0.20881106844069
H           -3.81287863209804        3.04800793983321        2.67272417239479
H           -4.82830556304191        1.74538265702288        2.04002458099183
H           -5.43168263005662        3.40107722159089        2.06687830637584
H           -2.91735903970757        4.84931873586960        1.06066772602887
H           -3.36371861349895        4.77726863319423       -0.65237307690122
H           -4.58659249706372        5.10260727632821        0.56574646987667
H           -0.71811337908646        3.36645849827933        2.59818404631465
72
 energy: -99.376209013377 gnorm: 0.021449043068 xtb: 6.6.1 (8d0f1dd)
N           -1.58946469137094        3.19380197711853        2.10613216220498
C           -1.55134213960770        2.46684043452985        1.09058836888422
C           -2.74194113652007        2.14317416025099        0.22942502022654
C           -3.15839387382047        0.69650318373128        0.44720761013068
C           -4.06467166756359        0.09913792364201       -0.43153319424461
C           -4.47865571886290       -1.21138999508932       -0.26466561327007
O           -5.34294109079000       -1.86366127183754       -1.06990562775268
C           -5.94637985490147       -1.17176855746912       -2.13756446899994
C           -3.97491667930685       -1.97070918920902        0.82564024608542
O           -4.42567368623418       -3.23921861640225        0.90514448829236
C           -4.03261660680528       -4.03863211445943        1.99574042901285
C           -3.08574303388410       -1.36858191343865        1.70090410168612
C           -2.68187054801843       -0.05208199891240        1.51200140545026
C           -2.27869007230521        2.34910581380592       -1.23625152919122
C           -1.35421657520448        1.24260061690273       -1.78044419653093
C            0.04413731704830        1.33457193597814       -1.30435691575468
N            0.76112577713986        0.34340807896172       -0.79870549744711
C            2.19468964890781        0.45215462149646       -0.66741369158570
C            2.91059072461772       -0.56516722172960       -1.57978946760529
C            4.34611526549509       -0.21374092501627       -1.75918404597554
C            4.85470282340782        0.40548672768799       -2.87387184057950
C            6.25304028124756        0.56780825382986       -2.72117202420848
C            6.61964130585168        0.03992723336430       -1.51751371649155
O            4.14858688052098       -1.36245167841864        0.87109813792880
C            4.06883062162887       -2.01238292307184        2.13254419150674
C            5.36512185131874       -1.08968375181043        0.37725252043115
O            6.33366453780842       -1.48255630853356        1.20230871421979
C            7.70875583838004       -1.42717791468926        0.88044777177802
C            5.45052429507399       -0.47371498041986       -0.85373641915027
C            0.17878989623857       -0.92214848129349       -0.42367312305122
C           -3.97746929096337        3.04721253628051        0.52336559235666
C           -4.54654735869839        2.78839515408100        1.91644692009575
C           -3.68319378955407        4.53534452722332        0.35697750972301
H           -4.46099631366346        0.67312878545299       -1.25225168704381
H           -6.52128437752615       -0.31045328858399       -1.78448060672955
H           -6.62079371829086       -1.88689021682021       -2.60434835923399
H           -5.20572037485716       -0.84204281134338       -2.87370997197823
H           -4.33864392891974       -3.59585986676421        2.94816267839631
H           -4.54349491932579       -4.98974222523363        1.85935106860384
H           -2.95074902067967       -4.20656004156261        2.00121919574436
H           -2.70290844444791       -1.91387108609776        2.54816313853179
H           -2.00880766686675        0.39203768379325        2.22906428112054
H           -3.15808162687364        2.40041115450720       -1.87693154700305
H           -1.76399548858870        3.30780124285432       -1.31113572797661
H           -1.78705787786951        0.26467685288175       -1.57831225291137
H           -1.32086031790946        1.37556268233273       -2.86937100271491
H           -0.62218702149748        2.01517008735186        0.69512638935779
H            0.57511590057808        2.25182302820765       -1.51496960842509
H            2.48592115896745        0.27130591012168        0.37010670226132
H            2.50529579794572        1.45966179294058       -0.94837323201566
H            2.43011382381364       -0.54447152187337       -2.56038653417837
H            2.81619624408125       -1.56667335564081       -1.16112739944910
H            4.29180437495201        0.70982574228252       -3.73579205415373
H            6.91488655818979        1.02652020854188       -3.43041661936379
H            4.52487014258878       -1.40386449903705        2.91570262097539
H            4.56133721553683       -2.98541773512925        2.10608450787224
H            3.00667779361994       -2.13941644322956        2.33186074448048
H            8.20663743045892       -2.00418820418301        1.65884773641271
H            7.90543493417417       -1.87673438129552       -0.09401815801750
H            8.07303003931026       -0.39862536253652        0.90691485506219
H            7.59332517400813        0.04266039786853       -1.13625637590954
H            0.00270735825433       -1.55355091983733       -1.29753916974845
H           -0.76852930318295       -0.76909377097892        0.09710178208843
H            0.86482841887681       -1.43940524905725        0.24307083052362
H           -4.74376459821867        2.76832666522347       -0.20926661995691
H           -3.81260929767992        3.04878686115554        2.67208829175843
H           -4.82750878057539        1.74539753065620        2.03989936974094
H           -5.43175959171998        3.40085799861495        2.06629897882818
H           -2.91730321919838        4.84934522230221        1.05949015375628
H           -3.36408808368118        4.77704884736143       -0.65337323043032
H           -4.58661269962786        5.10256838648780        0.56498665497444
H           -0.71749934749732        3.36767808367711        2.59634120113526
72
 energy: -99.376680097934 gnorm: 0.011228838928 xtb: 6.6.1 (8d0f1dd)
N           -1.58897353789803        3.19573740499129        2.10376901032301
C           -1.55146071434555        2.46753815974154        1.08909271848265
C           -2.74221942523850        2.14322527958936        0.22843532638616
C           -3.15846541407497        0.69659353484787        0.44687518935285
C           -4.06510980661647        0.09883693580668       -0.43121459907388
C           -4.47932045936667       -1.21149380007363       -0.26336099904084
O           -5.34431852725976       -1.86401699267754       -1.06763675452851
C           -5.94822847874974       -1.17256860255824       -2.13529863719334
C           -3.97514887540136       -1.97032751714129        0.82707719926160
O           -4.42621925221599       -3.23867535805559        0.90745469401509
C           -4.03283224707846       -4.03771841207065        1.99819003049059
C           -3.08545715306943       -1.36790224081947        1.70159479819329
C           -2.68163795095471       -0.05147681202878        1.51191165851194
C           -2.27910675121742        2.34871501150645       -1.23732504509445
C           -1.35400392828870        1.24240914304054       -1.78076201374944
C            0.04397925987229        1.33378657739760       -1.30323996206161
N            0.76025974095021        0.34208770498379       -0.79710581178519
C            2.19405490608189        0.44965019399546       -0.66583585205459
C            2.91154306007646       -0.56709519492158       -1.57879484351224
C            4.34872007139100       -0.21438488479244       -1.75975308168298
C            4.85095654705435        0.40799263307549       -2.87379503232521
C            6.25210088428086        0.57733018742560       -2.72454265910696
C            6.63422584715360        0.05013870444784       -1.52099642577211
O            4.14964693184346       -1.36221564250318        0.86249838642626
C            4.06635798356180       -2.01484686205446        2.12296128449999
C            5.36877135205871       -1.08785955720531        0.37321751995273
O            6.33173027058483       -1.48053813978310        1.20385666955851
C            7.70928233679201       -1.43479942861373        0.89102289472554
C            5.46133511291216       -0.47070033987855       -0.85682422146445
C            0.17664281515009       -0.92308178489089       -0.42291289168270
C           -3.97767513047425        3.04725704584848        0.52241750791086
C           -4.54628870340834        2.78887254832975        1.91574412038383
C           -3.68353570173729        4.53533997083395        0.35544518148716
H           -4.46159342607638        0.67243814221980       -1.25212914120579
H           -6.52322889673167       -0.31128743619691       -1.78224703505533
H           -6.62259949235361       -1.88798426531317       -2.60169196053707
H           -5.20784909081063       -0.84287109673750       -2.87171828275679
H           -4.33807482703748       -3.59439129330275        2.95059673043431
H           -4.54424381436292       -4.98864421492199        1.86255784505749
H           -2.95103456448226       -4.20615353557383        2.00311023274276
H           -2.70228149912004       -1.91283296411499        2.54894165722958
H           -2.00822038066302        0.39292127997030        2.22847269623438
H           -3.15861164804730        2.39951524101705       -1.87789858751818
H           -1.76479416179763        3.30757857101589       -1.31250127837978
H           -1.78740635772580        0.26455613572117       -1.57939849096530
H           -1.31956958271110        1.37571485759608       -2.86962693680332
H           -0.62261468444901        2.01492153427037        0.69403074597557
H            0.57526661909458        2.25117767851929       -1.51247732178496
H            2.48505276870801        0.26745217086602        0.37151756447597
H            2.50493564717924        1.45757055472619       -0.94525044383548
H            2.42954627417591       -0.54585096092076       -2.55899938137110
H            2.81588390999575       -1.56915216148224       -1.16156545085717
H            4.28045811245672        0.71097029159693       -3.73330246735894
H            6.90274905408240        1.04126718351897       -3.44007752713076
H            4.52055570566613       -1.40789845595139        2.90824255605616
H            4.55954756230707       -2.98783538911286        2.09672412606672
H            3.00401135384546       -2.14226489935451        2.31943914265641
H            8.19771835956715       -2.01439325624362        1.67380711617757
H            7.90863099050311       -1.88685082442358       -0.08183243598698
H            8.08064051884606       -0.40876104565971        0.91998918115997
H            7.62334062067533        0.06106116321535       -1.13837938307487
H            0.00011182364590       -1.55388044891208       -1.29701422472271
H           -0.77070537134756       -0.76959327618376        0.09769139032011
H            0.86195453892553       -1.44119115457230        0.24380419868020
H           -4.74416828419139        2.76804890628830       -0.20986398093769
H           -3.81238017140008        3.05026985702174        2.67103337098590
H           -4.82631815098636        1.74573453281694        2.03991630844612
H           -5.43196651929578        3.40065237754973        2.06553096008660
H           -2.91723958259147        4.84949614556060        1.05744689448605
H           -3.36494848504321        4.77666497616199       -0.65515030481030
H           -4.58685451042580        5.10263009785828        0.56374199974983
H           -0.71678982345977        3.36952503816923        2.59362940079658
72
 energy: -99.376764268901 gnorm: 0.004837909510 xtb: 6.6.1 (8d0f1dd)
N           -1.58852583187013        3.19716430124525        2.10200625860500
C           -1.55142181914424        2.46773911730631        1.08820230212766
C           -2.74217106215172        2.14320184056213        0.22765959787508
C           -3.15840088522364        0.69665757845931        0.44665561292620
C           -4.06545413471102        0.09862341363627       -0.43083639445922
C           -4.47989292060957       -1.21153177910376       -0.26211990575201
O           -5.34547048438499       -1.86428908329085       -1.06558143747248
C           -5.94991910533800       -1.17327004555299       -2.13321219070687
C           -3.97538398520426       -1.96993210099828        0.82847760524121
O           -4.42672457916697       -3.23812907720668        0.90965117380118
C           -4.03302294151445       -4.03681249775672        2.00053394366630
C           -3.08521021062125       -1.36726253230553        1.70233992399437
C           -2.68134773226606       -0.05095015928842        1.51191956571394
C           -2.27871239214317        2.34808852996680       -1.23809503096605
C           -1.35310047385382        1.24182882219164       -1.78091181579077
C            0.04484630021183        1.33262097978558       -1.30279885105872
N            0.76090255603086        0.34040979808090       -0.79696296210076
C            2.19473654753840        0.44787418418409       -0.66442763948693
C            2.91393491826169       -0.56758885577457       -1.57771132797622
C            4.35056374522575       -0.21268531999583       -1.75887721507435
C            4.85062640693871        0.41197040426187       -2.87210363268978
C            6.25091732042279        0.58342552894149       -2.72396415844588
C            6.63572022859791        0.05497152181777       -1.52263749743036
O            4.14966937459592       -1.36277635917136        0.85734832208833
C            4.06414487540903       -2.01785330464104        2.11620167711622
C            5.36999157065671       -1.08663295637388        0.37138900896857
O            6.33055162976077       -1.47917004468608        1.20494313868729
C            7.70902951865426       -1.43810410027548        0.89555743688110
C            5.46455306876350       -0.46824403555737       -0.85727217676872
C            0.17610978163156       -0.92433318156117       -0.42302733636070
C           -3.97769961645512        3.04725403740861        0.52140889171598
C           -4.54593019691265        2.78934342492467        1.91499392057656
C           -3.68385381029206        4.53533651585952        0.35385206777188
H           -4.46213958407927        0.67189937127882       -1.25188567553844
H           -6.52494602514080       -0.31199327357610       -1.78016350084160
H           -6.62433173957860       -1.88896549799131       -2.59912738597515
H           -5.20987527439233       -0.84365651111895       -2.87000037013308
H           -4.33757160134754       -3.59294189296064        2.95290708887647
H           -4.54487388595482       -4.98760639699741        1.86562771083838
H           -2.95128647271609       -4.20566749031024        2.00494771290476
H           -2.70174317907233       -1.91186386195231        2.54977174848809
H           -2.00765454255546        0.39373484929448        2.22805014044938
H           -3.15813970323508        2.39817103051055       -1.87886494169132
H           -1.76489784470066        3.30720160005713       -1.31365090349332
H           -1.78691802338850        0.26401124891591       -1.58017573224323
H           -1.31800773236148        1.37549039870159       -2.86972924817197
H           -0.62272782170731        2.01463106520410        0.69333628959884
H            0.57627785933510        2.25010594379173       -1.51123324296995
H            2.48459500250328        0.26472746814422        0.37306168147107
H            2.50557331796249        1.45615063372284       -0.94248732575814
H            2.43321233693531       -0.54594641802703       -2.55855908134835
H            2.81878114592499       -1.57016212373114       -1.16167760093038
H            4.27915586275244        0.71445178571106       -3.73077236651070
H            6.89772768387056        1.05037310364229       -3.44160335327947
H            4.51633098091932       -1.41195100413817        2.90348115795376
H            4.55774697943627       -2.99059036959825        2.08862721509152
H            3.00123699853839       -2.14591242707799        2.30930352345580
H            8.19251741488259       -2.02035796530332        1.67956434154824
H            7.90952488895617       -1.88990853521005       -0.07705900230334
H            8.08458405801201       -0.41373261202418        0.92639256431534
H            7.63190856156943        0.06928906790027       -1.13974374617762
H           -0.00108203288558       -1.55489354547571       -1.29717803925183
H           -0.77119943291690       -0.76999289610616        0.09752109280310
H            0.86074355776291       -1.44318377158161        0.24380635292650
H           -4.74438129083320        2.76768481043709       -0.21054429031954
H           -3.81209901090749        3.05167437774795        2.67003453839219
H           -4.82528091635908        1.74611428877894        2.03992517910414
H           -5.43197964173248        3.40061651742080        2.06461078079261
H           -2.91728630344867        4.84978845988208        1.05542743209560
H           -3.36574861330104        4.77635917497883       -0.65696864442364
H           -4.58715721789509        5.10257103068081        0.56239047889468
H           -0.71612882275592        3.37147532378266        2.59130138870306
