25
 energy: -43.833616419589 gnorm: 0.115749294540 xtb: 6.6.1 (8d0f1dd)
C            3.23859315230614        1.16906502009026        0.07820588608381
N            2.30267622449667        0.08556056216992        0.04585311143787
C            2.58582720677565       -1.21976794507314        0.03976115444741
N            1.43601689745323       -1.93762152281416        0.01703150546684
C            0.39233118653209       -1.06007407941325        0.00751861151806
C            0.93209792605444        0.21477433567711        0.02549290742001
C            0.09628408379538        1.39939045116472       -0.00521750697930
O            0.49745929318964        2.54687273998924       -0.01431386010996
N           -1.25361163020193        1.05826212953264       -0.02755685260047
C           -2.21969463719954        2.15205887464173       -0.05397564185211
C           -1.81961283151472       -0.20139869154461       -0.03442194731961
O           -3.00849920238989       -0.38190267186603       -0.05427913588975
N           -0.93014234166239       -1.30308320962715       -0.01053818706364
C           -1.46203107219524       -2.63744271058547       -0.09905992106401
H            3.72233308776052        1.21918443228522        1.05462444653623
H            4.00255752414913        1.03149341358080       -0.68707723050034
H            2.69726205782024        2.09727178458311       -0.09626468179539
H            3.57018200825517       -1.64193382487852        0.05292961551648
H           -1.66952199256712        3.08978939526630       -0.03221778525772
H           -2.82376137931383        2.08786689002319       -0.95827696535429
H           -2.87856821307924        2.08048037491923        0.80944279687297
H           -1.14344830038608       -3.22060554917142        0.80420788338593
H           -1.16987565606357       -3.11527915127511       -1.02382028069275
H           -2.55488711109469       -2.55878052878147       -0.04621678140713
H            1.37766107079457       -2.94529444968494        0.01077439180972
25
 energy: -43.838444779507 gnorm: 0.041346353351 xtb: 6.6.1 (8d0f1dd)
C            3.24544231084536        1.17832185702086        0.08044292329195
N            2.30954121143520        0.09946653112326        0.04341634029470
C            2.60051328188592       -1.23498775625464        0.03970893745388
N            1.42515682602421       -1.94010574942171        0.01660175213174
C            0.39672145058481       -1.05555185795774        0.00622380064883
C            0.92874925876479        0.22358420484025        0.02297795076538
C            0.10250313903764        1.39281668395705       -0.00603350599390
O            0.49583344339093        2.56154661587401       -0.01558169190148
N           -1.26256861226985        1.04966003619478       -0.02749533490794
C           -2.22136643366435        2.14593680114512       -0.05355766173701
C           -1.82428599777132       -0.19990693572119       -0.03485591939770
O           -3.02176700435208       -0.38415515620709       -0.05483818330791
N           -0.93670596885799       -1.29916292846004       -0.01095866139906
C           -1.46776880944698       -2.63634820650296       -0.08615511051993
H            3.73344412325100        1.22865440214656        1.05781828459041
H            4.00739575661591        1.04142779207447       -0.68909783661976
H            2.69748502394437        2.10240680673352       -0.09364404755259
H            3.57802335457450       -1.66153532341754        0.05357925913737
H           -1.65745611693188        3.07601971253870       -0.03240641312880
H           -2.82508013744762        2.08839363310188       -0.95902363891082
H           -2.88052879609442        2.08065802914650        0.81132636036262
H           -1.14026557133213       -3.22565480582778        0.78561264072299
H           -1.16648238151039       -3.12420326675447       -1.01008185524582
H           -2.55614173690478       -2.55466777800512       -0.05194361826002
H            1.35723573794377       -2.94372727215849        0.01057076209174
25
 energy: -43.839186870846 gnorm: 0.016620799255 xtb: 6.6.1 (8d0f1dd)
C            3.23956366526542        1.17465869442211        0.07861332553924
N            2.30368313494027        0.10593788810843        0.04145029543525
C            2.60727770231216       -1.23783176693660        0.04162096584568
N            1.42585642867488       -1.94242457014088        0.01804475475249
C            0.40213458905681       -1.06061953422473        0.00721831060755
C            0.92051324662668        0.22399552846093        0.02444787993540
C            0.11052272142410        1.38377735228751       -0.00264681899201
O            0.49957824725544        2.55962540850622       -0.01217276769580
N           -1.26625654532903        1.04922537085749       -0.02549469386231
C           -2.22102067497047        2.14976030273619       -0.05389313328953
C           -1.81626371235257       -0.19697745973939       -0.03343258597209
O           -3.01559010980077       -0.38520386086272       -0.05572465344714
N           -0.93645447978631       -1.29951957823066       -0.01275003358089
C           -1.46769360806601       -2.63707355822791       -0.08221238744577
H            3.72083992546255        1.21795822598613        1.05942578500508
H            4.00234417531245        1.02543859700729       -0.68814025959082
H            2.69375260340485        2.09804990761188       -0.10077351002120
H            3.58360960550995       -1.64746869612362        0.05294669082083
H           -1.67140530861190        3.08967441817645       -0.03255243488564
H           -2.82458473217532        2.08888932832741       -0.95895038482541
H           -2.88185483673988        2.08175509159053        0.80912815953781
H           -1.14077123880215       -3.21566075577659        0.78675737520186
H           -1.17016388572521       -3.11775755868008       -1.01962207694297
H           -2.55241189807985       -2.55410386741225       -0.04915272845464
H            1.37242233690855       -2.94521883851495        0.01047045893392
25
 energy: -43.839366995486 gnorm: 0.009676797213 xtb: 6.6.1 (8d0f1dd)
C            3.24261351992958        1.17448977354872        0.08097113634006
N            2.30226482781410        0.10614094590771        0.04189121437615
C            2.60169262406771       -1.23816477099773        0.04104008790529
N            1.42009303802658       -1.93987635523399        0.01740134850387
C            0.39920004962347       -1.06011444733084        0.00754471454387
C            0.91829076329798        0.22542629203955        0.02383423912283
C            0.11025897037711        1.38324161611364       -0.00759195132103
O            0.49227400136287        2.55897862590317       -0.01921321849418
N           -1.26897964038126        1.04857248806188       -0.02862433858326
C           -2.21958872750483        2.14930083215305       -0.05380106725406
C           -1.81723165003741       -0.19707430831135       -0.03473476620269
O           -3.01608954748337       -0.38621586966629       -0.05464675142761
N           -0.93913412351138       -1.29960836093967       -0.01336087114852
C           -1.46747408636597       -2.63993148899777       -0.08125419824524
H            3.73287184776560        1.22099439219195        1.05695345588487
H            4.00449794058423        1.03873904312153       -0.68898040273373
H            2.69971343596591        2.10125100725499       -0.08879710442502
H            3.57616241404946       -1.64927210784935        0.05181325601434
H           -1.65802676342091        3.08173343223365       -0.03278225065352
H           -2.82488128095475        2.09100398865839       -0.95810255414608
H           -2.87707623448400        2.08294908166307        0.81212260261119
H           -1.14336682329341       -3.21908382344714        0.79092348203704
H           -1.16636857464277       -3.12158866618669       -1.01720119516697
H           -2.55353509165558       -2.55968178961855       -0.05229194516199
H            1.36944646258567       -2.94332346106375        0.00949261023329
25
 energy: -43.839396912695 gnorm: 0.005888187714 xtb: 6.6.1 (8d0f1dd)
C            3.24420508391967        1.17359566910464        0.07814604207988
N            2.30542460449282        0.10275316649461        0.04182661332096
C            2.60145492338936       -1.24037330522848        0.04287519262997
N            1.41989099778102       -1.93936612038599        0.01798730206067
C            0.39994235121835       -1.05956276184810        0.00771736575301
C            0.92148744657177        0.22568977029385        0.02492133973558
C            0.11313654041841        1.38587134152742       -0.00246220044577
O            0.49323429749333        2.56009543487809       -0.01033156875544
N           -1.26793215601520        1.05085465218644       -0.02577670616711
C           -2.22246440663662        2.14705730989295       -0.05378859918300
C           -1.81648046127493       -0.19534453857706       -0.03370629663893
O           -3.01512253268472       -0.38482468576048       -0.05492896776023
N           -0.93804160713288       -1.29741618503409       -0.01337705674734
C           -1.46800626546743       -2.63697546986683       -0.08368501114832
H            3.72979738509670        1.23005028617361        1.05606243362235
H            4.00925962892972        1.03637841099008       -0.68837202798834
H            2.69911735863769        2.09833604976927       -0.10096896679023
H            3.57655556903747       -1.65507867042959        0.05453326601006
H           -1.66306756837627        3.07998206199221       -0.03130317566363
H           -2.82439876970334        2.08628878643497       -0.96028348294306
H           -2.88378431749362        2.07874645139669        0.80924688501275
H           -1.14014990734270       -3.22207528197737        0.78572369151649
H           -1.16978712753693       -3.11896705366323       -1.01823526282980
H           -2.55487602355949       -2.55325272277838       -0.05053346725719
H            1.36823230795245       -2.94357652637703        0.01131819118556
25
 energy: -43.839448701739 gnorm: 0.003766140148 xtb: 6.6.1 (8d0f1dd)
C            3.24135558704792        1.17373959752802        0.08101949280504
N            2.30537227603143        0.10231148427494        0.04107162485761
C            2.60298762040672       -1.23990616585364        0.04023940373202
N            1.42190166339698       -1.93965346922144        0.01595048413920
C            0.40057451373286       -1.06059592386479        0.00660751849035
C            0.92151179150133        0.22509845983583        0.02311565018469
C            0.11402311212353        1.38591470964369       -0.00583350290359
O            0.49438034609559        2.55999683002433       -0.01570038072590
N           -1.26811755676398        1.05098771167260       -0.02758711776855
C           -2.22147564831374        2.14889207990148       -0.05387573934950
C           -1.81696566922616       -0.19576752490453       -0.03429064953042
O           -3.01588292265188       -0.38549312620697       -0.05475963293922
N           -0.93771511998514       -1.29786878092417       -0.01368600209149
C           -1.46744620300843       -2.63731869404624       -0.08238362989387
H            3.72548660527794        1.22198416434754        1.06021216618384
H            4.00443900453082        1.03510249793761       -0.68715570425108
H            2.69489345194918        2.09905093639663       -0.09426680082772
H            3.57990855651761       -1.65274198461763        0.05117221635674
H           -1.66404525555619        3.08319953244049       -0.03338816641022
H           -2.82631943042333        2.08933573220832       -0.95837085334006
H           -2.88060011220111        2.08243819491614        0.81084620237620
H           -1.13975315906472       -3.21931299032760        0.78867581438580
H           -1.16770621625909       -3.12176749096703       -1.01460129425253
H           -2.55430115723393       -2.55461134501812       -0.04979105919520
H            1.37112127379041       -2.94412836596727        0.00938549257673
25
 energy: -43.839445632523 gnorm: 0.003236885349 xtb: 6.6.1 (8d0f1dd)
C            3.24215836061293        1.17418670755185        0.07848956483639
N            2.30431891332708        0.10410533198135        0.04217699432926
C            2.60232066525809       -1.23842185009649        0.04305310004155
N            1.42144284725553       -1.93899532298875        0.01922462515761
C            0.39977336470069       -1.06085460632825        0.00912612696142
C            0.91981591965695        0.22557782569031        0.02552964381046
C            0.11329408933934        1.38497298666610       -0.00428085680040
O            0.49234350737924        2.55989978699408       -0.01521697359048
N           -1.26940343042018        1.04939347480344       -0.02671800956777
C           -2.22036532981951        2.14897638250274       -0.05348209778720
C           -1.81786710718196       -0.19699700616642       -0.03384121893460
O           -3.01681092112953       -0.38690102591559       -0.05560452046888
N           -0.93870151649669       -1.29891518709324       -0.01282624921034
C           -1.46770533480282       -2.63847897395129       -0.08424300393969
H            3.73085277512029        1.22119046955878        1.05538155560631
H            4.00291501140689        1.03302451772787       -0.69162577687552
H            2.69848626015193        2.10102397864087       -0.09531397372821
H            3.57922610847548       -1.64919733739085        0.05410651388971
H           -1.66212549205588        3.08317490260409       -0.03157143864169
H           -2.82405355635230        2.09068760605041       -0.95881169714793
H           -2.87989565574771        2.08240316651461        0.81082096289600
H           -1.14293644207465       -3.22006655371091        0.78734633703199
H           -1.16688821825289       -3.11971999966176       -1.01850056887808
H           -2.55419719712661       -2.55776550036544       -0.05330683165498
H            1.37162973049091       -2.94341770440930        0.01269332527391
25
 energy: -43.839466007930 gnorm: 0.001980907194 xtb: 6.6.1 (8d0f1dd)
C            3.24279012593626        1.17408766074669        0.08013876413187
N            2.30476729746658        0.10355914384295        0.04145778727695
C            2.60172275351626       -1.23925637320315        0.04142180273681
N            1.42071647616251       -1.93916835062703        0.01633469492490
C            0.39975211839946       -1.06075716123160        0.00716897548687
C            0.92014097214621        0.22559891193048        0.02397090500578
C            0.11424158469522        1.38506123076857       -0.00492785387918
O            0.49295411850794        2.55989084038113       -0.01464708626974
N           -1.26892053332478        1.04959241465999       -0.02722604615013
C           -2.22075930886249        2.14804642449922       -0.05405006031759
C           -1.81719623081375       -0.19644791356064       -0.03411102592997
O           -3.01602163622817       -0.38606011052711       -0.05458311519720
N           -0.93856388235311       -1.29848717137951       -0.01341258736032
C           -1.46791598626996       -2.63806852452418       -0.08256342213566
H            3.72880026677791        1.22401986228947        1.05816011861497
H            4.00685297418683        1.03559080650820       -0.68717191601817
H            2.69870706794924        2.10002064101226       -0.09558328033446
H            3.57792719335984       -1.65091547816832        0.05253399648616
H           -1.66271880752125        3.08231717722278       -0.03244206388236
H           -2.82446290291854        2.08843625822294       -0.95937747506681
H           -2.88040723115502        2.08073995420070        0.81020563150571
H           -1.14142712298514       -3.21924445959147        0.78898229737476
H           -1.16948862640967       -3.11986717808477       -1.01737401581036
H           -2.55424020046417       -2.55621285545732       -0.04930770739348
H            1.37037687191643       -2.94358968072209        0.00900821480954
25
 energy: -43.839449255453 gnorm: 0.003096873080 xtb: 6.6.1 (8d0f1dd)
C            3.24128646406277        1.17351830772610        0.07944790273226
N            2.30546781001294        0.10161162304977        0.04138481410220
C            2.60205328232567       -1.24064878960076        0.04164527351077
N            1.42124751986069       -1.93982523582539        0.01837490007198
C            0.40028562590569       -1.06089062275921        0.00780371073061
C            0.92111260552551        0.22515540649062        0.02404246944059
C            0.11522508431985        1.38595573013706       -0.00514512434230
O            0.49436094393400        2.56006646674787       -0.01481115144712
N           -1.26841360307216        1.05102987065348       -0.02721895241467
C           -2.22150752126314        2.14887461499864       -0.05321459056545
C           -1.81662850881486       -0.19540550754788       -0.03454876857957
O           -3.01531936934057       -0.38496205600699       -0.05549445984010
N           -0.93774151311476       -1.29773221249754       -0.01349723679391
C           -1.46665116941258       -2.63747309932266       -0.08362678290692
H            3.72693787194739        1.22404874913051        1.05770381392123
H            4.00376609240640        1.03637787102277       -0.68965063701141
H            2.69360662745973        2.09776498640918       -0.09556289435746
H            3.57859197035278       -1.65372549011037        0.05223964987300
H           -1.66341747298615        3.08287852496205       -0.03272923580613
H           -2.82683469233789        2.08967672762147       -0.95756323041612
H           -2.88084751139204        2.08281244660116        0.81154121775261
H           -1.14028456024022       -3.22021402082004        0.78758632956328
H           -1.16523939736389       -3.12105141401014       -1.01585303984285
H           -2.55357751490662       -2.55458083243144       -0.05325556775959
H            1.37014828784609       -2.94437597541008        0.01300712299396
25
 energy: -43.839469344797 gnorm: 0.001440767803 xtb: 6.6.1 (8d0f1dd)
C            3.24204696306183        1.17373310351142        0.07969948794776
N            2.30528695501702        0.10261919656852        0.04160206727613
C            2.60221523104061       -1.23957461257104        0.04165379530712
N            1.42160436552689       -1.93923999875041        0.01750944743277
C            0.40016968379346       -1.06078383634740        0.00773984055658
C            0.92068770163321        0.22554795882884        0.02433466969254
C            0.11456995023757        1.38580182430168       -0.00475791575635
O            0.49313293673061        2.56025622924882       -0.01479705533477
N           -1.26900110135268        1.05036986627601       -0.02699349964788
C           -2.22138441538522        2.14864528750716       -0.05374823096411
C           -1.81715532174554       -0.19604209826935       -0.03402634047273
O           -3.01588541759296       -0.38588518192838       -0.05506086475953
N           -0.93802212922037       -1.29812083380855       -0.01324726215501
C           -1.46739932069083       -2.63772234188808       -0.08328821410046
H            3.72829700145331        1.22258430448186        1.05774544806710
H            4.00427468541507        1.03470497357599       -0.68932145976376
H            2.69654804847665        2.09928864585069       -0.09513529686847
H            3.57900403896149       -1.65183702176321        0.05251254602766
H           -1.66315498712031        3.08264685347139       -0.03251638642244
H           -2.82558319007238        2.08967093803532       -0.95883068123941
H           -2.88124123329649        2.08236663656123        0.81052568694703
H           -1.14078525867738       -3.22028990172421        0.78769371665631
H           -1.16738516085442       -3.12079783578949       -1.01635155171179
H           -2.55417289035352       -2.55529811133618       -0.05146122312449
H            1.37096021672901       -2.94375797483444        0.01112480901908
25
 energy: -43.833714222741 gnorm: 0.095817648236 xtb: 6.6.1 (8d0f1dd)
C            3.23984029984402        1.17121921984523        0.07199796410562
N            2.30529454010657        0.09625328536998        0.05268141612492
C            2.59112151192766       -1.22513747698699        0.04958944573654
N            1.43392113476347       -1.94082334266448        0.03310622922717
C            0.39422869837390       -1.06127344313637        0.02294805982176
C            0.92906431233407        0.21584025595632        0.03389901736619
C            0.09808615369420        1.39373525402859       -0.00604737463671
O            0.49771058608173        2.55111807976554       -0.02525148523336
N           -1.25653188760836        1.05381954198939       -0.02435133640687
C           -2.22032399581129        2.14890606050083       -0.05794440137360
C           -1.82160721479631       -0.20263244156098       -0.02190223711649
O           -3.01595097676027       -0.38561909589771       -0.03827884689950
N           -0.93363739830249       -1.30366092047332        0.01579365848353
C           -1.46008892638873       -2.62222817902176       -0.13661495257336
H            3.73206889482094        1.22335838864436        1.04417636891546
H            3.99716613399896        1.02875199739676       -0.70057655714136
H            2.69550377529211        2.09680999445071       -0.10124062711993
H            3.57364724375282       -1.64673981184350        0.06363281101824
H           -1.66793728665264        3.08625310837717       -0.03878891083152
H           -2.82314384869799        2.08172162523944       -0.96348758476124
H           -2.88078280187295        2.08302660864730        0.80439335167172
H           -1.11642823006942       -3.24466480485055        0.77546839252768
H           -1.19475648150483       -3.05539106582748       -1.09042700379052
H           -2.55418064583040       -2.56123123692944       -0.01791355452296
H            1.37447508846676       -2.94731581315518        0.03547669701882
25
 energy: -43.837963821017 gnorm: 0.037262801070 xtb: 6.6.1 (8d0f1dd)
C            3.24647436151491        1.17858400167106        0.07406983854935
N            2.30993357749869        0.10365532552848        0.04992129491862
C            2.60141394189606       -1.23698534667995        0.04959700681909
N            1.42325419101920       -1.94003310047206        0.03255461953649
C            0.39694884495634       -1.05539624273017        0.02084720977282
C            0.92692281624711        0.22420183707800        0.03082242023770
C            0.10325732168245        1.38979753228581       -0.00652786040039
O            0.49393253384065        2.56082611680854       -0.02635260128823
N           -1.26472275355753        1.04919153288617       -0.02396422923977
C           -2.22218188800568        2.14556545264256       -0.05728826006909
C           -1.82476472838424       -0.19874173987010       -0.02247432499322
O           -3.02299171575948       -0.38465718705126       -0.03912839826618
N           -0.93910279771216       -1.29766486278323        0.01500272289507
C           -1.46715948559357       -2.62659052121940       -0.11035857331626
H            3.74419659240518        1.23320605034438        1.04659048468995
H            4.00216014827698        1.03920275154517       -0.70196189627917
H            2.69786931657581        2.10252452211657       -0.09875791899954
H            3.57840831639597       -1.66288197292125        0.06466750388689
H           -1.65674046700995        3.07491021886319       -0.03927357847060
H           -2.82408001917286        2.08377337785110       -0.96386215661203
H           -2.88302873160961        2.08438692428099        0.80647174269591
H           -1.11160339803777       -3.25801222590690        0.73611054510001
H           -1.19109388641475       -3.07510876531551       -1.06002082339841
H           -2.55592530089472       -2.55609273203007       -0.03111286229245
H            1.35538188900451       -2.94356515905828        0.03476663413369
25
 energy: -43.838700924218 gnorm: 0.017382004392 xtb: 6.6.1 (8d0f1dd)
C            3.24172037711435        1.17603520633871        0.07294683417761
N            2.30645657525504        0.10542404009910        0.04846965161521
C            2.60917842261841       -1.24108856316635        0.05135779020687
N            1.42513926961896       -1.94295108835513        0.03383231688862
C            0.40304096861530       -1.05997930008286        0.02091393111106
C            0.92223646748313        0.22399803632150        0.03236609450552
C            0.11048792294888        1.38212164911127       -0.00341050337639
O            0.49609773309263        2.55867104071360       -0.02359424611156
N           -1.26828177455919        1.04657559438350       -0.02156833652968
C           -2.22264361986914        2.14501110885863       -0.05753336933746
C           -1.81919360898896       -0.19812365431902       -0.02061750906498
O           -3.01831722406531       -0.38906061080656       -0.04054678999894
N           -0.93722244886301       -1.29684859380516        0.01010928201163
C           -1.46662984017220       -2.62870803195688       -0.10397613954883
H            3.73304460618654        1.22533777942835        1.04907580449425
H            3.99750786647888        1.02714976444164       -0.70131168334578
H            2.69157669280405        2.09805904278784       -0.10439607100644
H            3.58563176896881       -1.65434373283645        0.06351404565992
H           -1.66787981408758        3.08141107963544       -0.03935059687400
H           -2.82410857088799        2.08006600242779       -0.96387785776872
H           -2.88469871032155        2.08141073952257        0.80492640886653
H           -1.11750580456853       -3.22699023229161        0.74114996461502
H           -1.19780542893871       -3.05978355470287       -1.07592768616858
H           -2.54916067167321       -2.55306869447401       -0.02653265439619
H            1.36808752497193       -2.94622923940919        0.03431985898559
25
 energy: -43.838897409603 gnorm: 0.009056184993 xtb: 6.6.1 (8d0f1dd)
C            3.24317137802943        1.17567882206994        0.07363020011225
N            2.30325383690249        0.10673934770991        0.04899156115159
C            2.60262983286873       -1.23887140912211        0.05163662830711
N            1.42013441115832       -1.94039242994667        0.03488947579915
C            0.39896779789587       -1.05988435792961        0.02376285029281
C            0.91872673738622        0.22554290301743        0.03289510356671
C            0.10973515502724        1.38323746753278       -0.00730500849093
O            0.49124266916082        2.55913620785315       -0.02960916903461
N           -1.27056092011747        1.04754305573074       -0.02402765622019
C           -2.21981881749497        2.14911094682064       -0.05799081269516
C           -1.82077535362021       -0.19797262908983       -0.02056541869764
O           -3.01983949575353       -0.38838633134923       -0.03851085189890
N           -0.94035654633556       -1.29847543437501        0.01152270181239
C           -1.46402305758110       -2.63582175020504       -0.10444174694330
H            3.74062738663896        1.22488977612349        1.04595609651330
H            3.99814657831014        1.03339831134059       -0.70238890613806
H            2.69798171720653        2.10135135025841       -0.09676772250578
H            3.57788835733286       -1.65189266237462        0.06297688676070
H           -1.65758434763304        3.08120378488892       -0.03987442226505
H           -2.82322690248722        2.08772711945795       -0.96345209822994
H           -2.87971546291829        2.08880503991699        0.80629310664697
H           -1.11535684623193       -3.24537515804124        0.74366423125638
H           -1.19209456073580       -3.06278917719633       -1.07834179497773
H           -2.54929718140120       -2.56605675954912       -0.02763610481646
H            1.36690231355426       -2.94435024567828        0.03503141030463
25
 energy: -43.838939230822 gnorm: 0.006915599378 xtb: 6.6.1 (8d0f1dd)
C            3.24559192517249        1.17525394908260        0.07284824697922
N            2.30658974420695        0.10464726700990        0.04840955710524
C            2.60278657066043       -1.24017378909236        0.05143781944775
N            1.42063978962479       -1.93993540319171        0.03259381089731
C            0.40026795422079       -1.05970878028992        0.02205504182155
C            0.92195319610281        0.22576128753556        0.03228153626019
C            0.11345726384543        1.38523998034673       -0.00454540357305
O            0.49341785175306        2.55999187145799       -0.02207639342550
N           -1.26838661104772        1.04934655205048       -0.02368990857582
C           -2.22289377921474        2.14511283278004       -0.05753053563815
C           -1.81853749681657       -0.19608093598133       -0.02291702516101
O           -3.01752330154428       -0.38654627498411       -0.04044237443951
N           -0.93876076025247       -1.29616072537369        0.00943385762105
C           -1.46754245390343       -2.63143086229786       -0.10547639372686
H            3.73989455137699        1.23190052091550        1.04620406207311
H            4.00346983031839        1.03486559648914       -0.70054334101670
H            2.69846531995006        2.09909576785358       -0.10280378862270
H            3.57806326215615       -1.65604352153814        0.06423370591760
H           -1.66446806898706        3.07881934860303       -0.03754824453560
H           -2.82422412095688        2.08007017583585       -0.96433560780736