25
 energy: 0.000000000000 xtb: 6.6.1 (8d0f1dd)
C            3.23720163006194        1.16630919979326        0.08434469647475
N            2.29877817382611        0.07527477071623        0.03981603040599
C            2.58028210190900       -1.21425402444508        0.03006176031096
N            1.43813958087363       -1.93419271955128        0.00098261760884
C            0.39035688448383       -1.05887472636071       -0.00790371836672
C            0.93510056364412        0.21347819449412        0.01709077491437
C            0.09450143893243        1.40504303904423       -0.00410947031874
O            0.49712751527797        2.54126714362870       -0.00342325688240
N           -1.25076640035757        1.06271879480407       -0.03085478223738
C           -2.21907211982101        2.15522099834493       -0.05001256985998
C           -1.81739487048744       -0.20012725993278       -0.04692818574614
O           -2.99983886758376       -0.37846417018721       -0.07008878229737
N           -0.92618586207120       -1.30210215599479       -0.03682761578324
C           -1.46982264913417       -2.64643102187190       -0.06029820460571
H            3.71247264356769        1.21471455160235        1.06488849150277
H            4.00791497605742        1.03430808813993       -0.67357694370751
H            2.69910007168542        2.09770118228144       -0.09130154882931
H            3.56654120610678       -1.63682992603973        0.04233140067262
H           -1.67107961066214        3.09322851271934       -0.02552706933167
H           -2.82428953597071        2.09428624779827       -0.95318082946668
H           -2.87644029173232        2.07745725625962        0.81450067533302
H           -1.17061996399332       -3.19584890659852        0.83242232437030
H           -1.14560257411436       -3.17511610292205       -0.95688275822323
H           -2.55549792440841       -2.55659984320617       -0.07459039797972
H            1.38130855184625       -2.94313852034425       -0.01389874181052
25
 energy: -2.313477279938 xtb: 6.6.1 (8d0f1dd)
C            3.24071777633469        1.17214549520495        0.06631038752118
N            2.30440894505907        0.09146877962429        0.04977700193092
C            2.59862531546429       -1.23327897562748        0.06638919740931
N            1.43056932631979       -1.94502940856367        0.05995244868269
C            0.39625200668285       -1.06267938775662        0.04105544679794
C            0.92783421884457        0.21615083733798        0.03726640768229
C            0.09970526220975        1.38874889317095       -0.00632665977558
O            0.49780147606414        2.55265303086725       -0.03548668755562
N           -1.26171731947301        1.04655206440338       -0.01950695468887
C           -2.22164584999567        2.14258894094868       -0.06601957454624
C           -1.82396468737601       -0.20471263821645        0.00165243177528
O           -3.01955127081375       -0.38829394590114       -0.02776714161097
N           -0.93446973064223       -1.30369555131220        0.02317237587737
C           -1.46483970247508       -2.64173228931091       -0.08484682998303
H            3.73754773014428        1.22550402532083        1.03803040693231
H            3.99345129712967        1.02696145340637       -0.70978453620299
H            2.69322058056155        2.09599926227558       -0.10864200608250
H            3.57817043871511       -1.65278884840617        0.08028580894660
H           -1.66369234861022        3.07638204384556       -0.05386462377272
H           -2.82165306474042        2.07275314131881       -0.97283728739913
H           -2.88473945734482        2.08491770617141        0.79631948100153
H           -1.08269362972785       -3.27301878480117        0.73753313194362
H           -1.22594652139667       -2.98410079045782       -1.16867498555317
H           -2.55303305717649       -2.56503290194841        0.01684669501364
H            1.37185693417868       -2.94943354942194        0.06619996180341
25
 energy: 7.944156442814 xtb: 6.6.1 (8d0f1dd)
C            3.24316627612815        1.17287183948075        0.03956316782330
N            2.30655492221689        0.10303989340297        0.05945250716282
C            2.61217142361664       -1.25049034257767        0.11356310826293
N            1.42177137001772       -1.95194516495004        0.13802661106427
C            0.40228533065662       -1.06782470025051        0.10750416348357
C            0.91887650751036        0.21751755565590        0.06122037821308
C            0.10718948138481        1.36660875179134       -0.00597590063567
O            0.49048887518728        2.54947083807877       -0.06509091525916
N           -1.27462834179238        1.03172189993292       -0.01129990387786
C           -2.22442865339948        2.13075634298594       -0.08173138379830
C           -1.82493509899500       -0.20711351173265        0.03711774342460
O           -3.02713077588431       -0.40021266929968        0.01037067640084
N           -0.94190198969661       -1.30139764658210        0.10784623634133
C           -1.45944459429870       -2.62936530474375       -0.11980812638011
H            3.77125108485146        1.23671197923806        0.99672990566685
H            3.97299355440765        1.01809599610890       -0.75944001191254
H            2.68808906130375        2.09222046814360       -0.13131610127731
H            3.58659107970584       -1.66314673228828        0.12676168137356
H           -1.65729174296988        3.05976884838648       -0.06905468611715
H           -2.81184151245439        2.05833583804490       -0.99742532556595
H           -2.90093522502488        2.08348806489813        0.77113874172394
H           -0.97734416787241       -3.35097701234728        0.60295985292497
H           -1.33259053572843       -2.76759731916009       -1.39941448711811
H           -2.54520169704789       -2.58727978542807        0.12811919072828
H            1.36846003611338       -2.95422952461648        0.16721677349507
25
 energy: 19.853760572852 xtb: 6.6.1 (8d0f1dd)
C            3.24409698317486        1.16983204487176        0.01202873105097
N            2.30746296613581        0.10187091382904        0.07409085504999
C            2.61706773031878       -1.26034525744082        0.15948162417679
N            1.42139847471539       -1.95623026057802        0.21377566555546
C            0.40634433812656       -1.07564582686639        0.17370442900751
C            0.91609680278364        0.21310063387592        0.08890608400837
C            0.11042462209682        1.35482512241718       -0.01056954131548
O            0.48162343465886        2.54223979632212       -0.10156241293274
N           -1.28314790385745        1.02386034382654        0.00585594706952
C           -2.22788465960138        2.12161572500799       -0.09407294882313
C           -1.82574935522530       -0.21156789903124        0.09242648497362
O           -3.02895803192290       -0.41265444183299        0.07420646622430
N           -0.94362830765463       -1.30284170155466        0.18925862431459
C           -1.46329261257675       -2.60438382778691       -0.16967987584622
H            3.80440811187486        1.24562510633050        0.95159987279363
H            3.94942092826101        1.00981582841639       -0.80980066603606
H            2.68356307293029        2.08802847848382       -0.15196729552627
H            3.59283750899100       -1.66831962677521        0.16965791255531
H           -1.65472480671149        3.04711805711494       -0.09943274929969
H           -2.81003037655294        2.03096525799128       -1.01212203099044
H           -2.90958967979770        2.09377886358507        0.75592616942293
H           -0.91197976676481       -3.39559105990428        0.44862469498199
H           -1.41076678281452       -2.59464521491477       -1.57757484201608
H           -2.52842402701375       -2.61246538263555        0.17874988797891
H            1.37564600436191       -2.95895707057963        0.26552280976946
25
 energy: 27.544571002849 xtb: 6.6.1 (8d0f1dd)
C            3.24167347656632        1.16408322790814       -0.00785318154952
N            2.30665238613756        0.09350914393410        0.08762992428933
C            2.61592398788886       -1.26237604966701        0.19138894721373
N            1.42735573890223       -1.95739112506536        0.26651360227224
C            0.40753100201709       -1.08417438059730        0.21396362819038
C            0.91605485585581        0.20472334540242        0.10713724224157
C            0.11018285982849        1.34732714270799       -0.01592067438268
O            0.47508297184410        2.52861023376550       -0.12706241142558
N           -1.28633311188666        1.01786922179073        0.01845625961550
C           -2.22971453276546        2.11351260242911       -0.09967613330378
C           -1.82587170569848       -0.21800513086580        0.12628503037171
O           -3.02672232995760       -0.42003764135854        0.13168362326856
N           -0.94316723644163       -1.31365363821992        0.23964068874579
C           -1.46637107226404       -2.57945363583498       -0.19358263746286
H            3.82544332632349        1.24799405084745        0.91595382273093
H            3.92727320386301        1.00251442999168       -0.84570295555960
H            2.67782211741627        2.08245357777669       -0.16476558467191
H            3.59520669086732       -1.66734272664954        0.19882327927468
H           -1.65542193750946        3.03784522989218       -0.12166014588288
H           -2.81112345987014        2.00726378589710       -1.01665324502664
H           -2.91268770661798        2.10168331756472        0.74936673234527
H           -0.88996206666402       -3.39261668335634        0.34395386770434
H           -1.45301510093070       -2.47116246547539       -1.68978367973844
H           -2.50291342598259       -2.63321276541070        0.18353055273921
H            1.38931573701441       -2.96093446523486        0.33536734414792
25
 energy: 29.599363795937 xtb: 6.6.1 (8d0f1dd)
C            3.23919017166353        1.15971427450110       -0.00904312186530
N            2.30533064764210        0.08702314098396        0.09268595130786
C            2.61062622212756       -1.25824701234245        0.19880608540572
N            1.43130844937406       -1.95453385108209        0.27642763617201
C            0.40465538384670       -1.08599917380641        0.21791622899999
C            0.91637146914554        0.20123473930727        0.10928978502327
C            0.10890634173579        1.34748935100127       -0.01648252905602
O            0.47444723453461        2.52201964092962       -0.13909913050933
N           -1.28435069325465        1.01714429621729        0.02292414203437
C           -2.22873004838142        2.11167992395086       -0.10374187018616
C           -1.82655435939891       -0.21925772475476        0.13829729991698
O           -3.02482672125761       -0.41687327688676        0.14930143841336
N           -0.94392612663011       -1.32308838472093        0.25042696078219
C           -1.46671905997513       -2.56852438178288       -0.18945514598695
H            3.82558627064081        1.24419758901398        0.91009521487608
H            3.92031811527637        0.99891633953495       -0.84823418600934
H            2.67594297046634        2.07904553221042       -0.16355995409394
H            3.59178676260090       -1.66419196271974        0.20662277527734
H           -1.65582287726594        3.03627317484837       -0.13099205911469
H           -2.81006887678196        2.00026295185399       -1.01991741016026
H           -2.91202073621798        2.10547448777175        0.74458478058179
H           -0.86629733587468       -3.38543593587946        0.29762899511955
H           -1.47488522515710       -2.43919733182529       -1.71848203906776
H           -2.49341314981553       -2.64778917827586        0.20306924418378
H            1.39535983889291       -2.95830862587613        0.34796480410275
25
 energy: 29.957997210837 xtb: 6.6.1 (8d0f1dd)
C            3.23928896292805        1.15880379213134       -0.01197286066508
N            2.30603177336383        0.08390612336090        0.09313830172403
C            2.60719216930046       -1.25343696087664        0.20193035072120
N            1.43434834091803       -1.95162863214389        0.28427851676161
C            0.40262482051535       -1.08527605213746        0.22555776242182
C            0.91725122471798        0.20124462764396        0.11067361549433
C            0.10834638433541        1.34929412128793       -0.01301640039242
O            0.47510232177589        2.52021812759922       -0.14635244435262
N           -1.28115837201494        1.01683120339655        0.02605093427692
C           -2.22747264931631        2.11038987623151       -0.10374348156774
C           -1.82619866714304       -0.21902562440335        0.14204947021713
O           -3.02272018645778       -0.41415992449555        0.15097440694208
N           -0.94354304290375       -1.33017529647989        0.26425889116194
C           -1.46759737813882       -2.56571108608337       -0.17930521372070
H            3.82691394374610        1.24521755557780        0.90553746171586
H            3.91836426673855        0.99799291475838       -0.85212292438306
H            2.67553112746172        2.07797095147064       -0.16664648727195
H            3.58899588821421       -1.66185461247062        0.20651703852985
H           -1.65601160940937        3.03560311930078       -0.13078179115521
H           -2.80788436614559        1.99858566833048       -1.02019166973554
H           -2.91188225682700        2.10467025047391        0.74337907814765
H           -0.87673613114755       -3.38565876858036        0.27506931625219
H           -1.47615187076540       -2.43371012792707       -1.72642368049854
H           -2.48752945841597       -2.65528930628750        0.19551061041645
H            1.39710943260611       -2.95577333750563        0.35266509510711
25
 energy: 30.720803610505 xtb: 6.6.1 (8d0f1dd)
C            3.23915838555157        1.15836613542077       -0.00848794354062
N            2.30645487154861        0.08235852388563        0.09024310451950
C            2.60493210326561       -1.25113738832604        0.20056927960526
N            1.43509954083097       -1.95010919525186        0.28121501020669
C            0.40116192866676       -1.08349007562382        0.22191683701718
C            0.91736258076941        0.20240878888646        0.10581599227649
C            0.10804263297701        1.35114194162504       -0.01395903428013
O            0.47615635112590        2.52069455393251       -0.14778272821088
N           -1.27930513807223        1.01760334024179        0.02410668736949
C           -2.22667746039842        2.11118075143936       -0.10482838396616
C           -1.82652882355852       -0.21723613028102        0.13863469860608
O           -3.02238251691836       -0.41222996789325        0.14526200223875
N           -0.94358671741911       -1.33238901479286        0.26842627675302
C           -1.46825176430266       -2.56488505032551       -0.16635491478839
H            3.82242579123936        1.24361536048751        0.91134772117892
H            3.92137007290523        0.99866354001605       -0.84558099113578
H            2.67560200444240        2.07756795022015       -0.16407354809286
H            3.58655406722873       -1.66202017209947        0.20567935393317
H           -1.65592029856536        3.03698486957073       -0.13089335314514
H           -2.80673639735879        2.00040814752104       -1.02152399213770
H           -2.91144471513021        2.10413042594719        0.74194992422390
H           -0.86235239242317       -3.38914918971048        0.26302401501457
H           -1.48289313634129       -2.43913322420632       -1.72837623697825
H           -2.49118490609469       -2.65959467860405        0.21525410732955
H            1.39515860396741       -2.95472163990744        0.34545001215059
25
 energy: 31.437494359535 xtb: 6.6.1 (8d0f1dd)
C            3.23934559657459        1.15890455119613       -0.00796071527764
N            2.30701506021288        0.08212493481673        0.08699847460079
C            2.60504491273743       -1.25101205823616        0.20042501252935
N            1.43541736034475       -1.95028153656955        0.28093006106827
C            0.40134714232686       -1.08268628637216        0.22049620285817
C            0.91715941607310        0.20314813937876        0.10384894391741
C            0.10800422729479        1.35124961590892       -0.01424078779180
O            0.47643302021738        2.52158936165382       -0.14627547314638
N           -1.27899674475363        1.01725860687910        0.02371770497627
C           -2.22672378795800        2.11131810313240       -0.10463299715838
C           -1.82666057211266       -0.21650974235447        0.13745228082284
O           -3.02241955397559       -0.41344349675991        0.14136546796105
N           -0.94282050531849       -1.33219121277752        0.27147901223765
C           -1.46817387085268       -2.56586813142320       -0.15780658564318
H            3.82127524164783        1.24352423927821        0.91352918072721
H            3.92325563774837        0.99983693465666       -0.84437096000583
H            2.67520001528512        2.07773806396067       -0.16374783434556
H            3.58629875661670       -1.66298589890598        0.20478659250971
H           -1.65595091494471        3.03741063133293       -0.13056621691638
H           -2.80685957857196        2.00087828644063       -1.02144670092914
H           -2.91134797711478        2.10358687087506        0.74244664673593
H           -0.86360550960719       -3.38778649204582        0.26452642903586
H           -1.47948714074310       -2.44456814727022       -1.73335922954526
H           -2.49361301397334       -2.65694860106672        0.21710991217079
H            1.39307745078250       -2.95525813355622        0.34232947475548
25
 energy: 36.804337888546 xtb: 6.6.1 (8d0f1dd)
C            3.23959242567829        1.16045595093066       -0.00650781840427
N            2.30809449849789        0.08086606202632        0.07477430285312
C            2.60522748916737       -1.25054783726683        0.20191212213947
N            1.43654757654725       -1.95096131750870        0.28270648310162
C            0.40158650913042       -1.08105151321076        0.21675314531637
C            0.91549418810580        0.20494463304287        0.09841843837289
C            0.10787174046219        1.35108381564714       -0.01700391997546
O            0.47723376456743        2.52469531102318       -0.14012766736972
N           -1.27858538145839        1.01623135281456        0.02141790948334
C           -2.22674716545766        2.11255133554352       -0.10605345489721
C           -1.82777991711256       -0.21340064031659        0.13572976526965
O           -3.02293260025744       -0.41754996932470        0.13094880797921
N           -0.94072264327229       -1.33110152140546        0.28693815526677
C           -1.46814369325494       -2.56969903599274       -0.11510479064776
H            3.81684974113201        1.24307787531804        0.92061530613409
H            3.92984691406071        1.00316458201722       -0.84007882229647
H            2.67436082767271        2.07822822080304       -0.16350190344873
H            3.58549079108149       -1.66521925474500        0.20032932435856
H           -1.65554169419045        3.03910841841121       -0.13137146095754
H           -2.80700744938023        2.00275753118630       -1.02315627753462
H           -2.91072075314545        2.10299039296851        0.74199625667730
H           -0.86407255410284       -3.39334602152819        0.27328183284041
H           -1.46636618157883       -2.45289016516512       -1.77430460883099
H           -2.50345186528252       -2.64827840974202        0.22577711291786
H            1.38609010032620       -2.95708119335436        0.33264565779938
25
 energy: 61.610620250617 xtb: 6.6.1 (8d0f1dd)
C            3.23971632445273        1.16541080387630        0.00037377185105
N            2.31156357954316        0.07291466639131        0.02355601617600
C            2.60410797512288       -1.24626853762566        0.21370014730165
N            1.44393518108690       -1.95292420077637        0.29486392739809
C            0.40160426342792       -1.07650458748846        0.19874671759675
C            0.90741613184938        0.21120302870716        0.07656390239756
C            0.10735349840321        1.34914651750627       -0.03188700912161
O            0.48084989740163        2.53571885066373       -0.11555229592196
N           -1.27580339392854        1.01058253902678        0.00907266150772
C           -2.22642013322405        2.11616604934136       -0.11384336916288
C           -1.83236702312256       -0.20095389598901        0.12659945111541
O           -3.02387681279345       -0.43496183444866        0.09167878021319
N           -0.93057762402464       -1.32937524253951        0.35280264439708
C           -1.46672222679561       -2.58543956148790        0.09699699510312
H            3.79891246563425        1.24006022499147        0.94977333994921
H            3.95495599624291        1.01485865489193       -0.82246293701787
H            2.67029155765387        2.07894526321024       -0.16176730766480
H            3.58110812329507       -1.67157053976747        0.18458944462154
H           -1.65409131161786        3.04475429488534       -0.13557784883484
H           -2.80689789804071        2.00909300980403       -1.03194157661151
H           -2.90795030778706        2.09838727449498        0.73785871889151
H           -0.85982649143081       -3.40856171235910        0.32194831591277
H           -1.41696258368734       -2.47176304292370       -2.01474299289289
H           -2.54790334621617       -2.61562940796381        0.28107326830775
H            1.35979882649107       -2.96426001224914        0.29461113063522
25
 energy: 73.519024812645 xtb: 6.6.1 (8d0f1dd)
C            3.23824411893289        1.16628549927226        0.00470931214818
N            2.31150983293860        0.06579863457575        0.00402671635016
C            2.60019535213643       -1.24104921144229        0.21894946931958
N            1.44833981314581       -1.95391791782292        0.30391586414392
C            0.39761885298867       -1.07494003764295        0.19067253650726
C            0.90266564484452        0.21378431731540        0.07003812547440
C            0.10662965085094        1.34984085538755       -0.04106879858971
O            0.48475293865453        2.54105560199787       -0.10916460824997
N           -1.27247761238458        1.00965114429048        0.00322361060249
C           -2.22589694985661        2.11932332491877       -0.12020396856618
C           -1.83519332378257       -0.19333843857259        0.12693502997842
O           -3.02290904201790       -0.44147253266270        0.07928935849452
N           -0.92414333329686       -1.32722694393940        0.38415133742391
C           -1.47055209315368       -2.59347012818207        0.24917131922492
H            3.79222565692038        1.23804159923155        0.96242425522886
H            3.96252608443235        1.01680707991334       -0.81554395656650
H            2.66743880918491        2.07803760440811       -0.16050869980962
H            3.57640883310511       -1.67182584849429        0.17841708347275
H           -1.65413900059518        3.04944344828583       -0.14262374788376
H           -2.80671874746453        2.01014222720889       -1.03821838771361
H           -2.90582084783772        2.09908196625163        0.73384149532781
H           -0.85119102221238       -3.43285918835967        0.35240162394285
H           -1.37995312627192       -2.47239272272327       -2.19455263618683
H           -2.57379408617066       -2.59859541556501        0.30999968807486
H            1.34644826484560       -2.96717631547816        0.27675187399853
25
 energy: 74.942552431832 xtb: 6.6.1 (8d0f1dd)
C            3.23440555971495        1.16076649129924        0.00371815385303
N            2.30601028840906        0.05971668487398        0.03480794605172
C            2.59377391082266       -1.23482129532483        0.21387340711322
N            1.45029583012389       -1.95498575143017        0.30961827224811
C            0.38785901121593       -1.08122996048615        0.19365875877915
C            0.90365147854718        0.20908844605715        0.08687491556607
C            0.10549787016916        1.35180507299844       -0.04286973422771
O            0.48718638565938        2.53586417389461       -0.12563335894940
N           -1.26952666612586        1.01359441114434        0.00481167284228
C           -2.22556433684038        2.11919604358609       -0.12262903323061
C           -1.83590518999288       -0.19556040430241        0.13541328470474
O           -3.01940310587982       -0.43406516287298        0.10639753217405
N           -0.92236886671605       -1.32413170739649        0.34853485661998
C           -1.48363382299260       -2.58629954077927        0.33702346151041
H            3.80229594711267        1.23766562992073        0.94711042965811
H            3.94366846969350        1.00477952518283       -0.82531161344265
H            2.66709900766003        2.07470476246301       -0.16126480953318
H            3.57355982791708       -1.66170989360410        0.19046861992067
H           -1.65541607602035        3.04838065362460       -0.14812871954174
H           -2.80629224295352        2.00411484056672       -1.03912273941679
H           -2.90557365271324        2.10336788612966        0.73088295134346
H           -0.84447316066135       -3.44764293443421        0.37611330716337
H           -1.35935325355029       -2.44817967036543       -2.32778379585665
H           -2.57262056546234       -2.60140586799108        0.30547602435920
H            1.35704202079933       -2.96398383058215        0.29499410643842
25
 energy: 74.203518497294 xtb: 6.6.1 (8d0f1dd)
C            3.23109143929047        1.14951412900277       -0.00253346726453
N            2.29620408721762        0.05856459966666        0.09435953246969
C            2.58430305153727       -1.23020256965226        0.18893194722685
N            1.45084245671713       -1.95523897736188        0.29315479546175
C            0.37495917677018       -1.09636024437574        0.21310907993341
C            0.91424173945044        0.20103523234842        0.10570323273012
C            0.10512504258452        1.35172281578416       -0.03433532738473
O            0.48342007444992        2.51601953444132       -0.13932463992129
N           -1.26743861740698        1.01755182104996        0.00227405593525
C           -2.22209311066937        2.11275098714835       -0.12217781583408
C           -1.83253075411775       -0.21637092135148        0.12826917234887
O           -3.01677509452049       -0.41441844223374        0.13910062309562
N           -0.93017547487375       -1.33207967035891        0.26775172861433
C           -1.49347610918086       -2.57316733007190        0.37303338465476
H            3.80325639699571        1.23434191656083        0.91836542142752
H            3.92226224993267        0.99206380363957       -0.83040537255898
H            2.67084546658769        2.07006104588773       -0.16477014476148
H            3.57277207714756       -1.64495511804324        0.21123548865497
H           -1.65586287260872        3.03981950645374       -0.14415214971310
H           -2.80255014861152        1.99996291724663       -1.03627377261354
H           -2.90502935774224        2.10060337028087        0.72622231698095
H           -0.86131799549129       -3.40928642015708        0.44322953822736
H           -1.36525507659007       -2.38854090758025       -2.44234430318463
H           -2.53819499998169       -2.63659495910804        0.31263092380457
H            1.39359102104971       -2.95776751704438        0.32597964781763
25
 energy: 75.391562598950 xtb: 6.6.1 (8d0f1dd)
C            3.23105780543504        1.14773557624899       -0.00236325568927
N            2.29410224314082        0.05887371171180        0.09386535042280
C            2.57942134169763       -1.22805705100886        0.18568945824759
N            1.45394140565592       -1.95484296225127        0.28541992305389
C            0.37157736510723       -1.09600642930167        0.22419563960978
C            0.91734214133357        0.20448752053911        0.10047006739675
C            0.10580243000714        1.35439985347208       -0.02879684131749
O            0.48497962595166        2.51658757444586       -0.14138442065057
N           -1.26388839799207        1.01744889599273       -0.00409261257222
C           -2.21896608375985        2.11174703152735       -0.12523978632267
C           -1.83051961392588       -0.22112536219356        0.11459382266040
O           -3.01857923074219       -0.40688424260800        0.12717109478978
N           -0.93540011311979       -1.34121881551449        0.27768216745860
C           -1.49666099101251       -2.57061815112492        0.44988187505311
H            3.79998567199321        1.23522187027890        0.92218608042666
H            3.92294625419564        0.98791286206482       -0.82818189326097
H            2.67042496418744        2.06921545986472       -0.16625158040949
H            3.56987438769167       -1.64175376690123        0.21591727822421
H           -1.65619931960854        3.04187041304831       -0.14486582771108
H           -2.80020442245591        2.00232921209533       -1.03957869937360
H           -2.90290703408612        2.09708864614979        0.72278285308834
H           -0.85058291472507       -3.42815653099176        0.46973060996627
H           -1.36754207961784       -2.34900371297378       -2.54852772178388
H           -2.54959738687993       -2.65794320174485        0.34068854516020
H            1.40180661946488       -2.96027979865327        0.32604176968015
25