25
 energy: -42.146409929808 gnorm: 0.018838813957 xtb: 6.6.1 (8d0f1dd)
C            3.38504000167711        0.89538437125248        0.04050669742717
N            3.56200128215031       -0.49243549289728        0.02768611913030
C            2.69262807488297       -1.38815740942327        0.00769066966247
N            1.27722409282249       -1.40668331043703       -0.01738836908478
C            0.16633984689136       -0.62305474503745       -0.01202210266550
C           -0.14242140127559        0.77683553073595       -0.01870136569441
C            0.63649196675047        1.88595776378011       -0.04096428778491
O            0.83582660869099        3.03416541395249       -0.05288525672445
N           -1.54328906902711        0.88917461592480       -0.00712752454260
C           -2.33843801390862        2.09002364959630       -0.00411795813827
C           -2.10748640964883       -0.35355764782830        0.00042235499900
O           -3.26658717612656       -0.64694734832100        0.01020579655557
N           -1.02902602850007       -1.26487921051336       -0.00356222318403
C           -1.27602260665836       -2.68366108500430       -0.00016098078906
H            3.80755400506313        1.30216308226127        0.96210289868783
H            3.93139775962641        1.33167915445264       -0.79887442094795
H            2.30509127685554        1.20603320376462       -0.02967566993164
H            3.06530880920893       -2.40568727288881        0.00453956124369
H           -1.70408191853291        2.97135002904286        0.01270666280727
H           -2.97037145413384        2.11209467150011       -0.89373743604925
H           -2.98935525343714        2.09174726818253        0.87180647134140
H           -0.86797863761119       -3.15863584783874        0.89402924999428
H           -0.88457350435012       -3.15935127409898       -0.90153839886748
H           -2.35982284257645       -2.80837154308066        0.00928512903197
H            0.97498210526693       -2.37694802547709       -0.02905399857676
25
 energy: -42.147793693302 gnorm: 0.012828097663 xtb: 6.6.1 (8d0f1dd)
C            3.35510128028211        0.91394288211172        0.04066765847613
N            3.52834341828510       -0.47176799253767        0.02749325588380
C            2.68035264191592       -1.38460752186381        0.00652588365147
N            1.27217750503947       -1.42239996034472       -0.01848912854718
C            0.16956876444810       -0.63640941161195       -0.01208666010686
C           -0.11874709912616        0.76435056799155       -0.01503758428296
C            0.65688295860105        1.87582435910218       -0.03111569055836
O            0.85011051030509        3.02465865002254       -0.06265346821761
N           -1.52284648519053        0.88531925942397       -0.00629247160390
C           -2.31685574651796        2.08889074650991       -0.00401843961018
C           -2.09837217087783       -0.35254617901498        0.00016326698657
O           -3.25995163697903       -0.63672223326708        0.00903611393951
N           -1.02781397289393       -1.27125903270874       -0.00386209572907
C           -1.28171819808629       -2.68897719075944       -0.00028611192043
H            3.78391072372103        1.31755398346166        0.96073234078778
H            3.90217109595093        1.34694405892935       -0.79976962098548
H            2.27904257167280        1.21962075151095       -0.02561500104453
H            3.07126633250714       -2.39557884293320        0.00364169720315
H           -1.68336700787186        2.97044542150932        0.01419427180360
H           -2.94936741577718        2.11239514380542       -0.89379111723677
H           -2.97086756205049        2.09099442018590        0.87020207755271
H           -0.87460028934028       -3.16476897309857        0.89413698872987
H           -0.89116570004186       -3.16602745065914       -0.90154561527610
H           -2.36655569987536       -2.80768635746852        0.00944390335885
H            0.97373269599980       -2.39395055669705       -0.03050283535427
25
 energy: -42.148854818216 gnorm: 0.020073148747 xtb: 6.6.1 (8d0f1dd)
C            3.29057746063051        0.95209103001023        0.04303522202259
N            3.46040217814063       -0.42661461581078        0.02639938146417
C            2.66077282469395       -1.38161965579562        0.00391561624456
N            1.26612360729750       -1.46486273422800       -0.01946235942132
C            0.17839488497086       -0.66800055415054       -0.01228757902411
C           -0.06754071895720        0.73547811604423       -0.02879975109946
C            0.69693860674861        1.85581937127183       -0.07736699787582
O            0.86098087657278        3.01173349185252       -0.01523956317890
N           -1.47817673780989        0.87826697236450       -0.00885693249903
C           -2.26642893673410        2.08822513534001       -0.00669088070074
C           -2.07903339463042       -0.34760810368323        0.00324579489653
O           -3.24623442276437       -0.60980903959045        0.01464676966598
N           -1.02622141582801       -1.28426266685768       -0.00212271593983
C           -1.29649752299916       -2.69953071135707        0.00184727714947
H            3.73202181206553        1.35207372671262        0.95905411048336
H            3.82914626315064        1.38359637092209       -0.80376186473696
H            2.21440237016928        1.24928401232643       -0.00863416593570
H            3.09628983282459       -2.37622440999718        0.00048040769646
H           -1.63165385108849        2.96822249168651        0.01069911681358
H           -2.90142483338473        2.11243386009945       -0.89533545234414
H           -2.92163687487746        2.09213775734958        0.86753606466822
H           -0.89239713138841       -3.17861297096074        0.89613370989118
H           -0.91067308959593       -3.18077251961532       -0.89951449587649
H           -2.38310167107374       -2.80421261842635        0.01243164726597
H            0.97540139796703       -2.43899319390604       -0.03018074172921
25
 energy: -42.149404990554 gnorm: 0.024426960660 xtb: 6.6.1 (8d0f1dd)
C            3.25366201556208        0.97262147440132        0.04270698210289
N            3.42412692334262       -0.39978152052261        0.02847447126540
C            2.65536998838914       -1.38257630238009        0.00363741249309
N            1.26715422118851       -1.49684727672965       -0.02083419636807
C            0.18484360373621       -0.68964182958440       -0.01115424276099
C           -0.03827724456544        0.71589606088365       -0.00480742300569
C            0.71901191097597        1.84503657461857       -0.00254602983465
O            0.84260900536938        3.00681151864492       -0.09281873669986
N           -1.45147605150214        0.87429861188267       -0.00334704370083
C           -2.23135546497721        2.08970401393763       -0.00356772817192
C           -2.06802692706215       -0.34321927629327       -0.00101408718845
O           -3.23867067061830       -0.59067235915394        0.00513452443826
N           -1.02637563732796       -1.29227750007269       -0.00484479233866
C           -1.30861844341742       -2.70564044957126       -0.00064359632319
H            3.69303488898751        1.37755889788563        0.95773781922701
H            3.78348713886280        1.40634108038179       -0.80866156718433
H            2.17133054474322        1.27015194666859       -0.00722729326288
H            3.12157315505628       -2.36471799555427       -0.00160120175827
H           -1.59172417760413        2.96593328836383        0.02027469343357
H           -2.85914294568692        2.11809865279260       -0.89728506425611
H           -2.89182412804325        2.09276324874895        0.86648090314701
H           -0.90963862308183       -3.18796716051199        0.89428561846440
H           -0.92599019370355       -3.19070868571038       -0.90118301747904
H           -2.39602274810917       -2.80049118569750        0.00942626819816
H            0.98137137358537       -2.47243528582949       -0.03545105453758
25
 energy: -42.150119596085 gnorm: 0.016875803634 xtb: 6.6.1 (8d0f1dd)
C            3.26626413673658        0.96509237809640        0.04427397267885
N            3.43741011643020       -0.40671389355856        0.02690295430764
C            2.66250697784398       -1.38199818831624        0.00294099107755
N            1.27157635691528       -1.49260309291542       -0.02064159555349
C            0.18361469655289       -0.68682250473235       -0.01212691790008
C           -0.04995027502307        0.71718264349102       -0.01371570579280
C            0.71091047943685        1.84454012029361       -0.02686796997593
O            0.82483289992603        3.00677152445125       -0.06767202792747
N           -1.45940699288703        0.87401334135662       -0.00609072092374
C           -2.23421861761116        2.09124578535200       -0.00523296431579
C           -2.07166811329399       -0.34470518788690       -0.00020981820300
O           -3.24110202236236       -0.59505277601284        0.00848289425649
N           -1.02733229924207       -1.29169884398212       -0.00408470288032
C           -1.30978605960049       -2.70467286522569        0.00079802884707
H            3.70261595798156        1.37380525338065        0.95881572880286
H            3.78601719097388        1.40534865455613       -0.81013457032206
H            2.17866236185889        1.26951110645828       -0.00017001959539
H            3.12367050469386       -2.36394888081877       -0.00248008345637
H           -1.59004244263193        2.96455393204522        0.01749991762627
H           -2.86177953935288        2.12223841794649       -0.89839152115652
H           -2.89164263343303        2.09747679511256        0.86647558364919
H           -0.91118441769891       -3.18726721199685        0.89549468654032
H           -0.92857759576836       -3.19019938348436       -0.89993656816595
H           -2.39699985146713       -2.79980315191152        0.01116824900204
H            0.98604069512211       -2.46805543009927       -0.03392620271974
25
 energy: -42.150776729695 gnorm: 0.013481860884 xtb: 6.6.1 (8d0f1dd)
C            3.25882677772380        0.96967633630407        0.04685448145034
N            3.43218766624946       -0.39663379822582        0.02497902841217
C            2.66759189349411       -1.37980551791448        0.00129230692895
N            1.27738714165577       -1.50535857312721       -0.01972457003900
C            0.18540515687134       -0.69741489367192       -0.01121664347445
C           -0.04791512567511        0.70479397081640       -0.01916561492753
C            0.72079492574321        1.83051460977293       -0.04232866263183
O            0.79260147548780        3.00104843586263       -0.05337892682853
N           -1.45321185119269        0.87024218324748       -0.00800566230546
C           -2.21504079747411        2.09447127262083       -0.00710800730753
C           -2.06958928107870       -0.34550781194560        0.00059500662496
O           -3.23984778387784       -0.59120212107584        0.01053414690028
N           -1.02848464342050       -1.29757198214574       -0.00308792798435
C           -1.31989594207317       -2.70836543933819        0.00193639778151
H            3.69297588718244        1.38533810891921        0.95920888152634
H            3.75806867700619        1.42058787477195       -0.81481804276605
H            2.15876547485141        1.28404178153537        0.01415582912423
H            3.14130226938282       -2.35430332626172       -0.00653808933375
H           -1.56129182625124        2.96106677929411        0.01690344384460
H           -2.83971185634984        2.13342945424019       -0.90133473701505
H           -2.87148232559362        2.10758998666006        0.86459802577620
H           -0.92447851183525       -3.19354640727452        0.89632256392254
H           -0.94263361413254       -3.19653945578236       -0.89878621457160
H           -2.40765554275131       -2.79685566843061        0.01249715217578
H            0.99576327015734       -2.48145725725149       -0.03321254738296
25
 energy: -42.151463901540 gnorm: 0.014034682218 xtb: 6.6.1 (8d0f1dd)
C            3.24239713364253        0.98218464284634        0.04783959560008
N            3.41512372969944       -0.37423612088193        0.02286063429758
C            2.66990084172065       -1.37376936323615       -0.00111829907301
N            1.28368105805492       -1.52560269657664       -0.01771555802270
C            0.18679070763707       -0.71541104862004       -0.00888418739711
C           -0.04151120773281        0.68392416219671       -0.02055218928732
C            0.75228664645575        1.80057823127846       -0.04348645050703
O            0.75314965140447        2.98089012402629       -0.04080448512961
N           -1.44039443691161        0.86442912340543       -0.01017768090593
C           -2.18254971348201        2.09919484019917       -0.01012420848101
C           -2.06537775727363       -0.34680796133017        0.00028694418728
O           -3.23732676073386       -0.58471780660885        0.01057311398792
N           -1.03088020663951       -1.30821279148194       -0.00191948080969
C           -1.33631480413760       -2.71562137935103        0.00347446288657
H            3.67070701997550        1.40904553012570        0.95795207961723
H            3.71425136255380        1.44608626992188       -0.82313743655401
H            2.12079176561918        1.31294909488481        0.02649518158374
H            3.16676072339446       -2.33599025269709       -0.01286344646426
H           -1.51378051774868        2.95493617376143        0.01814597237046
H           -2.80111059445125        2.15153324042295       -0.90748827546971
H           -2.84060478407757        2.12242717444573        0.85959126736963
H           -0.94573462215369       -3.20485339724101        0.89744328952784
H           -0.96425362359253       -3.20803176470197       -0.89681702787514
H           -2.42486081385180       -2.79363718306451        0.01405376609124
H            1.00929071672863       -2.50304830012346       -0.03245596364308
25
 energy: -42.151786512692 gnorm: 0.009597677034 xtb: 6.6.1 (8d0f1dd)
C            3.24185322347290        0.98629277671660        0.04460433154658
N            3.40685114595473       -0.36477515142485        0.02253931573099
C            2.66716583224313       -1.36965210140706       -0.00164239848349
N            1.28491821007736       -1.52861465791321       -0.01532997352254
C            0.18534704553852       -0.71970010305090       -0.00606833102346
C           -0.04213327583599        0.67828603554678       -0.01531480818402
C            0.77475171368604        1.78570219127790       -0.02638543767161
O            0.73821329480642        2.96740183450608       -0.03918278291742
N           -1.43687251086935        0.86249230715949       -0.01013695487416
C           -2.17173720152696        2.10059005849295       -0.01170435317222
C           -2.06446780641226       -0.34837528471193       -0.00057869543576
O           -3.23684494516124       -0.58527409558195        0.00789805376108
N           -1.03213792181359       -1.31257119894922       -0.00132493467003
C           -1.34184585018304       -2.71886297360655        0.00363590118158
H            3.66078471866800        1.41998657789484        0.95601788015227
H            3.70485490663757        1.45325138238443       -0.82847510124968
H            2.10536832016716        1.32384002481481        0.02027663221481
H            3.17186584834870       -2.32761048898782       -0.01486859768379
H           -1.49587820301262        2.95077383461169        0.02053997359803
H           -2.78542581998176        2.15961634511751       -0.91206100570442
H           -2.83339210124568        2.12808201812195        0.85515451478498
H           -0.95298212592592       -3.20972150530636        0.89743595231933
H           -0.97086766237680       -3.21259346947440       -0.89631500054223
H           -2.43053892199188       -2.79366646783665        0.01388148124622
H            1.01358160083641       -2.50665934679386       -0.03142404350099
