25
 energy: -42.479339765009 xtb: 6.6.1 (8d0f1dd)
C            3.10378645332350        1.02774109804940        0.10184259669367
N            2.30129619844324       -0.02303304998880        0.02075951966733
C            2.55896687020253       -1.35595071161254       -0.00760104141280
N            1.35554030143078       -2.05752807293828       -0.03109204352816
C            0.35718618153050       -1.16498501739019       -0.03489374170603
C            0.90847029416928        0.10689087566733       -0.02265819017769
C            0.11923287370545        1.29447615325586        0.02300035212016
O            0.49670277161701        2.44824493247155        0.06303069225191
N           -1.25411589088441        0.97947147998960        0.01045915179632
C           -2.17957511706960        2.10145688559132        0.04120365728449
C           -1.83454662552690       -0.26074623419686       -0.03552287692447
O           -3.03424517243428       -0.41328402317562       -0.06108075687188
N           -0.98378820445544       -1.37053967523704       -0.03979228140440
C           -1.55996079389093       -2.69558963166735       -0.07977140825400
H            2.63196752426972        1.96425229767218        0.39035865739155
H            4.07364346078456        0.81323657154016        0.49217783000384
H            4.30540006711559        3.28732495936007       -0.54127058979680
H            3.52224008955151       -1.81100047306353        0.06850286628017
H           -1.57006011998471        2.99941127397770        0.08383488998376
H           -2.79715939127375        2.09967724548472       -0.85530628965625
H           -2.82433770069189        2.03134025546162        0.91618973482620
H           -1.27231543278858       -3.27637064900421        0.79838376070203
H           -1.26942704827479       -3.22209686509060       -0.98963483406737
H           -2.64206942979957       -2.57538117267564       -0.08299779709361
H            1.27455591517872       -3.05731065042704       -0.03993526035838
