25
 energy: 0.000000000000 xtb: 6.6.1 (8d0f1dd)
C            3.23720132972391        1.16630909158653        0.08434468864950
N            2.29877796055224        0.07527476373246        0.03981602671198
C            2.58028186251803       -1.21425391179017        0.03006175752192
N            1.43813944744728       -1.93419254010258        0.00098261751768
C            0.39035684826767       -1.05887462812143       -0.00790371763344
C            0.93510047688824        0.21347817468824        0.01709077332874
C            0.09450143016486        1.40504290868848       -0.00410946993748
O            0.49712746915594        2.54126690785742       -0.00342325656480
N           -1.25076628431515        1.06271869620815       -0.03085477937476
C           -2.21907191394203        2.15522079838987       -0.05001256521996
C           -1.81739470187490       -0.20012724136556       -0.04692818139228
O           -2.99983858926755       -0.37846413507442       -0.07008877579474
N           -0.92618577614240       -1.30210203518959       -0.03682761236648
C           -1.46982251276835       -2.64643077634382       -0.06029819901142
H            3.71247229913541        1.21471443890471        1.06488839270555
H            4.00791460421487        1.03430799217987       -0.67357688121503
H            2.69909982127087        2.09770098766290       -0.09130154035862
H            3.56654087521359       -1.63682977417947        0.04233139674524
H           -1.67107945562430        3.09322822573871       -0.02552706696334
H           -2.82428927394145        2.09428605349656       -0.95318074103337
H           -2.87644002486466        2.07745706351925        0.81450059976605
H           -1.17061985538665       -3.19584861009707        0.83242224714061
H           -1.14560246782873       -3.17511580834413       -0.95688266944647
H           -2.55549768731684       -2.55659960601237       -0.07459039105944
H            1.38130842369251       -2.94313824728853       -0.01389874052104
25
 energy: -5.796493732482 xtb: 6.6.1 (8d0f1dd)
C            3.24367407938893        1.19733397026757        0.07265910757673
N            2.30402457983529        0.11795121697937        0.02124055977622
C            2.60248328879394       -1.23435337071631        0.03710947892961
N            1.41971895239169       -1.93837952471277        0.00276370681516
C            0.39742884654227       -1.06276751876258       -0.01081918405514
C            0.91674956845245        0.22544647954082        0.00830760752890
C            0.11304618462861        1.38516982874108       -0.00302482602799
O            0.49206625209414        2.55915092773808        0.00400844747304
N           -1.26982144183615        1.04670148843010       -0.02893454831246
C           -2.22017599512766        2.14588146858222       -0.04399684997688
C           -1.81901890303583       -0.19965113694129       -0.04720350652498
O           -3.01797304020793       -0.38577187150164       -0.07156544502409
N           -0.94111409669344       -1.30355672535131       -0.03789245776713
C           -1.47764754377884       -2.64501181744078       -0.06342798164857
H            3.65968428442270        1.29484338151877        1.07386656285160
H            4.06202162033546        0.99538193448839       -0.61962171561255
H            2.78408337803078        2.16384368859436       -0.15512910722276
H            3.57484270019444       -1.65888347679331        0.04613433690190
H           -1.65964021533926        3.07866003926914       -0.01908376365401
H           -2.82628754791700        2.09470961412339       -0.94716992220500
H           -2.87670371353213        2.07367122351834        0.82236329623448
H           -1.17579238928332       -3.20188607844965        0.82685883719995
H           -1.15180555463872       -3.17756862182872       -0.96039891192181
H           -2.56342042371276       -2.55510815867630       -0.07745320535336
H            1.36349852430181       -2.94344929892560       -0.01201731322062
25
 energy: -4.154250924633 xtb: 6.6.1 (8d0f1dd)
C            3.24994041507324        1.22026158084065        0.05794947310272
N            2.30416152520411        0.13305876400033        0.00062161724252
C            2.60361567399567       -1.23128193261350        0.04380143997445
N            1.41657598361952       -1.93811659520476        0.00401349692119
C            0.39430322380754       -1.06462430134212       -0.01565589112541
C            0.91327317655462        0.22463564931221       -0.00229408636680
C            0.10900373567602        1.38094338468115       -0.00321239326629
O            0.48461223461961        2.55463709598327        0.01178180529890
N           -1.27348929221285        1.04041456392639       -0.02709660876593
C           -2.22020147981940        2.14133920175204       -0.03790092775225
C           -1.82398045915166       -0.20486232175785       -0.04700955790977
O           -3.02340616572901       -0.38886542655408       -0.07078778643907
N           -0.94533204420124       -1.30717543801576       -0.03930165978466
C           -1.48418887288952       -2.64827641150193       -0.06646676145923
H            3.59067256563754        1.37056702481801        1.08023050410639
H            4.11338693483728        0.95133072136309       -0.55568185129110
H            2.87476395102517        2.21665780165349       -0.22831218514051
H            3.57117874269700       -1.67017447470676        0.04884231406305
H           -1.65351257904617        3.07067309416956       -0.01421749295671
H           -2.82796680005374        2.09412561629567       -0.93944840257655
H           -2.87432364831704        2.07036329506137        0.83034727731069
H           -1.18270672908293       -3.20801360404915        0.82223970404451
H           -1.16024132788390       -3.18072436382457       -0.96438013250057
H           -2.57043844959179       -2.55693763931563       -0.07990900262792
H            1.35309620476682       -2.94388354288339       -0.01061438317193
25
 energy: -1.627289344555 xtb: 6.6.1 (8d0f1dd)
C            3.25845434180712        1.24225385158372        0.04028627797721
N            2.30649092830602        0.14544414932090       -0.02659856094878
C            2.60418783614309       -1.23026758209289        0.02817847746468
N            1.41281206511595       -1.93853208378543        0.00461928231629
C            0.39157243132669       -1.06661051373450       -0.02022796025617
C            0.91188535131262        0.22297260040008       -0.01524166254484
C            0.10525542657121        1.37537277739233       -0.00282061916484
O            0.47661791327567        2.54901974235579        0.02052451430099
N           -1.27725763163587        1.03360374348143       -0.02477351272198
C           -2.21998607700761        2.13709262557626       -0.03137502104914
C           -1.82881876751142       -0.21077507542622       -0.04720282446529
O           -3.02865470369930       -0.39311462171491       -0.07056062226096
N           -0.94923965603877       -1.31091118039244       -0.04075710209093
C           -1.49042699903740       -2.65147482413532       -0.06981331415665
H            3.51664728353395        1.44553842416475        1.07935516283691
H            4.16015197459970        0.91010951869072       -0.48734240851560
H            2.96911436489224        2.26058077146796       -0.30750445292620
H            3.56603077186409       -1.68285316050510        0.05498726866493
H           -1.64704291812581        3.06279212619624       -0.00657942297300
H           -2.82809912885280        2.09635041574764       -0.93243888466378
H           -2.87348334955786        2.06666112563040        0.83732929732763
H           -1.18917368953557       -3.21352133499802        0.81758560304759
H           -1.16904458113420       -3.18406571984097       -0.96873624068120
H           -2.57705756533085       -2.55759265332299       -0.08235779368257
H            1.34212109779552       -2.94456067014046       -0.00961094793315
25
 energy: 1.355418302096 xtb: 6.6.1 (8d0f1dd)
C            3.27041608751130        1.26260481589956        0.02282177530784
N            2.31140384072588        0.15491964003121       -0.05687717002713
C            2.60406591673669       -1.22974196590034        0.00277704524090
N            1.41000757288211       -1.94105381986238        0.00567170526803
C            0.38974994179532       -1.06994955735531       -0.02302207078558
C            0.91291388213731        0.21953578750412       -0.02811718010824
C            0.10323791962869        1.36841447268405       -0.00187953469128
O            0.47050506730664        2.54214929546252        0.02914286889033
N           -1.28019598836915        1.02654520316436       -0.02172448158309
C           -2.21889091953668        2.13300957940723       -0.02474316272111
C           -1.83304249190445       -0.21677010365451       -0.04685703289324
O           -3.03322573146564       -0.39775743584503       -0.07079500643404
N           -0.95259012816905       -1.31505300870435       -0.04139420517763
C           -1.49675177595688       -2.65493724748710       -0.07352862210687
H            3.44118142715079        1.52077488787311        1.07191165042166
H            4.20297079471406        0.87371147152110       -0.41341436087435
H            3.06476426998496        2.29212194973844       -0.39135113033160
H            3.56000010749934       -1.69548728438204        0.05825625267142
H           -1.64046020975566        3.05550355378125        0.00110193206034
H           -2.82740276514670        2.09855231461171       -0.92540031073693
H           -2.87187272047158        2.06341957905651        0.84433307487288
H           -1.19652703736402       -3.22032677971997        0.81215272676563
H           -1.17772401142459       -3.18715844954125       -0.97364673133710
H           -2.58378427728278       -2.55811752151988       -0.08543892650389
H            1.33189009161374       -2.94711007862412       -0.00606989871832
25
 energy: 5.020268686815 xtb: 6.6.1 (8d0f1dd)
C            3.28372717812464        1.28528674606253        0.00736054353908
N            2.31977047029497        0.16207190156734       -0.08953214709445
C            2.60624430815435       -1.23022632501898       -0.02330450651805
N            1.41267964277499       -1.94505912351782        0.00415307707997
C            0.39069095288414       -1.07513660005826       -0.02546026087262
C            0.91702063913071        0.21424044906383       -0.04018560380976
C            0.10324567563267        1.35993039333621       -0.00118398206285
O            0.46737164584471        2.53362976607324        0.03581916259801
N           -1.28192418360435        1.01942687452156       -0.01814834138529
C           -2.21730744288774        2.12877455028839       -0.01777252521171
C           -1.83584910022259       -0.22283793087520       -0.04586543924889
O           -3.03639178055499       -0.40298469343542       -0.06965791077074
N           -0.95415625988220       -1.31960404295341       -0.04181751697992
C           -1.50266327341582       -2.65827238833516       -0.07692107880085
H            3.36387222242921        1.59202602844757        1.05788152994422
H            4.23822516432957        0.85074771597842       -0.33105212182084
H            3.16358567087531        2.32161260925679       -0.46695525061831
H            3.55474971808548       -1.70996237483670        0.05938866102738
H           -1.63465769313674        3.04873272677793        0.00959319698358
H           -2.82607238089157        2.10056270748118       -0.91819748928093
H           -2.87057826097380        2.05964923644713        0.85110227551655
H           -1.20330129758786       -3.22686313744277        0.80700124511076
H           -1.18627759537534       -3.19002989170743       -0.97829999515340
H           -2.59020279385846       -2.55837232550959       -0.08801707335614
H            1.32497298081182       -2.95146379418968        0.00322433371549
25
 energy: 9.160841296495 xtb: 6.6.1 (8d0f1dd)
C            3.29121526254102        1.29259047999544       -0.00341441359987
N            2.32674948126424        0.16125870783769       -0.11906909306500
C            2.60800192874597       -1.23466448642655       -0.04820110670568
N            1.41454600700836       -1.95067709475218       -0.00604912950319
C            0.39076440980564       -1.08152425904272       -0.02756081909046
C            0.92127816661805        0.20716662445400       -0.04824998403726
C            0.10352879649588        1.35058599855465        0.00096948169003
O            0.46509859994975        2.52414361607653        0.04274272815049
N           -1.28383248446487        1.01235815520805       -0.01413913927390
C           -2.21625468799211        2.12443529208597       -0.01069763467127
C           -1.83877140125953       -0.22882692391509       -0.04511436401805
O           -3.03960891033267       -0.40825434846969       -0.07057129750622
N           -0.95625443093289       -1.32449866130582       -0.04217890838001
C           -1.50893391897581       -2.66164047657224       -0.07984662095699
H            3.28458171275640        1.66114037740631        1.03149419818613
H            4.26554895368873        0.83366750774331       -0.23981541997327
H            3.26803812745203        2.34138485215208       -0.52684613198223
H            3.54989906396449       -1.72492479017013        0.05894826278034
H           -1.62964561928043        3.04197757722342        0.01688599720652
H           -2.82626928040760        2.10136154605227       -0.91030890830595
H           -2.86866232872814        2.05599800907519        0.85894077723999
H           -1.21095460797852       -3.23294515169659        0.80278125187109
H           -1.19399556041228       -3.19252667175815       -0.98214187600047
H           -2.59689579518502       -2.55879108685571       -0.09063151677266
H            1.32346706562589       -2.95791547831846        0.01218172557336
25
 energy: 14.002796370459 xtb: 6.6.1 (8d0f1dd)
C            3.28878158174374        1.29277420519443       -0.00589408074778
N            2.32899711583285        0.15768822352926       -0.14924699493828
C            2.60866004049783       -1.23761595008301       -0.07026791407600
N            1.41772821630192       -1.95575381206974       -0.01796712678485
C            0.39020556194886       -1.08898946799984       -0.03301848047849
C            0.92267569356516        0.19936945948790       -0.06003659919225
C            0.10321851856879        1.34105147230028        0.00181995912051
O            0.46404473976841        2.51402831177671        0.04778786799306
N           -1.28613835741621        1.00494173343642       -0.01026806141057
C           -2.21479844524584        2.12011979036279       -0.00292871798552
C           -1.84157828420580       -0.23549447631732       -0.04465596432399
O           -3.04266107346763       -0.41447562254136       -0.07171342951992
N           -0.95859825189967       -1.33070343444260       -0.04267848878562
C           -1.51620080616017       -2.66585955899098       -0.08182134476185
H            3.20170321432405        1.71869681632139        0.99897631128622
H            4.26901333574794        0.82266199382173       -0.14496826282577
H            3.38718991712426        2.35581609221804       -0.56708737312762
H            3.54502183593310       -1.73627547734471        0.05794228120769
H           -1.62336521550108        3.03474088404320        0.02339324289480
H           -2.82737462594356        2.10194309624042       -0.90092698181549
H           -2.86419909429940        2.05280522524608        0.86898981982384
H           -1.22020717053003       -3.23945040547146        0.79990152774458
H           -1.20341461897353       -3.19673848820597       -0.98471067017736
H           -2.60438580915672       -2.55893075899217       -0.09184707806297
H            1.33082828566846       -2.96430387861363        0.00729123847926
25
 energy: 20.168918223799 xtb: 6.6.1 (8d0f1dd)
C            3.28394724710759        1.28768737997724       -0.01761277120749
N            2.33022546759905        0.14775117782311       -0.15859135395525
C            2.60557899318934       -1.24522844314960       -0.08858166189488
N            1.41523439447714       -1.96306950795672       -0.02478732773267
C            0.38711173323957       -1.09632695358370       -0.03029172789691
C            0.92380680188322        0.19065778730759       -0.06177782748558
C            0.10366049554139        1.33141842630424        0.00939873315254
O            0.46382828526981        2.50385620136375        0.05789676282513
N           -1.28792087914208        0.99727046386599       -0.00347235334058
C           -2.21245342642281        2.11610364790688        0.00495344945310
C           -1.84435989672855       -0.24220696016687       -0.04279199174172
O           -3.04561682303239       -0.42085608841692       -0.07357588261995
N           -0.96199438629726       -1.33744485134247       -0.04155317319752
C           -1.52426326375918       -2.67039451605632       -0.08540804637504
H            3.11748856329357        1.77679889832478        0.94236625326371
H            4.26418746999491        0.81538571170801       -0.05421618617272
H            3.49633601921172        2.37066447054025       -0.62573245937175
H            3.53711120177806       -1.74993104231331        0.06024780175983
H           -1.61599777513529        3.02749023217281        0.03276836685386
H           -2.82384738988008        2.10409472728566       -0.89391858195237
H           -2.86239858044259        2.05034134342929        0.87649124914364
H           -1.23121782905051       -3.24764191323984        0.79472372083435
H           -1.21261459600283       -3.19976912572409       -0.98947112464038
H           -2.61257021644589       -2.55897439118412       -0.09606889404131
H            1.33586416429133       -2.97149842992790       -0.00639476589081
25
 energy: 28.211581948439 xtb: 6.6.1 (8d0f1dd)
C            3.28076028994217        1.27096218812121       -0.00469866674166
N            2.33430308731278        0.13111716691743       -0.15221051765903
C            2.60220334527602       -1.26066766679456       -0.10718711889001
N            1.41145325636472       -1.97361332398237       -0.03487883173127
C            0.38586984963819       -1.10507884560542       -0.03456541746779
C            0.92730253649923        0.18115388663464       -0.05853389199100
C            0.10790137278398        1.32379207423387        0.01064568715630
O            0.46760574752615        2.49552719177777        0.06193140406637
N           -1.28740629431222        0.99094243741900        0.00115341373484
C           -2.20919063841424        2.11283837806881        0.01055696494874
C           -1.84512120575784       -0.24778268125058       -0.04024710283582
O           -3.04638791655838       -0.42687353476709       -0.07027638451871
N           -0.96357152971806       -1.34387263791189       -0.04156972690785
C           -1.53173796547072       -2.67419923843429       -0.08416698493064
H            3.02572948457772        1.81675040064944        0.90675502548106
H            4.26165316741362        0.80201987918723        0.04598294978062
H            3.61155328381948        2.39887604723926       -0.64857171801443
H            3.53104526073343       -1.76621815768506        0.05373266067348
H           -1.60887400293755        3.02167419044939        0.03831077489308
H           -2.82007932859660        2.10613758070502       -0.88864538670480
H           -2.85951015329483        2.04930286216979        0.88211645017245
H           -1.23797916205750       -3.25173455416779        0.79542344585230
H           -1.22413580718238       -3.20472518044104       -0.98880880946889
H           -2.62027576886070       -2.55736834138872       -0.09109635841993
H            1.33996894337796       -2.98050335523427       -0.02284160768812
25
 energy: 48.019986985968 xtb: 6.6.1 (8d0f1dd)
C            3.25207882151938        1.19812832994626        0.03226654001107
N            2.33728252393094        0.09628661676013       -0.10794936635469
C            2.59149021504536       -1.28001261344945       -0.09729795327441
N            1.40213353888582       -1.99018532595439       -0.04209072071511
C            0.38278581039276       -1.11487638707052       -0.03966396667666
C            0.93126560658353        0.16664150476774       -0.04960265328370
C            0.11413851392774        1.32035848996622        0.00898163609344
O            0.47472980803353        2.48498483598860        0.06720132531381
N           -1.28095666563521        0.98778310108178        0.00619488554580
C           -2.20468604645568        2.11007683723653        0.01821046667801
C           -1.84339120433493       -0.25234417382650       -0.03699576358680
O           -3.04362456760209       -0.42990510626183       -0.07082382734428
N           -0.96492612796837       -1.34969101411336       -0.04060901536695
C           -1.53893840394758       -2.67804489585393       -0.08594616964756
H            2.93261027602819        1.85248400750295        0.84426415896980
H            4.25149508681635        0.78188752619674        0.13333913390415
H            3.79083275847591        2.54321260669051       -0.68297743813434
H            3.52406141717415       -1.78292700939705        0.03738416073637
H           -1.60342071874322        3.01760723978727        0.04753651671218
H           -2.81544319805036        2.10851188015760       -0.88119523340877
H           -2.85538097163245        2.04597658087066        0.88959079756880
H           -1.24637516874335       -3.25714820643009        0.79248317685999
H           -1.23317409471259       -3.20735516866947       -0.99162649347148
H           -2.62709530003467       -2.55658790571059       -0.09078999139876
H            1.33155418795637       -2.99535010445750       -0.03530352243794
25
 energy: 58.947298531950 xtb: 6.6.1 (8d0f1dd)
C            3.21121518831165        1.11578355796808        0.06360994560554
N            2.33206428196716        0.05355499056818       -0.06489644644454
C            2.57889277981710       -1.29593949548415       -0.07682186056780
N            1.39143762543143       -2.00844849065763       -0.04423251834029
C            0.37809960128160       -1.12633657044307       -0.03978881618464
C            0.93247113243430        0.14965969961380       -0.03412462262584
C            0.11827597044909        1.31773145142687        0.01274761363651
O            0.48214385539173        2.47332675701104        0.07412734220039
N           -1.27181588890469        0.98667098176184        0.00844895619118
C           -2.19926602242202        2.10804934833899        0.02499637447438
C           -1.83905635380598       -0.25640060500922       -0.03477297529076
O           -3.03771898069254       -0.43027552142943       -0.07165140097790
N           -0.96610205004876       -1.35533928658694       -0.03769477213678
C           -1.54543111238877       -2.68216825308772       -0.08558402659163
H            2.85518414718407        1.87849648081456        0.74734511029655
H            4.23054283232939        0.77499796052361        0.20004807707126
H            3.98160321405708        2.73565255105951       -0.70168636800418
H            3.52050480692077       -1.78185824996127        0.02974513683599
H           -1.59768061238954        3.01440934072074        0.05585981418555
H           -2.81176996641265        2.10909079047570       -0.87321271354939
H           -2.84926105119729        2.04292873421247        0.89686749828750
H           -1.25387151145209       -3.26311009787212        0.79101760429032
H           -1.24365421223216       -3.20976601498170       -0.99330327314851
H           -2.63159537441757       -2.55618352897957       -0.08372375915858
H            1.32059309230467       -3.01185333340600       -0.04486093569799
25
 energy: 61.307219143994 xtb: 6.6.1 (8d0f1dd)
C            3.17636429911372        1.07294530429590        0.07488958950818
N            2.32460901037195        0.02644246761121       -0.04238916273743
C            2.57362644176254       -1.31244786184002       -0.05960847419829
N            1.38212883913760       -2.02327239955495       -0.04203640430297
C            0.37460193807404       -1.13710388448092       -0.04013010104776
C            0.92783663990338        0.13851887704189       -0.03598435311108
C            0.12066305231792        1.31244503445908        0.01617880392722
O            0.49184986214378        2.46375973273655        0.08153595088885
N           -1.26491628613054        0.98669064753685        0.00836638153478
C           -2.19421537093921        2.10700917847403        0.03201581110142
C           -1.83469211444973       -0.25746570192238       -0.03391584989839
O           -3.03355716989349       -0.42640058337040       -0.06771966436534
N           -0.96706978493595       -1.35921580165910       -0.03537032482219
C           -1.54956905817501       -2.68512016637259       -0.08517211993057
H            2.79103326005114        1.90157504673771        0.64871175316170
H            4.19070931084921        0.77223503455333        0.26925223701719
H            4.12559853866764        2.87256374543159       -0.67928831185858
H            3.52395225481707       -1.78389621431408        0.03539713079570
H           -1.59157119346132        3.01170101174841        0.06316220386196
H           -2.81055695385427        2.11032997609149       -0.86310811728961
H           -2.84278135531061        2.04039269556436        0.90504500061220
H           -1.26178174849611       -3.26765415337645        0.79068630763662
H           -1.25242349299142       -3.21292036819257       -0.99420133177318
H           -2.63248498434212       -2.55542786714791       -0.07935208832105
H            1.30883037352957       -3.02524400904629       -0.04868901052866
25
 energy: 61.987350842735 xtb: 6.6.1 (8d0f1dd)
C            3.15311156094702        1.05147014274535        0.08806216946076
N            2.31824717017742        0.00798359166554       -0.02040543691526
C            2.57045827814914       -1.32742589520693       -0.04319689182462
N            1.37386665924468       -2.03478025950731       -0.03963697670069
C            0.36999168458183       -1.14662351025808       -0.03854818185667
C            0.92228465694759        0.12850331668548       -0.03263161726297
C            0.12081082949230        1.30640527872850        0.02036626899262
O            0.49783699590051        2.45635660601633        0.08421016608140
N           -1.26065705038285        0.98570348291615        0.00883557983252
C           -2.19065925763621        2.10500517348674        0.03768920813467
C           -1.83243781434844       -0.25776418493788       -0.03413737796189
O           -3.03186457669779       -0.42201589387287       -0.06470851334681
N           -0.97106484300288       -1.36386605132629       -0.03285215980393
C           -1.55382409457929       -2.68940225295336       -0.08194479170965
H            2.73152836699163        1.92844206861482        0.56101547958442
H            4.15810369327337        0.77632605550377        0.34961635644287
H            4.21996092403083        2.99964347896180       -0.64027752404126
H            3.53119380924031       -1.78486047829082        0.04265826107999
H           -1.58445148789770        3.00654654030610        0.07006927550804
H           -2.80741622921169        2.10702468659472       -0.85832006384300
H           -2.83767417511134        2.03788795526600        0.91226226643615
H           -1.27076794054744       -3.27413547183817        0.79261469922684
H           -1.26090896165421       -3.21694697516014       -0.99285053043402
H           -2.63578371968645       -2.56246030588096       -0.07712775617695
H            1.29635103195228       -3.03563866888899       -0.04946728245173
25
 energy: 62.660100276312 xtb: 6.6.1 (8d0f1dd)
C            3.12892565188647        1.03905574803750        0.09879810225599
N            2.31042137937543       -0.00763706160417        0.00049914354094
C            2.56481248984037       -1.34175488773013       -0.02540193093819
N            1.36469000603871       -2.04618076552577       -0.03595546051147
C            0.36387264131012       -1.15609497011294       -0.03673592487619
C            0.91595430599291        0.11734078756286       -0.02709414581700
C            0.12061257866644        1.30030972567669        0.02141098797547
O            0.49821007383404        2.45221159381039        0.07115861714421
N           -1.25672867474760        0.98289388114971        0.01074401752701
C           -2.18480038834599        2.10327315315798        0.04126289403533
C           -1.83213526934663       -0.25894297431337       -0.03506935554317
O           -3.03194473944042       -0.41711983587664       -0.06351535299549
N           -0.97708226789940       -1.36818625051138       -0.03618988124881
C           -1.55692071183000       -2.69393458465940       -0.08052666753596
H            2.67547304689446        1.95228632228387        0.47822637791587
H            4.12141409163184        0.78652386544040        0.42290532518652
H            4.26043352649584        3.14434889330385       -0.58525479661183
H            3.52794330340519       -1.79483993876169        0.05682986282265
H           -1.57507648277928        3.00170186653957        0.07715044258066
H           -2.80143184683343        2.10350793765661       -0.85500229343243
H           -2.83091090794916        2.03539489860196        0.91549411999526
H           -1.27594796200990       -3.27961942147195        0.79437101719513
H           -1.26945901004529       -3.22062454717350       -0.99299719432170
H           -2.63865081481535       -2.56922982770265       -0.07963217878592
H            1.28390847142734       -3.04617745495571       -0.04368160677285
25