25
 energy: 0.000000000000 xtb: 6.6.1 (8d0f1dd)
C            3.23720132972391        1.16630909158653        0.08434468864950
N            2.29877796055224        0.07527476373246        0.03981602671198
C            2.58028186251803       -1.21425391179017        0.03006175752192
N            1.43813944744728       -1.93419254010258        0.00098261751768
C            0.39035684826767       -1.05887462812143       -0.00790371763344
C            0.93510047688824        0.21347817468824        0.01709077332874
C            0.09450143016486        1.40504290868848       -0.00410946993748
O            0.49712746915594        2.54126690785742       -0.00342325656480
N           -1.25076628431515        1.06271869620815       -0.03085477937476
C           -2.21907191394203        2.15522079838987       -0.05001256521996
C           -1.81739470187490       -0.20012724136556       -0.04692818139228
O           -2.99983858926755       -0.37846413507442       -0.07008877579474
N           -0.92618577614240       -1.30210203518959       -0.03682761236648
C           -1.46982251276835       -2.64643077634382       -0.06029819901142
H            3.71247229913541        1.21471443890471        1.06488839270555
H            4.00791460421487        1.03430799217987       -0.67357688121503
H            2.69909982127087        2.09770098766290       -0.09130154035862
H            3.56654087521359       -1.63682977417947        0.04233139674524
H           -1.67107945562430        3.09322822573871       -0.02552706696334
H           -2.82428927394145        2.09428605349656       -0.95318074103337
H           -2.87644002486466        2.07745706351925        0.81450059976605
H           -1.17061985538665       -3.19584861009707        0.83242224714061
H           -1.14560246782873       -3.17511580834413       -0.95688266944647
H           -2.55549768731684       -2.55659960601237       -0.07459039105944
H            1.38130842369251       -2.94313824728853       -0.01389874052104
25
 energy: -3.060404609813 xtb: 6.6.1 (8d0f1dd)
C            3.24936170792588        1.18766270220448        0.08910826716696
N            2.31275844259011        0.10391922238627        0.04126026689909
C            2.60737259602795       -1.22196539804399        0.03444403145720
N            1.43682508584946       -1.93421243602077        0.00489780200270
C            0.39589071646176       -1.05746629551474       -0.00732251016039
C            0.93360599655686        0.22393727474915        0.01757345001033
C            0.10983885575826        1.39950688723931       -0.00405200386534
O            0.50888375484490        2.56454526063707       -0.00310732677305
N           -1.25154861514403        1.05570567653914       -0.03284763108035
C           -2.20904896933596        2.15395907258079       -0.05681338342895
C           -1.81987309068961       -0.19411788311400       -0.04639488969745
O           -3.01667562757906       -0.36971427505984       -0.07467566391949
N           -0.94357592486816       -1.30370220586100       -0.03287226681360
C           -1.51313140964673       -2.64520896187384       -0.05281382028765
H            3.74013967152025        1.22739489468605        1.06545114402206
H            4.01100922829719        1.06182399483844       -0.68224183537509
H            2.70273759565342        2.11473676886277       -0.07285401042615
H            3.58869211923258       -1.64204488336703        0.05020881512859
H           -1.64795926841375        3.08563211194353       -0.03246846060067
H           -2.81149594055600        2.09846854831475       -0.96291705644419
H           -2.86882083797704        2.08505529415303        0.80729186678574
H           -1.12702650091216       -3.22552422287643        0.78504892588502
H           -1.22725064477044       -3.15269972701632       -0.95266172934428
H           -2.62816960715110       -2.68864949658668       -0.04722651045839
H            1.37967497129789       -2.93801313505611       -0.00698155848807
25
 energy: 6.137725019069 xtb: 6.6.1 (8d0f1dd)
C            3.26311859687899        1.21535961568361        0.09675404600073
N            2.32537232277303        0.13714137634480        0.04523232916742
C            2.63515785490193       -1.22248394253568        0.04538449495391
N            1.43820626240490       -1.92576711701012        0.01508311209090
C            0.39702530549704       -1.06174415811756       -0.00199647504539
C            0.92747542983427        0.23308913814664        0.02006104651911
C            0.13259313885643        1.38740676239663       -0.00354234289760
O            0.51785383096890        2.57462916913504       -0.00230274888315
N           -1.25105729096286        1.04934393619495       -0.03754093094523
C           -2.18870896634361        2.15889166459480       -0.07213673390012
C           -1.81828535834651       -0.18620246925881       -0.04618373895162
O           -3.02387243309258       -0.35379698410691       -0.08556029913297
N           -0.97247756393275       -1.31096366696697       -0.02045110630209
C           -1.57827292442370       -2.65314303661421       -0.04098924047958
H            3.78858343527440        1.24298376556055        1.05999919954238
H            4.00911414645860        1.11391739971865       -0.69854350891380
H            2.70983433054847        2.14392749418966       -0.03282855984302
H            3.61410504683836       -1.63389189112167        0.06779181346796
H           -1.60703215300225        3.07969572085132       -0.04810784876315
H           -2.78540864160567        2.10978074984126       -0.98291628732363
H           -2.85417416208123        2.10415383989806        0.78911116003423
H           -1.03893048071236       -3.28672101824313        0.69715100608526
H           -1.39266180534679       -3.10948522164535       -0.98280556144982
H           -2.72945062984923       -2.89035435746035        0.03821906837144
H            1.39410701343663       -2.92673798073122        0.00815201879240
25
 energy: 22.029583193441 xtb: 6.6.1 (8d0f1dd)
C            3.27212966724554        1.24222109401399        0.10262539710303
N            2.33527885985039        0.16211486608348        0.05183260037699
C            2.65743961133285       -1.21543771499084        0.05989293731423
N            1.45071914565581       -1.91674200474605        0.03254449919788
C            0.39890994258868       -1.07401969319527        0.01489107701531
C            0.92422748015622        0.23447434527814        0.02700255886804
C            0.15218350216523        1.38095488599010       -0.00223991735552
O            0.52407398859437        2.57870326124378       -0.00303978732992
N           -1.24748021627365        1.04677110501611       -0.04319015400761
C           -2.16654944466972        2.16669689482909       -0.09324236686860
C           -1.81266944659790       -0.18402412406578       -0.04348066941874
O           -3.02271023397164       -0.34353825788369       -0.09783978229592
N           -0.99502202350214       -1.32723524057968        0.00885568369896
C           -1.64198712374344       -2.67461176628490       -0.02691287337171
H            3.83838339365100        1.25405200586147        1.04739735844416
H            3.99714428150450        1.17401726915666       -0.72093887010394
H            2.71413624661465        2.17566498791794        0.01558766019884
H            3.63964075536681       -1.61399818126824        0.08945028046123
H           -1.56588408042230        3.07653509108147       -0.07031702476970
H           -2.75530188715164        2.12180883417860       -1.00938712046046
H           -2.83862687493101        2.12817245088366        0.76384818477918
H           -0.95078452077401       -3.36772097346997        0.57705170149625
H           -1.60999235992729       -3.04634266467820       -1.04247878379653
H           -2.81440837446643       -3.07120478855957        0.15835857248388
H            1.42936401667754       -2.91828289306832        0.03076275053522
25
 energy: 39.068630707061 xtb: 6.6.1 (8d0f1dd)
C            3.27864285116409        1.26603765314089        0.10329470312319
N            2.34515318528143        0.17848482239622        0.05854442251672
C            2.67577556422495       -1.20158697021805        0.07347769804969
N            1.47457622534942       -1.90643365200607        0.05561049759445
C            0.40496612580844       -1.08990984289731        0.04500509466428
C            0.92690858357560        0.23045730153724        0.03799248685837
C            0.16871994743062        1.38105153120429       -0.00026336062048
O            0.52854567215818        2.57744315490642       -0.00369203182196
N           -1.24027159097587        1.04706552904902       -0.04850244101804
C           -2.14614369135057        2.17363944064314       -0.11301477367271
C           -1.80128285048745       -0.18715828776717       -0.04192342378601
O           -3.01103534691165       -0.34081700281904       -0.11145773089395
N           -1.00663611672684       -1.34836112155646        0.05399434668071
C           -1.69942002599061       -2.70320038054769       -0.01383724599193
H            3.88500845887244        1.26076892314482        1.02592470877444
H            3.97838284949492        1.23379430812566       -0.74869598290756
H            2.71726220936068        2.20420564303684        0.06180197990505
H            3.66521996864785       -1.58509985768453        0.10765111072785
H           -1.53222313800425        3.07484025431602       -0.09112798180086
H           -2.72746579183896        2.13143101823550       -1.03348539701338
H           -2.82352841335561        2.14992587129051        0.74002152078090
H           -0.91380549570978       -3.43622896803109        0.43625638325208
H           -1.83436351223364       -2.97043058472788       -1.07647271506821
H           -2.88259369407319       -3.24001039363908        0.25370882103873
H            1.48182233126215       -2.91087960038826        0.05622322282314
25
 energy: 51.482708819196 xtb: 6.6.1 (8d0f1dd)
C            3.28209064729432        1.27839987232393        0.09960282661320
N            2.35215267893063        0.17860474569879        0.06298733473959
C            2.68021504265645       -1.18148121728435        0.08189878682938
N            1.50373255697402       -1.89386785386451        0.07665601663279
C            0.41153086183772       -1.10380458733360        0.07755110382370
C            0.93582251179100        0.22237398848553        0.04820764568869
C            0.17885970606503        1.39025655608896        0.00070367038391
O            0.53039123842824        2.56858821326788       -0.00295096486566
N           -1.22971246657963        1.05218579812268       -0.05242990211499
C           -2.13174921886745        2.17917034394984       -0.12557368773803
C           -1.78742997496906       -0.19401173968083       -0.04474049912427
O           -2.99026926909303       -0.34414432884218       -0.12678529576699
N           -1.00532234801273       -1.36746629257368        0.10218020441060
C           -1.73679642075468       -2.73512041599659       -0.00457711531292
H            3.91567213245050        1.25959497612866        1.00012798226397
H            3.95790890823204        1.27620707346116       -0.77075270705678
H            2.72301747169455        2.21982087488701        0.09415616256926
H            3.67996385538183       -1.55321747612553        0.11909625767842
H           -1.51395576723092        3.07612409824776       -0.10388891250664
H           -2.70832487200098        2.13795545273059       -1.04792322104201
H           -2.81121375508235        2.16446013285406        0.72462882896396
H           -0.93127551587365       -3.45490793936925        0.28791584684031
H           -2.00932241363361       -2.88723797902912       -1.04750407404451
H           -2.92270935312222       -3.39620442522379        0.30230197995996
H            1.53893806845635       -2.90324908217948        0.07614564436964
25
 energy: 63.160722843448 xtb: 6.6.1 (8d0f1dd)
C            3.28319939984162        1.27728638506846        0.09618304240417
N            2.35704764681549        0.16963971829120        0.06687076426536
C            2.67568766864923       -1.16189943608709        0.08956280577692
N            1.52669800598826       -1.88544535627982        0.09838969623897
C            0.41909985294705       -1.10541857036376        0.10305714916351
C            0.94691577111068        0.21974642245105        0.05811256937859
C            0.18390493691230        1.39864332976739        0.00269791853534
O            0.53745900789745        2.56319786196281       -0.00923196780245
N           -1.21632504844696        1.05358083338838       -0.05008046549502
C           -2.12640058331145        2.17636207613014       -0.13872188859873
C           -1.77577397115881       -0.20096487949294       -0.03258822592169
O           -2.97210827065225       -0.35175483127869       -0.14331992604000
N           -0.99098864345351       -1.36990523422756        0.14958704604047
C           -1.74887169104342       -2.74813732986885        0.00416608714222
H            3.92078758212864        1.24987239601448        0.98354366906646
H            3.94093756969914        1.27968705117446       -0.77807644443234
H            2.72686650002691        2.21374434389992        0.10112297700834
H            3.68093591003860       -1.53003475517295        0.13187608085562
H           -1.51814407479221        3.07876324642025       -0.12044008982541
H           -2.70025348522301        2.13045352800716       -1.06222590043840
H           -2.80858788234172        2.16838605868588        0.70907470328166
H           -0.89449571399841       -3.46947310254488        0.10540772019573
H           -2.16420554325201       -2.74388933926015       -0.99921963357649
H           -2.94652540684609       -3.52789692198393        0.36123567016320
H            1.57535476743678       -2.89551470595702        0.10005055480851
25
 energy: 74.623724492596 xtb: 6.6.1 (8d0f1dd)
C            3.28348727869045        1.27059058887892        0.09390281408089
N            2.36052805556275        0.15459362339159        0.06729207340331
C            2.66579065908933       -1.14126260556034        0.08913120550124
N            1.54503391957644       -1.88220521339581        0.11328191436090
C            0.42862562936267       -1.09768221690286        0.11117579238624
C            0.95982147262549        0.22191772087419        0.06530298793579
C            0.18098681492049        1.40474903617061        0.00667625287198
O            0.54602067287871        2.56089726155351       -0.01621638523564
N           -1.19990918474648        1.05060199031891       -0.04268554906660
C           -2.12537552963510        2.16764820232136       -0.14124977372041
C           -1.76264777190891       -0.21169931755124       -0.02864420415474
O           -2.95064444064678       -0.36488295452952       -0.16056598829982
N           -0.95810332878888       -1.36310364176599        0.16936149346942
C           -1.72800544509817       -2.75004995925280        0.00971406793234
H            3.91778620428593        1.23652858430328        0.97568698732243
H            3.92806665973490        1.26650176367299       -0.78189952874629
H            2.72488956668941        2.20092629847788        0.09927437293216
H            3.67336529262647       -1.51539754921925        0.13422478753373
H           -1.53250640069406        3.08145761998781       -0.12554970306570
H           -2.69882570642654        2.11622446900174       -1.06508667785791
H           -2.80990795445796        2.15927332256170        0.70468636056224
H           -0.90913564085212       -3.41826016857719       -0.06095352898818
H           -2.26835766124351       -2.61174726020892       -0.86412763113456
H           -2.94858068180100       -3.65627580426927        0.36014114474689
H            1.58981182522878       -2.89031500153740        0.11416062742486
25
 energy: 87.841456683697 xtb: 6.6.1 (8d0f1dd)
C            3.28834914651627        1.27193388408301        0.09590970099255
N            2.36838877466240        0.15170938493807        0.07021073883598
C            2.66893550039543       -1.12406465839080        0.09522668653988
N            1.56197135975924       -1.88180258739347        0.13295573362710
C            0.44271215472111       -1.08533082140392        0.11807138757458
C            0.97261734189497        0.23086038716061        0.07385914930657
C            0.18067909625729        1.40808690328189        0.00813164291153
O            0.56097912395524        2.56757420713520       -0.02993025178885
N           -1.18173233876356        1.04848560938359       -0.03686594305689
C           -2.12129989174613        2.16072688383314       -0.15039265994593
C           -1.74426299691514       -0.21874779845777       -0.02301992618168
O           -2.92734988317849       -0.37258495503612       -0.17495167406216
N           -0.91995575928077       -1.35191190437126        0.18851770212358
C           -1.71077974183414       -2.74385007555279        0.03048074979209
H            3.92174832965457        1.23137698360566        0.97585133744826
H            3.92258198747975        1.25876517905592       -0.78474155378291
H            2.72226171896002        2.19599905137409        0.10044506876702
H            3.67570094295623       -1.50484207828939        0.14381285665361
H           -1.54250762266421        3.08623907056803       -0.13880617517587
H           -2.69254497532404        2.10023211836364       -1.07591876814700
H           -2.81022407321084        2.15206644267832        0.69247350392234
H           -0.86664464191376       -3.40724659717603       -0.27983843564282
H           -2.46481325777120       -2.42625708575757       -0.72805074232646
H           -2.99000860765847       -3.87223888133429        0.39011963136424
H            1.59741261802055       -2.88614987355382        0.13348415244573
25
 energy: 96.461898790493 xtb: 6.6.1 (8d0f1dd)
C            3.29291529074463        1.27791984873649        0.10007581828432
N            2.37077380897167        0.16643612799606        0.07146345542122
C            2.68552842732336       -1.12862347689664        0.09907862009151
N            1.55441146451643       -1.89200812225736        0.13019386735334
C            0.44928798783116       -1.06449751669118        0.09920319762100
C            0.97540970469421        0.24642153586532        0.07471972622627
C            0.17402650849694        1.40511553056763        0.00587511041203
O            0.57736009847060        2.58194815569407       -0.03473941408168
N           -1.17263436561854        1.05512709614639       -0.03384451964955
C           -2.11949652989047        2.16492576501790       -0.14695558909110
C           -1.73222602789261       -0.21000776007146       -0.02540640228700
O           -2.91989117842819       -0.35505211850463       -0.17049260674588
N           -0.88862545403096       -1.32929669209242        0.14529518582929
C           -1.68677713965408       -2.70957583501372        0.04398176897637
H            3.92044545801124        1.23855543165819        0.99405331304701
H            3.93870596068262        1.24814902400103       -0.78082063724685
H            2.71676367012797        2.20165603218251        0.09217393374908
H            3.68394165968671       -1.51756599376738        0.14172327818049
H           -1.54606799940071        3.09574261014985       -0.13622252534689
H           -2.69080657261345        2.09629786420122       -1.07283606732666
H           -2.80928749643134        2.14499169417273        0.69550217074297
H           -0.83558336194385       -3.39181185480527       -0.35635020844039
H           -2.51520654840818       -2.37280677321751       -0.57925426963823
H           -3.07556605354733       -4.07124067298970        0.34567011540266
H            1.56481299327446       -2.89177111133824        0.12494659071121
25
 energy: 104.187549785022 xtb: 6.6.1 (8d0f1dd)
C            3.30113178058358        1.28634494160111        0.10189070120338
N            2.37285443146887        0.20411271446452        0.07264465342535
C            2.72879005004832       -1.14867463037039        0.10252628469049
N            1.53678445041541       -1.90756322504526        0.11018465940229
C            0.46342070725340       -1.03214760054372        0.07340342680695
C            0.97729039857791        0.27177035550993        0.07130593482355
C            0.16154189168266        1.39345427438148        0.00023810580036
O            0.59262908575470        2.60403056586504       -0.02622277768132
N           -1.17056380169341        1.06769901411212       -0.03407212727391
C           -2.12266824535079        2.17201247953973       -0.13358277293659
C           -1.71559563645593       -0.19292145257992       -0.02937039049995
O           -2.91941472690671       -0.32803299016645       -0.14765832737549
N           -0.84162161740044       -1.29772261918247        0.05303240357999
C           -1.61853782790287       -2.62576952272829        0.04192968707388
H            3.91624816074244        1.25530386306814        1.02499862910205
H            3.97888462838929        1.23116966861991       -0.77416065405884
H            2.71356342542864        2.21461864972511        0.07017690498721
H            3.70748956905621       -1.53981961481956        0.12861785013094
H           -1.55033268969304        3.10244736898015       -0.12190278848788
H           -2.69547397071001        2.09204877377793       -1.05827474284074
H           -2.81013711470607        2.13077618867354        0.71075585479364
H           -0.85413694373867       -3.36261591848728       -0.29804639229479
H           -2.50470076690854       -2.40797740418161       -0.42728410464929
H           -3.25041180366576       -4.29080992403539        0.21615860741280
H            1.51518087070312       -2.90270516743447        0.09974528706042
25
 energy: 104.092569818542 xtb: 6.6.1 (8d0f1dd)
C            3.30967812044163        1.28687519462562        0.10397419027393
N            2.37749935133230        0.22412262283623        0.07482324360767
C            2.75491622373681       -1.15602016192682        0.10120753410922
N            1.53501422417688       -1.90872998497627        0.09061341321242
C            0.48121790223383       -1.00723764746743        0.05881672382767
C            0.99203202300295        0.29050276873684        0.06592430145943
C            0.15623634524358        1.39553929028043       -0.00432856868230
O            0.60103969459759        2.61968163316890       -0.01648550788716
N           -1.16714347786701        1.08431628789334       -0.03896481207225
C           -2.12503379919937        2.17979048583453       -0.12300514729232
C           -1.70069689653739       -0.17985309905895       -0.04226586828915
O           -2.91131748059094       -0.31566414843018       -0.13230135084728
N           -0.80105414311416       -1.27709990818670       -0.01263817674199
C           -1.51869040652869       -2.53885707889045        0.03848088151459
H            3.91004306688031        1.26515276840981        1.04278523991937
H            4.00829260263869        1.21961544079291       -0.76108029601869
H            2.72199840385296        2.21900347637142        0.05559850788046
H            3.72299493708547       -1.54703789407312        0.11934408484836
H           -1.55644602674919        3.10920850048089       -0.10841921606942
H           -2.69907170817401        2.09246493965953       -1.04575522016927
H           -2.80955373661280        2.12161594870150        0.72253007984427
H           -0.86556827698821       -3.32946707098083       -0.28418273167529
H           -2.56012759984442       -2.42372435627280       -0.24939241733642
H           -3.44320452489173       -4.53110135965898        0.09074018533342
H            1.49915948684724       -2.90406785912548        0.08101483944528
25
 energy: 96.966827475323 xtb: 6.6.1 (8d0f1dd)
C            3.31307206383852        1.27465527344166        0.09930197247096
N            2.37899028275499        0.21712934841438        0.07735718954838
C            2.74836550773124       -1.16432819724302        0.09064117654994
N            1.53925692203265       -1.88822293192759        0.06515258654338
C            0.49083355844230       -1.00856194963181        0.06853298698506
C            1.01677424856663        0.28947991324068        0.05731304466232
C            0.17100602641924        1.41599336177877       -0.00164821814642
O            0.59179423794142        2.61693480068417       -0.00492964382103
N           -1.17632899018506        1.10803108375945       -0.04492343397606
C           -2.12733492595688        2.19033535259612       -0.11175730227327
C           -1.70692365142078       -0.16108513039585       -0.05614775819754
O           -2.91465516172764       -0.31486605782889       -0.11651313006976
N           -0.81879746535561       -1.28592313312823       -0.03913055204062
C           -1.39245059009052       -2.42161208803801       -0.00576232860238
H            3.90620912014231        1.26807401967318        1.03169817152967
H            4.01503229346922        1.22344913027141       -0.75166902737743
H            2.74056881818912        2.21384871647964        0.05175062668688
H            3.72358759706337       -1.54450703973663        0.10813283033315
H           -1.55752706736578        3.10934655652735       -0.09384112053097
H           -2.70157580754166        2.10003853945462       -1.03123616348433
H           -2.80648202852905        2.12479253926473        0.73516380565664
H           -0.87916870085922       -3.34167070260698       -0.19061365160497
H           -2.46717861540180       -2.51827174899760       -0.14066624912751
H           -3.69486122160112       -4.61731747419472       -0.03958586011977
H            1.52000785441648       -2.89671339311288        0.07041396060019
25
 energy: 85.547317663065 xtb: 6.6.1 (8d0f1dd)
C            3.32455400827904        1.27424551182733        0.10500776275298
N            2.39453167641718        0.18660479008145        0.07619452919969
C            2.71652822018064       -1.13759675319763        0.08236013384505
N            1.57145704334794       -1.85900453489605        0.05305648051141
C            0.49839782839727       -1.00994703379731        0.05238079147859
C            1.04088219910895        0.29251481854017        0.04188244126334
C            0.20213191516284        1.45209936664132       -0.00134403989036
O            0.59398240575880        2.61351668950967        0.00030516918270
N           -1.15593035575460        1.12034611243523       -0.04790675841484
C           -2.12070828733770        2.19271532816721       -0.10841531504203
C           -1.69887895123199       -0.14545250881910       -0.07319138921494
O           -2.89249194474458       -0.31759380328235       -0.12811713323630
N           -0.83115878201616       -1.28933043837487       -0.03021161948034
C           -1.42274714745198       -2.46312716098151       -0.00728271844738
H            3.90286572171845        1.26889032571536        1.02598261803627
H            4.01241834604961        1.22863092987378       -0.73479475346634
H            2.75767870663864        2.20669247171565        0.05354122514009
H            3.71501330082172       -1.52107125758646        0.11134872469252
H           -1.56676945658003        3.12265692128668       -0.08646415980903
H           -2.70185948215241        2.10860641283768       -1.02477553504625
H           -2.80035605815573        2.12402681485996        0.73844495558005
H           -0.85317786522235       -3.33418486587952       -0.21611886183424
H           -2.47348811312139       -2.51710595697921       -0.03825228159334
H           -3.85949869975294       -4.73399817112446       -0.07939522723123
H            1.55883807661311       -2.87410521982907        0.06279887321848
25
 energy: 83.633409534651 xtb: 6.6.1 (8d0f1dd)
C            3.33544469750899        1.27905193250664        0.11321823749497
N            2.41085783461722        0.17396575308238        0.07644470704965
C            2.70962352679255       -1.12105831680818        0.07553633730248
N            1.59488663662060       -1.84919566363886        0.03142789479416
C            0.50895840064148       -0.99970489545505        0.01318836661615
C            1.04742087312208        0.31026215467048        0.02696350740231
C            0.21862580457384        1.46828867484964        0.00120867990902
O            0.59136864688636        2.63156217849423        0.01360634605660
N           -1.14508319531650        1.11645088933275       -0.05006913133414
C           -2.11859054777345        2.19341489233711       -0.10308886177132
C           -1.69273007317181       -0.13325241884877       -0.08134052963902
O           -2.88694920408655       -0.32820269953753       -0.12406150988125
N           -0.81295889100466       -1.27577028446351       -0.06652855673468
C           -1.39803634494472       -2.47670618926020       -0.00565450175798
H            3.90257813972897        1.27054969146880        1.04290877935434
H            4.02533895887166        1.22863368330165       -0.72695121659453
H            2.75833046315774        2.20562837721262        0.05423496959991
H            3.71405012914279       -1.50950238925333        0.10802994030766
H           -1.56965842625454        3.13203278957311       -0.07646249232741
H           -2.70816559181027        2.12260240427642       -1.01791069851219
H           -2.79960264342270        2.12513100304759        0.74625631847223
H           -0.79685049925000       -3.36890543595022       -0.10767168636945
H           -2.47943346642108       -2.61630323782379        0.03740365735462
H           -4.06600054719137       -4.72891870599711       -0.19621358096770
H            1.56878962395578       -2.86102539837289        0.04255893637011
25