      -----------------------------------------------------------      
     |                   =====================                   |     
     |                           x T B                           |     
     |                   =====================                   |     
     |                         S. Grimme                         |     
     |          Mulliken Center for Theoretical Chemistry        |     
     |                    University of Bonn                     |     
      -----------------------------------------------------------      

   * xtb version 6.6.1 (8d0f1dd) compiled by 'conda@1efc2f54142f' on 2023-08-01

   xtb is free software: you can redistribute it and/or modify it under
   the terms of the GNU Lesser General Public License as published by
   the Free Software Foundation, either version 3 of the License, or
   (at your option) any later version.
   
   xtb is distributed in the hope that it will be useful,
   but WITHOUT ANY WARRANTY; without even the implied warranty of
   MERCHANTABILITY or FITNESS FOR A PARTICULAR PURPOSE.  See the
   GNU Lesser General Public License for more details.
   
   Cite this work as:
   * C. Bannwarth, E. Caldeweyher, S. Ehlert, A. Hansen, P. Pracht,
     J. Seibert, S. Spicher, S. Grimme, WIREs Comput. Mol. Sci., 2020, 11,
     e01493. DOI: 10.1002/wcms.1493
   
   for GFN2-xTB:
   * C. Bannwarth, S. Ehlert and S. Grimme., J. Chem. Theory Comput., 2019,
     15, 1652-1671. DOI: 10.1021/acs.jctc.8b01176
   for GFN1-xTB:
   * S. Grimme, C. Bannwarth, P. Shushkov, J. Chem. Theory Comput., 2017,
     13, 1989-2009. DOI: 10.1021/acs.jctc.7b00118
   for GFN0-xTB:
   * P. Pracht, E. Caldeweyher, S. Ehlert, S. Grimme, ChemRxiv, 2019, preprint.
     DOI: 10.26434/chemrxiv.8326202.v1
   for GFN-FF:
   * S. Spicher and S. Grimme, Angew. Chem. Int. Ed., 2020, 59, 15665-15673.
     DOI: 10.1002/anie.202004239
   
   for ALPB and GBSA implicit solvation:
   * S. Ehlert, M. Stahn, S. Spicher, S. Grimme, J. Chem. Theory Comput.,
     2021, 17, 4250-4261. DOI: 10.1021/acs.jctc.1c00471
   
   for DFT-D4:
   * E. Caldeweyher, C. Bannwarth and S. Grimme, J. Chem. Phys., 2017,
     147, 034112. DOI: 10.1063/1.4993215
   * E. Caldeweyher, S. Ehlert, A. Hansen, H. Neugebauer, S. Spicher,
     C. Bannwarth and S. Grimme, J. Chem. Phys., 2019, 150, 154122.
     DOI: 10.1063/1.5090222
   * E. Caldeweyher, J.-M. Mewes, S. Ehlert and S. Grimme, Phys. Chem. Chem. Phys.
     2020, 22, 8499-8512. DOI: 10.1039/D0CP00502A
   
   for sTDA-xTB:
   * S. Grimme and C. Bannwarth, J. Chem. Phys., 2016, 145, 054103.
     DOI: 10.1063/1.4959605
   
   in the mass-spec context:
   * V. Asgeirsson, C. Bauer and S. Grimme, Chem. Sci., 2017, 8, 4879.
     DOI: 10.1039/c7sc00601b
   * J. Koopman and S. Grimme, ACS Omega 2019, 4, 12, 15120-15133.
     DOI: 10.1021/acsomega.9b02011
   
   for metadynamics refer to:
   * S. Grimme, J. Chem. Theory Comput., 2019, 155, 2847-2862
     DOI: 10.1021/acs.jctc.9b00143
   
   for SPH calculations refer to:
   * S. Spicher and S. Grimme, J. Chem. Theory Comput., 2021, 17, 1701-1714
     DOI: 10.1021/acs.jctc.0c01306
   
   with help from (in alphabetical order)
   P. Atkinson, C. Bannwarth, F. Bohle, G. Brandenburg, E. Caldeweyher
   M. Checinski, S. Dohm, S. Ehlert, S. Ehrlich, I. Gerasimov, C. Hölzer
   A. Katbashev, J. Koopman, C. Lavigne, S. Lehtola, F. März, M. Müller,
   F. Musil, H. Neugebauer, J. Pisarek, C. Plett, P. Pracht, F. Pultar,
   J. Seibert, P. Shushkov, S. Spicher, M. Stahn, M. Steiner, T. Strunk,
   J. Stückrath, T. Rose, and J. Unsleber
   
 * started run on 2024/04/06 at 11:11:42.374     

           -------------------------------------------------
          |                Calculation Setup                |
           -------------------------------------------------

          program call               : xtb xtbopt.xyz --opt crude --input .xc2 --gfn2
          hostname                   : n-62-30-23
          coordinate file            : xtbopt.xyz
          omp threads                :                     1

   ID    Z sym.   atoms
    1    7 N      1, 17
    2    6 C      2-6, 8, 9, 11-16, 18-23, 25, 26, 28-33
    3    8 O      7, 10, 24, 27
    4    1 H      34-72

molecular fragmentation (1/2 indicates fragments):
111111111111111111111111111111222111111111111111111111111111111122222221
# atoms in fragment 1/2:    62    10
 fragment masses (1/2) :      412.52       43.09
CMA distance (Bohr)    :  13.368
constraining FC (au)   :  0.0500
########################################################################
[WARNING] Please study the warnings concerning your input carefully
-1- readin_getIntValue: could not parse ''
########################################################################

           -------------------------------------------------
          |                 G F N 2 - x T B                 |
           -------------------------------------------------

        Reference                      10.1021/acs.jctc.8b01176
      * Hamiltonian:
        H0-scaling (s, p, d)           1.850000    2.230000    2.230000
        zeta-weighting                 0.500000
      * Dispersion:
        s8                             2.700000
        a1                             0.520000
        a2                             5.000000
        s9                             5.000000
      * Repulsion:
        kExp                           1.500000    1.000000
        rExp                           1.000000
      * Coulomb:
        alpha                          2.000000
        third order                    shell-resolved
        anisotropic                    true
        a3                             3.000000
        a5                             4.000000
        cn-shift                       1.200000
        cn-exp                         4.000000
        max-rad                        5.000000

q/qsh data taken from xtbrestart
CAMM data taken from xtbrestart

          ...................................................
          :                      SETUP                      :
          :.................................................:
          :  # basis functions                 171          :
          :  # atomic orbitals                 171          :
          :  # shells                          105          :
          :  # electrons                       180          :
          :  max. iterations                   250          :
          :  Hamiltonian                  GFN2-xTB          :
          :  restarted?                       true          :
          :  GBSA solvation                  false          :
          :  PC potential                    false          :
          :  electronic temp.         5000.0000000     K    :
          :  accuracy                    1.0000000          :
          :  -> integral cutoff          0.2500000E+02      :
          :  -> integral neglect         0.1000000E-07      :
          :  -> SCF convergence          0.1000000E-05 Eh   :
          :  -> wf. convergence          0.1000000E-03 e    :
          :  Broyden damping             0.4000000          :
          ...................................................

 iter      E             dE          RMSdq      gap      omega  full diag
   1   -100.7313279 -0.100731E+03  0.178E-05    0.45       0.0  T
   2   -100.7313279  0.930385E-10  0.312E-05    0.45     377.8  T
   3   -100.7313279 -0.890594E-10  0.148E-05    0.45     794.9  T

   *** convergence criteria satisfied after 3 iterations ***

         #    Occupation            Energy/Eh            Energy/eV
      -------------------------------------------------------------
         1        2.0000           -0.8035541             -21.8658
       ...           ...                  ...                  ...
        84        1.9962           -0.5073158             -13.8048
        85        1.9862           -0.4867180             -13.2443
        86        1.9804           -0.4811396             -13.0925
        87        1.9338           -0.4614976             -12.5580
        88        1.8782           -0.4513878             -12.2829
        89        1.8581           -0.4488037             -12.2126
        90        1.2425           -0.4159074             -11.3174 (HOMO)
        91        0.7339           -0.3994398             -10.8693 (LUMO)
        92        0.3918           -0.3857139             -10.4958
        93        0.0051           -0.3136234              -8.5341
        94        0.0030           -0.3049278              -8.2975
        95        0.0026           -0.3026524              -8.2356
       ...           ...                  ...                  ...
       171                          0.5921751              16.1139
      -------------------------------------------------------------
                  HL-Gap            0.0164675 Eh            0.4481 eV
             Fermi-level           -0.4080733 Eh          -11.1042 eV

 SCC (total)                   0 d,  0 h,  0 min,  0.120 sec
 SCC setup                      ...        0 min,  0.001 sec (  0.913%)
 Dispersion                     ...        0 min,  0.002 sec (  1.614%)
 classical contributions        ...        0 min,  0.000 sec (  0.417%)
 integral evaluation            ...        0 min,  0.018 sec ( 15.300%)
 iterations                     ...        0 min,  0.028 sec ( 23.422%)
 molecular gradient             ...        0 min,  0.069 sec ( 57.777%)
 printout                       ...        0 min,  0.001 sec (  0.544%)

         :::::::::::::::::::::::::::::::::::::::::::::::::::::
         ::                     SUMMARY                     ::
         :::::::::::::::::::::::::::::::::::::::::::::::::::::
         :: total energy             -99.337228057330 Eh    ::
         :: gradient norm              0.001852734491 Eh/a0 ::
         :: HOMO-LUMO gap              0.448104668161 eV    ::
         ::.................................................::
         :: SCC energy              -100.731327858574 Eh    ::
         :: -> isotropic ES            0.110785440216 Eh    ::
         :: -> anisotropic ES          0.003034979902 Eh    ::
         :: -> anisotropic XC          0.043623218730 Eh    ::
         :: -> dispersion             -0.072470899494 Eh    ::
         :: repulsion energy           1.392750011633 Eh    ::
         :: add. restraining           0.000000000000 Eh    ::
         :: total charge               1.000000000026 e     ::
         :::::::::::::::::::::::::::::::::::::::::::::::::::::

      ----------------------------------------------------------- 
     |                   =====================                   |
     |                        A N C O P T                        |
     |                   =====================                   |
     |               Approximate Normal Coordinate               |
     |                Rational Function Optimizer                |
      ----------------------------------------------------------- 

          ...................................................
          :                      SETUP                      :
          :.................................................:
          :   optimization level             crude          :
          :   max. optcycles                   200          :
          :   ANC micro-cycles                  20          :
          :   degrees of freedom               210          :
          :.................................................:
          :   RF solver                   davidson          :
          :   write xtbopt.log                true          :
          :   linear?                        false          :
          :   energy convergence         0.5000000E-03 Eh   :
          :   grad. convergence          0.1000000E-01 Eh/α :
          :   maxmium RF displ.          1.0000000          :
          :   Hlow (freq-cutoff)         0.1000000E-01      :
          :   Hmax (freq-cutoff)         5.0000000          :
          :   S6 in model hess.         20.0000000          :
          ...................................................

generating ANC from model Hessian ...
Using Lindh-Hessian (1995)
 Shifting diagonal of input Hessian by    1.0051535477325893E-002
 Lowest  eigenvalues of input Hessian
    0.010000    0.010050    0.000000    0.000000    0.000000    0.000000
    0.000000    0.000000    0.010129    0.010187    0.010253    0.010348
    0.010372    0.010409    0.010727    0.010825    0.011058    0.011369
 Highest eigenvalues
    2.013041    2.019938    2.047939    2.072495    2.183555    2.187613


........................................................................
.............................. CYCLE    1 ..............................
........................................................................

 iter      E             dE          RMSdq      gap      omega  full diag
   1   -100.7313279 -0.100731E+03  0.102E-05    0.45       0.0  T
   2   -100.7313279  0.508180E-10  0.225E-05    0.45     523.5  T
   3   -100.7313279 -0.525660E-10  0.779E-06    0.45    1513.6  T
     SCC iter.                  ...        0 min,  0.026 sec
     gradient                   ...        0 min,  0.069 sec
 * total energy  :   -99.3372281 Eh     change       -0.1317346E-10 Eh
   gradient norm :     0.0018527 Eh/α   predicted     0.0000000E+00 (-100.00%)
   displ. norm   :     0.0483764 α      lambda       -0.9037985E-05
   maximum displ.:     0.0208050 α      in ANC's #2, #14, #10, ...

   *** GEOMETRY OPTIMIZATION CONVERGED AFTER 1 ITERATIONS ***

------------------------------------------------------------------------
 total energy gain   :        -0.0000000 Eh       -0.0000 kcal/mol
 total RMSD          :         0.0000000 a0        0.0000 Å
 total power (kW/mol):        -0.0000000 (step)   -0.0000 (real)
------------------------------------------------------------------------

 ANCopt (total)                0 d,  0 h,  0 min,  0.170 sec
 optimizer setup                ...        0 min,  0.000 sec (  0.161%)
 model hessian                  ...        0 min,  0.041 sec ( 24.314%)
 ANC generation                 ...        0 min,  0.006 sec (  3.739%)
 coordinate transformation      ...        0 min,  0.000 sec (  0.028%)
 single point calculation       ...        0 min,  0.119 sec ( 70.279%)
 optimization log               ...        0 min,  0.002 sec (  0.974%)
 hessian update                 ...        0 min,  0.000 sec (  0.001%)
 rational function              ...        0 min,  0.000 sec (  0.112%)

================
 final structure:
================
72
 xtb: 6.6.1 (8d0f1dd)
N           -0.85450014465387        1.19703796046680        2.23255941209952
C           -1.10579234221696        1.77675771771726        1.11139553826414
C           -2.08513555036680        1.38395821138364        0.17091268533107
C           -3.01420185366270        0.31807324944183        0.37346893729722
C           -3.94483637927349       -0.06454177141927       -0.62232599171259
C           -4.85660697523026       -1.07573637374779       -0.41411107179361
O           -5.78639063800619       -1.48802971378302       -1.31046365913022
C           -5.85420733299417       -0.86311494623818       -2.56737088150391
C           -4.87525459637928       -1.77858615297557        0.82389428382447
O           -5.80723911713129       -2.74495337419613        0.93109454442740
C           -5.89620365388823       -3.48616213097946        2.12569081101009
C           -3.95476651440013       -1.41645909454283        1.80224774680644
C           -3.05387574099890       -0.39671966294888        1.58663651269996
C           -2.03251073750213        2.11462812976427       -1.13840794318360
C           -1.11615671771279        1.36685424977516       -2.15833257484542
C            0.28075768486893        1.35629166775428       -1.68885954509912
N            0.86243668983122        0.35907362310274       -1.04444266461877
C            2.23341909675351        0.47018975846263       -0.60789020150964
C            3.20899533805551       -0.17811002411242       -1.60996551371562
C            4.61947342025922       -0.05764066860562       -1.10480134049275
C            5.35731740422273        1.09140337906003       -1.33692882678806
C            6.64680396924020        1.21935593130438       -0.84363972581478
C            7.22430128097622        0.19764391051412       -0.10424031084890
O            8.46356908856297        0.21146119198965        0.42344578261553
C            9.27847546349580        1.34467003505798        0.23279505848048
C            6.47612341604045       -0.98707016821976        0.13662605675387
O            7.11619146463353       -1.93247151348105        0.85494340962827
C            6.47170042483726       -3.15766465238759        1.10921972523396
C            5.18746207296193       -1.09008224078228       -0.36208993470774
C            0.21403011072262       -0.91768699268696       -0.85750675810349
C           -6.01428293225628        2.69941711167634        0.88457164496413
C           -6.04058391193800        1.64485122702678        1.90220036864866
C           -4.90397192373817        3.64753229392186        0.74087349670133
H           -3.95330047710985        0.44452896900852       -1.57020858898598
H           -6.08613649937000        0.20307926229248       -2.47527646175073
H           -6.66289332908299       -1.36175389969372       -3.09816940313624
H           -4.92376411422183       -0.98759226032722       -3.13065799234115
H           -6.11047678862116       -2.84166379862784        2.98372032343538
H           -6.72349135031873       -4.17791026584428        1.97862905021040
H           -4.97958502767290       -4.05220414799474        2.31547422182694
H           -3.94044739073066       -1.93218641963272        2.74891452300879
H           -2.35053055114034       -0.12624223989947        2.35799694713509
H           -3.01983561793198        2.21922384342849       -1.58428154784300
H           -1.62981678851081        3.11849213643734       -0.99192046363909
H           -1.50345471011478        0.35953787446084       -2.30113434068201
H           -1.16714699672317        1.90751079252489       -3.10593706261122
H           -0.52324997474995        2.65754636905246        0.80126850423773
H            0.85368366635687        2.26550458239442       -1.78803171526658
H            2.33356485633895       -0.01540827543223        0.36588822777864
H            2.49386110143626        1.52387997563081       -0.49122332991340
H            3.11111175545766        0.32885347633051       -2.57162796625314
H            2.94844059710091       -1.22841838110530       -1.74572043751452
H            4.93458143422049        1.89712543350669       -1.91772647421352
H            7.19832181538760        2.12265089090677       -1.04650696891003
H            8.82570655234455        2.24153419116848        0.66651033269224
H            9.48538818587521        1.51563980917127       -0.82791634287758
H           10.20982911825835        1.12447192418050        0.75092138638879
H            7.18760196764449       -3.75222826528663        1.67339377589675
H            5.56610027019091       -3.01888648409017        1.70852322719925
H            6.22060473329104       -3.67919850639841        0.18034603086054
H            4.61289563905376       -1.98628102384199       -0.18744337024366
H           -0.01781430499890       -1.38345070664166       -1.81776902315266
H           -0.70972340681192       -0.79707405234405       -0.28975911094121
H            0.87421187399106       -1.57804054144077       -0.30252352275792
H           -6.88753514081206        2.83076705649308        0.26564890463366
H           -5.08986720254586        1.56225696137203        2.42233553897589
H           -6.28791921024760        0.67949903510946        1.45246911563675
H           -6.83144216641282        1.84064615007923        2.63395609463647
H           -3.97217175814684        3.22895021978504        1.11851561236016
H           -4.78182377202434        3.96307626154214       -0.29496678742018
H           -5.11026996435883        4.55926498212051        1.31580494060997
H           -0.13123129037234        1.62446842674682        2.79854992472134

 Bond Distances (Angstroems)
 ---------------------------
N1-C2=1.2869         N1-H72=1.0130        C2-N1=1.2869         C2-C3=1.4135         C2-H47=1.1006        C3-C2=1.4135         
C3-C4=1.4284         C3-C14=1.5003        C4-C3=1.4284         C4-C5=1.4157         C4-C13=1.4086        C5-C4=1.4157         
C5-C6=1.3774         C5-H34=1.0760        C6-C5=1.3774         C6-O7=1.3557         C6-C9=1.4237         O7-C6=1.3557         
O7-C8=1.4053         C8-O7=1.4053         C8-H35=1.0950        C8-H36=1.0883        C8-H37=1.0948        C9-C6=1.4237         
C9-O10=1.3468        C9-C12=1.3913        O10-C9=1.3468        O10-C11=1.4087       C11-O10=1.4087       C11-H38=1.0943       
C11-H39=1.0884       C11-H40=1.0939       C12-C9=1.3913        C12-C13=1.3777       C12-H41=1.0781       C13-C4=1.4086        
C13-C12=1.3777       C13-H42=1.0784       C14-C3=1.5003        C14-C15=1.5618       C14-H43=1.0884       C14-H44=1.0915       
C15-C14=1.5618       C15-C16=1.4737       C15-H45=1.0886       C15-H46=1.0922       C16-C15=1.4737       C16-N17=1.3221       
C16-H48=1.0792       N17-C16=1.3221       N17-C18=1.4431       N17-C30=1.4441       C18-N17=1.4431       C18-C19=1.5415       
C18-H49=1.0927       C18-H50=1.0917       C19-C18=1.5415       C19-C20=1.5030       C19-H51=1.0915       C19-H52=1.0906       
C20-C19=1.5030       C20-C21=1.3851       C20-C29=1.3929       C21-C20=1.3851       C21-C22=1.3865       C21-H53=1.0795       
C22-C21=1.3865       C22-C23=1.3871       C22-H54=1.0776       C23-C22=1.3871       C23-O24=1.3470       C23-C26=1.4217       
O24-C23=1.3470       O24-C25=1.4088       C25-O24=1.4088       C25-H55=1.0943       C25-H56=1.0941       C25-H57=1.0883       
C26-C23=1.4217       C26-O27=1.3489       C26-C29=1.3856       O27-C26=1.3489       O27-C28=1.4075       C28-O27=1.4075       
C28-H58=1.0883       C28-H59=1.0948       C28-H60=1.0945       C29-C20=1.3929       C29-C26=1.3856       C29-H61=1.0788       
C30-N17=1.4441       C30-H62=1.0921       C30-H63=1.0910       C30-H64=1.0862       C31-C32=1.4657       C31-C33=1.4671       
C31-H65=1.0784       C32-C31=1.4657       C32-H66=1.0868       C32-H67=1.0933       C32-H68=1.0951       C33-C31=1.4671       
C33-H69=1.0891       C33-H70=1.0897       C33-H71=1.0974       H34-C5=1.0760        H35-C8=1.0950        H36-C8=1.0883        
H37-C8=1.0948        H38-C11=1.0943       H39-C11=1.0884       H40-C11=1.0939       H41-C12=1.0781       H42-C13=1.0784       
H43-C14=1.0884       H44-C14=1.0915       H45-C15=1.0886       H46-C15=1.0922       H47-C2=1.1006        H48-C16=1.0792       
H49-C18=1.0927       H50-C18=1.0917       H51-C19=1.0915       H52-C19=1.0906       H53-C21=1.0795       H54-C22=1.0776       
H55-C25=1.0943       H56-C25=1.0941       H57-C25=1.0883       H58-C28=1.0883       H59-C28=1.0948       H60-C28=1.0945       
H61-C29=1.0788       H62-C30=1.0921       H63-C30=1.0910       H64-C30=1.0862       H65-C31=1.0784       H66-C32=1.0868       
H67-C32=1.0933       H68-C32=1.0951       H69-C33=1.0891       H70-C33=1.0897       H71-C33=1.0974       H72-N1=1.0130        
 C  H  Rav=1.0890 sigma=0.0063  Rmin=1.0760  Rmax=1.1006    38
 C  C  Rav=1.4337 sigma=0.0541  Rmin=1.3774  Rmax=1.5618    21
 N  H  Rav=1.0130 sigma=0.0000  Rmin=1.0130  Rmax=1.0130     1
 N  C  Rav=1.3741 sigma=0.0706  Rmin=1.2869  Rmax=1.4441     4
 O  C  Rav=1.3786 sigma=0.0291  Rmin=1.3468  Rmax=1.4088     8

 selected bond angles (degree)
 --------------------
H72-N1-C2=115.86               C3-C2-N1=126.14                H47-C2-N1=120.17               H47-C2-C3=113.68               
C4-C3-C2=124.31                C14-C3-C2=114.90               C14-C3-C4=120.66               C5-C4-C3=121.97                
C13-C4-C3=121.27               C13-C4-C5=116.75               C6-C5-C4=121.82                H34-C5-C4=119.80               
H34-C5-C6=118.38               O7-C6-C5=125.26                C9-C6-C5=120.17                C9-C6-O7=114.57                
C8-O7-C6=119.29                H35-C8-O7=111.59               H36-C8-O7=105.57               H36-C8-H35=109.25              
H37-C8-O7=111.63               H37-C8-H35=109.51              H37-C8-H36=109.18              O10-C9-C6=115.63               
C12-C9-C6=118.32               C12-C9-O10=126.06              C11-O10-C9=119.26              

 selected dihedral angles (degree)
 ---------------------------------
C3-C2-N1-H72=181.40           H47-C2-N1-H72=  2.29          C4-C3-C2-N1=  4.38            C4-C3-C2-H47=183.53           
C14-C3-C2-N1=188.48           C14-C3-C2-H47=  7.63          C5-C4-C3-C2=182.27            C5-C4-C3-C14=357.94           
C13-C4-C3-C2=  2.86           C13-C4-C3-C14=178.53          C6-C5-C4-C3=181.28            C6-C5-C4-C13=  0.71           
H34-C5-C4-C3=  0.96           H34-C5-C4-C13=180.39          O7-C6-C5-C4=179.21            O7-C6-C5-H34=359.53           
C9-C6-C5-C4=359.41            C9-C6-C5-H34=179.73           C8-O7-C6-C5=  0.31            C8-O7-C6-C9=180.12            
H35-C8-O7-C6=298.46           H36-C8-O7-C6=179.88           H37-C8-O7-C6= 61.37           O10-C9-C6-C5=179.72           
O10-C9-C6-O7=359.90           C12-C9-C6-C5=359.95           C12-C9-C6-O7=180.13           C11-O10-C9-C6=180.19          
C11-O10-C9-C12=359.94         

 CMA Distance (Angstroems)
 ---------------------------
R(CMA):  7.0738
           -------------------------------------------------
          |                Final Singlepoint                |
           -------------------------------------------------

          ...................................................
          :                      SETUP                      :
          :.................................................:
          :  # basis functions                 171          :
          :  # atomic orbitals                 171          :
          :  # shells                          105          :
          :  # electrons                       180          :
          :  max. iterations                   250          :
          :  Hamiltonian                  GFN2-xTB          :
          :  restarted?                      false          :
          :  GBSA solvation                  false          :
          :  PC potential                    false          :
          :  electronic temp.         5000.0000000     K    :
          :  accuracy                    1.0000000          :
          :  -> integral cutoff          0.2500000E+02      :
          :  -> integral neglect         0.1000000E-07      :
          :  -> SCF convergence          0.1000000E-05 Eh   :
          :  -> wf. convergence          0.1000000E-03 e    :
          :  Broyden damping             0.4000000          :
          ...................................................

 iter      E             dE          RMSdq      gap      omega  full diag
   1   -100.7313279 -0.100731E+03  0.459E-06    0.45       0.0  T
   2   -100.7313279  0.925127E-11  0.983E-06    0.45    1199.4  T
   3   -100.7313279 -0.956391E-11  0.339E-06    0.45    3473.0  T

   *** convergence criteria satisfied after 3 iterations ***

         #    Occupation            Energy/Eh            Energy/eV
      -------------------------------------------------------------
         1        2.0000           -0.8035541             -21.8658
       ...           ...                  ...                  ...
        84        1.9962           -0.5073157             -13.8048
        85        1.9862           -0.4867180             -13.2443
        86        1.9804           -0.4811397             -13.0925
        87        1.9338           -0.4614976             -12.5580
        88        1.8782           -0.4513879             -12.2829
        89        1.8581           -0.4488037             -12.2126
        90        1.2425           -0.4159073             -11.3174 (HOMO)
        91        0.7339           -0.3994396             -10.8693 (LUMO)
        92        0.3918           -0.3857140             -10.4958
        93        0.0051           -0.3136233              -8.5341
        94        0.0030           -0.3049279              -8.2975
        95        0.0026           -0.3026525              -8.2356
       ...           ...                  ...                  ...
       171                          0.5921751              16.1139
      -------------------------------------------------------------
                  HL-Gap            0.0164678 Eh            0.4481 eV
             Fermi-level           -0.4080732 Eh          -11.1042 eV

 SCC (total)                   0 d,  0 h,  0 min,  0.117 sec
 SCC setup                      ...        0 min,  0.001 sec (  0.743%)
 Dispersion                     ...        0 min,  0.002 sec (  1.354%)
 classical contributions        ...        0 min,  0.000 sec (  0.364%)
 integral evaluation            ...        0 min,  0.018 sec ( 15.256%)
 iterations                     ...        0 min,  0.027 sec ( 22.844%)
 molecular gradient             ...        0 min,  0.069 sec ( 58.898%)
 printout                       ...        0 min,  0.001 sec (  0.527%)

         :::::::::::::::::::::::::::::::::::::::::::::::::::::
         ::                     SUMMARY                     ::
         :::::::::::::::::::::::::::::::::::::::::::::::::::::
         :: total energy             -99.337228057347 Eh    ::
         :: gradient norm              0.001852740028 Eh/a0 ::
         :: HOMO-LUMO gap              0.448110587953 eV    ::
         ::.................................................::
         :: SCC energy              -100.731327858592 Eh    ::
         :: -> isotropic ES            0.110785497914 Eh    ::
         :: -> anisotropic ES          0.003034988682 Eh    ::
         :: -> anisotropic XC          0.043623223572 Eh    ::
         :: -> dispersion             -0.072470902305 Eh    ::
         :: repulsion energy           1.392750011633 Eh    ::
         :: add. restraining           0.000000000000 Eh    ::
         :: total charge               1.000000000026 e     ::
         :::::::::::::::::::::::::::::::::::::::::::::::::::::

           -------------------------------------------------
          |                Property Printout                |
           -------------------------------------------------

    * Orbital Energies and Occupations

         #    Occupation            Energy/Eh            Energy/eV
      -------------------------------------------------------------
         1        2.0000           -0.8035541             -21.8658
       ...           ...                  ...                  ...
        78        1.9993           -0.5334951             -14.5171
        79        1.9990           -0.5285012             -14.3813
        80        1.9988           -0.5253783             -14.2963
        81        1.9987           -0.5242736             -14.2662
        82        1.9984           -0.5214201             -14.1886
        83        1.9974           -0.5130274             -13.9602
        84        1.9962           -0.5073157             -13.8048
        85        1.9862           -0.4867180             -13.2443
        86        1.9804           -0.4811397             -13.0925
        87        1.9338           -0.4614976             -12.5580
        88        1.8782           -0.4513879             -12.2829
        89        1.8581           -0.4488037             -12.2126
        90        1.2425           -0.4159073             -11.3174 (HOMO)
        91        0.7339           -0.3994396             -10.8693 (LUMO)
        92        0.3918           -0.3857140             -10.4958
        93        0.0051           -0.3136233              -8.5341
        94        0.0030           -0.3049279              -8.2975
        95        0.0026           -0.3026525              -8.2356
        96        0.0023           -0.3011116              -8.1937
        97        0.0001           -0.2485701              -6.7639
        98        0.0000           -0.1799423              -4.8965
        99        0.0000           -0.1662961              -4.5251
       100                         -0.1221398              -3.3236
       101                         -0.0591863              -1.6105
       ...                                ...                  ...
       171                          0.5921751              16.1139
      -------------------------------------------------------------
                  HL-Gap            0.0164678 Eh            0.4481 eV
             Fermi-level           -0.4080732 Eh          -11.1042 eV

     #   Z          covCN         q      C6AA      α(0)
     1   7 N        1.776    -0.334    29.493     8.042
     2   6 C        2.824     0.068    26.462     8.429
     3   6 C        2.955    -0.036    28.885     8.815
     4   6 C        2.964     0.007    27.862     8.658
     5   6 C        2.918    -0.088    30.202     9.012
     6   6 C        2.859     0.126    25.236     8.234
     7   8 O        1.706    -0.242    18.002     5.728
     8   6 C        3.644     0.032    20.380     6.489
     9   6 C        2.864     0.129    25.169     8.223
    10   8 O        1.706    -0.226    17.748     5.688
    11   6 C        3.645     0.026    20.464     6.502
    12   6 C        2.910    -0.069    29.707     8.937
    13   6 C        2.922    -0.056    29.379     8.889
    14   6 C        3.811    -0.061    21.668     6.626
    15   6 C        3.802    -0.065    21.749     6.640
    16   6 C        2.847     0.008    27.831     8.646
    17   7 N        2.729     0.028    20.764     6.768
    18   6 C        3.757    -0.019    20.958     6.527
    19   6 C        3.808    -0.070    21.838     6.652
    20   6 C        2.969    -0.000    28.036     8.685
    21   6 C        2.922    -0.049    29.224     8.865
    22   6 C        2.914    -0.068    29.691     8.935
    23   6 C        2.865     0.132    25.101     8.212
    24   8 O        1.706    -0.225    17.727     5.685
    25   6 C        3.645     0.026    20.472     6.503
    26   6 C        2.863     0.132    25.103     8.213
    27   8 O        1.706    -0.227    17.767     5.691
    28   6 C        3.645     0.028    20.443     6.499
    29   6 C        2.920    -0.080    29.988     8.980
    30   6 C        3.701    -0.074    22.079     6.719
    31   6 C        2.883    -0.018    28.468     8.747
    32   6 C        3.753    -0.111    22.691     6.793
    33   6 C        3.752    -0.110    22.673     6.790
    34   1 H        0.926     0.044     2.400     2.422
    35   1 H        0.924     0.045     2.385     2.415
    36   1 H        0.925     0.077     2.006     2.215
    37   1 H        0.924     0.044     2.392     2.419
    38   1 H        0.924     0.053     2.280     2.361
    39   1 H        0.925     0.080     1.983     2.202
    40   1 H        0.924     0.054     2.268     2.355
    41   1 H        0.926     0.053     2.278     2.360
    42   1 H        0.926     0.091     1.866     2.136
    43   1 H        0.925     0.055     2.261     2.351
    44   1 H        0.924     0.045     2.385     2.415
    45   1 H        0.925     0.063     2.165     2.301
    46   1 H        0.924     0.069     2.094     2.263
    47   1 H        0.923    -0.008     3.196     2.796
    48   1 H        0.926     0.068     2.109     2.271
    49   1 H        0.924     0.072     2.059     2.244
    50   1 H        0.924     0.069     2.101     2.267
    51   1 H        0.924     0.055     2.257     2.349
    52   1 H        0.924     0.055     2.260     2.351
    53   1 H        0.926     0.044     2.396     2.420
    54   1 H        0.926     0.057     2.235     2.338
    55   1 H        0.924     0.053     2.286     2.365
    56   1 H        0.924     0.055     2.264     2.353
    57   1 H        0.925     0.081     1.972     2.196
    58   1 H        0.925     0.080     1.975     2.198
    59   1 H        0.924     0.048     2.341     2.393
    60   1 H        0.924     0.051     2.303     2.373
    61   1 H        0.926     0.047     2.360     2.403
    62   1 H        0.924     0.075     2.028     2.227
    63   1 H        0.924     0.092     1.861     2.134
    64   1 H        0.925     0.081     1.971     2.195
    65   1 H        0.926     0.056     2.250     2.346
    66   1 H        0.925     0.063     2.164     2.300
    67   1 H        0.924     0.074     2.038     2.232
    68   1 H        0.924     0.087     1.912     2.162
    69   1 H        0.925     0.065     2.141     2.288
    70   1 H        0.925     0.063     2.161     2.299
    71   1 H        0.924     0.090     1.879     2.144
    72   1 H        0.860     0.138     1.482     1.907

 Mol. C6AA /au·bohr⁶  :      48038.569807
 Mol. C8AA /au·bohr⁸  :    1098661.545974
 Mol. α(0) /au        :        338.590953


Wiberg/Mayer (AO) data.
largest (>0.10) Wiberg bond orders for each atom

 ---------------------------------------------------------------------------
     #   Z sym  total        # sym  WBO       # sym  WBO       # sym  WBO
 ---------------------------------------------------------------------------
     1   7 N    2.751 --     2 C    1.662    72 H    0.951
     2   6 C    3.934 --     1 N    1.662     3 C    1.271    47 H    0.934
     3   6 C    3.656 --     2 C    1.271     4 C    1.235    14 C    1.027
     4   6 C    3.958 --    13 C    1.289     5 C    1.272     3 C    1.235
     5   6 C    3.905 --     6 C    1.446     4 C    1.272    34 H    0.956
     6   6 C    3.901 --     5 C    1.446     9 C    1.204     7 O    1.081
     7   8 O    2.238 --     6 C    1.081     8 C    0.983
     8   6 C    3.938 --     7 O    0.983    36 H    0.977    37 H    0.974
                            35 H    0.974
     9   6 C    3.822 --    12 C    1.351     6 C    1.204    10 O    1.108
    10   8 O    2.238 --     9 C    1.108    11 C    0.977
    11   6 C    3.931 --    39 H    0.977    10 O    0.977    38 H    0.973
                            40 H    0.973
    12   6 C    3.964 --    13 C    1.471     9 C    1.351    41 H    0.963
    13   6 C    3.850 --    12 C    1.471     4 C    1.289    42 H    0.940
    14   6 C    3.957 --     3 C    1.027    44 H    0.971    43 H    0.961
                            15 C    0.923
    15   6 C    3.970 --    16 C    1.069    45 H    0.966    46 H    0.956
                            14 C    0.923
    16   6 C    3.584 --    17 N    1.433    15 C    1.069    48 H    0.960
    17   7 N    3.492 --    16 C    1.433    30 C    0.996    18 C    0.989
    18   6 C    3.955 --    17 N    0.989    50 H    0.968    19 C    0.966
                            49 H    0.963
    19   6 C    3.976 --    20 C    1.008    52 H    0.972    51 H    0.971
                            18 C    0.966
    20   6 C    3.948 --    21 C    1.411    29 C    1.380    19 C    1.008
    21   6 C    3.952 --    22 C    1.416    20 C    1.411    53 H    0.968
    22   6 C    3.962 --    21 C    1.416    23 C    1.386    54 H    0.963
    23   6 C    3.898 --    22 C    1.386    26 C    1.223    24 O    1.106
    24   8 O    2.254 --    23 C    1.106    25 C    0.977
    25   6 C    3.930 --    57 H    0.977    24 O    0.977    55 H    0.973
                            56 H    0.973
    26   6 C    3.901 --    29 C    1.397    23 C    1.223    27 O    1.101
    27   8 O    2.253 --    26 C    1.101    28 C    0.979
    28   6 C    3.933 --    27 O    0.979    58 H    0.977    59 H    0.974
                            60 H    0.974
    29   6 C    3.961 --    26 C    1.397    20 C    1.380    61 H    0.962
    30   6 C    3.953 --    17 N    0.996    64 H    0.978    62 H    0.965
                            63 H    0.959
    31   6 C    3.244 --    32 C    1.114    33 C    1.111    65 H    0.972
    32   6 C    3.977 --    31 C    1.114    66 H    0.979    67 H    0.936
                            68 H    0.923
    33   6 C    3.979 --    31 C    1.111    69 H    0.968    70 H    0.963
                            71 H    0.913
    34   1 H    0.997 --     5 C    0.956
    35   1 H    0.995 --     8 C    0.974
    36   1 H    0.993 --     8 C    0.977
    37   1 H    0.995 --     8 C    0.974
    38   1 H    0.992 --    11 C    0.973
    39   1 H    0.993 --    11 C    0.977
    40   1 H    0.991 --    11 C    0.973
    41   1 H    0.995 --    12 C    0.963
    42   1 H    0.988 --    13 C    0.940
    43   1 H    0.990 --    14 C    0.961
    44   1 H    0.994 --    14 C    0.971
    45   1 H    0.994 --    15 C    0.966
    46   1 H    0.985 --    15 C    0.956
    47   1 H    0.975 --     2 C    0.934
    48   1 H    0.995 --    16 C    0.960
    49   1 H    0.990 --    18 C    0.963
    50   1 H    0.994 --    18 C    0.968
    51   1 H    0.995 --    19 C    0.971
    52   1 H    0.996 --    19 C    0.972
    53   1 H    0.997 --    21 C    0.968
    54   1 H    0.995 --    22 C    0.963
    55   1 H    0.992 --    25 C    0.973
    56   1 H    0.992 --    25 C    0.973
    57   1 H    0.993 --    25 C    0.977
    58   1 H    0.993 --    28 C    0.977
    59   1 H    0.994 --    28 C    0.974
    60   1 H    0.993 --    28 C    0.974
    61   1 H    0.997 --    29 C    0.962
    62   1 H    0.985 --    30 C    0.965
    63   1 H    0.984 --    30 C    0.959
    64   1 H    0.993 --    30 C    0.978
    65   1 H    0.996 --    31 C    0.972
    66   1 H    0.995 --    32 C    0.979
    67   1 H    0.960 --    32 C    0.936
    68   1 H    0.947 --    32 C    0.923
    69   1 H    0.987 --    33 C    0.968
    70   1 H    0.980 --    33 C    0.963
    71   1 H    0.937 --    33 C    0.913
    72   1 H    0.972 --     1 N    0.951
 ---------------------------------------------------------------------------

Topologies differ in total number of bonds
Writing topology from bond orders to xtbtopo.mol

molecular dipole:
                 x           y           z       tot (Debye)
 q only:       -0.696       0.764      -0.687
   full:       -0.587       1.252      -0.906       4.203
molecular quadrupole (traceless):
                xx          xy          yy          xz          yz          zz
 q only:       69.736      -5.113     -26.865     -11.965     -10.819     -42.871
  q+dip:       63.402      -3.255     -21.477     -10.745     -11.693     -41.925
   full:       62.966      -5.259     -21.795     -13.305      -9.788     -41.170

           -------------------------------------------------
          |                Geometry Summary                 |
           -------------------------------------------------

      molecular mass/u    :      455.6105846
   center of mass at/Å    :        0.0627873      -0.0001638       0.0021956
  moments of inertia/u·Å² :        0.2099887E+04   0.1240235E+05   0.1306328E+05
rotational constants/cm⁻¹ :        0.8027874E-02   0.1359229E-02   0.1290460E-02

 * 68 selected distances

     #   Z          #   Z                                           value/Å
     1   7 N        2   6 C                                       1.2869466
     2   6 C        3   6 C                                       1.4134755
     3   6 C        4   6 C                                       1.4283922
     4   6 C        5   6 C                                       1.4156563
     5   6 C        6   6 C                                       1.3773866
     6   6 C        7   8 O                                       1.3557034
     7   8 O        8   6 C                                       1.4053233
     6   6 C        9   6 C                                       1.4237286
     9   6 C       10   8 O                                       1.3468307
    10   8 O       11   6 C                                       1.4086752
     9   6 C       12   6 C                                       1.3912621
     4   6 C       13   6 C                                       1.4086443
    12   6 C       13   6 C                                       1.3776651
    15   6 C       16   6 C                                       1.4737323
    16   6 C       17   7 N                                       1.3221451
    17   7 N       18   6 C                                       1.4430932
    18   6 C       19   6 C                                       1.5414918 (max)
    20   6 C       21   6 C                                       1.3851352
    21   6 C       22   6 C                                       1.3865360
    22   6 C       23   6 C                                       1.3871231
    23   6 C       24   8 O                                       1.3470073
    24   8 O       25   6 C                                       1.4087522
    23   6 C       26   6 C                                       1.4217365
    26   6 C       27   8 O                                       1.3488703
    27   8 O       28   6 C                                       1.4075240
    20   6 C       29   6 C                                       1.3928989
    26   6 C       29   6 C                                       1.3856325
    17   7 N       30   6 C                                       1.4441240
    31   6 C       32   6 C                                       1.4657318
    31   6 C       33   6 C                                       1.4670932
     5   6 C       34   1 H                                       1.0759676 (min)
     8   6 C       35   1 H                                       1.0950081
     8   6 C       36   1 H                                       1.0882836
     8   6 C       37   1 H                                       1.0947656
    11   6 C       38   1 H                                       1.0943061
    11   6 C       39   1 H                                       1.0883693
    11   6 C       40   1 H                                       1.0938973
    12   6 C       41   1 H                                       1.0781270
    13   6 C       42   1 H                                       1.0783551
    14   6 C       43   1 H                                       1.0883723
    14   6 C       44   1 H                                       1.0914963
    15   6 C       45   1 H                                       1.0886131
    15   6 C       46   1 H                                       1.0921831
     2   6 C       47   1 H                                       1.1006013
    16   6 C       48   1 H                                       1.0792347
    18   6 C       49   1 H                                       1.0927393
    18   6 C       50   1 H                                       1.0916522
    19   6 C       51   1 H                                       1.0915073
    19   6 C       52   1 H                                       1.0906264
    21   6 C       53   1 H                                       1.0794535
    22   6 C       54   1 H                                       1.0776219
    25   6 C       55   1 H                                       1.0942916
    25   6 C       56   1 H                                       1.0941446
    25   6 C       57   1 H                                       1.0882839
    28   6 C       58   1 H                                       1.0882617
    28   6 C       59   1 H                                       1.0947767
    28   6 C       60   1 H                                       1.0944648
    29   6 C       61   1 H                                       1.0787958
    30   6 C       62   1 H                                       1.0921499
    30   6 C       63   1 H                                       1.0909655
    30   6 C       64   1 H                                       1.0862382
    31   6 C       65   1 H                                       1.0783728
    32   6 C       66   1 H                                       1.0868417
    32   6 C       67   1 H                                       1.0933152
    32   6 C       68   1 H                                       1.0951069
    33   6 C       69   1 H                                       1.0890713
    33   6 C       70   1 H                                       1.0897034
    33   6 C       71   1 H                                       1.0974342

 * 4 distinct bonds (by element types)

   Z      Z             #   av. dist./Å        max./Å        min./Å
   1 H    6 C          38     1.0890368     1.1006013     1.0759676
   6 C    6 C          18     1.4190734     1.5414918     1.3773866
   6 C    7 N           4     1.3740772     1.4441240     1.2869466
   6 C    8 O           8     1.3785858     1.4087522     1.3468307


optimized geometry written to: xtbopt.xyz


           -------------------------------------------------
          | TOTAL ENERGY              -99.337228057347 Eh   |
          | GRADIENT NORM               0.001852740028 Eh/α |
          | HOMO-LUMO GAP               0.448110587953 eV   |
           -------------------------------------------------

------------------------------------------------------------------------
 * finished run on 2024/04/06 at 11:11:42.835     
------------------------------------------------------------------------
 total:
 * wall-time:     0 d,  0 h,  0 min,  0.461 sec
 *  cpu-time:     0 d,  0 h,  0 min,  0.431 sec
 * ratio c/w:     0.935 speedup
 SCF:
 * wall-time:     0 d,  0 h,  0 min,  0.120 sec
 *  cpu-time:     0 d,  0 h,  0 min,  0.120 sec
 * ratio c/w:     0.997 speedup
 ANC optimizer:
 * wall-time:     0 d,  0 h,  0 min,  0.295 sec
 *  cpu-time:     0 d,  0 h,  0 min,  0.287 sec
 * ratio c/w:     0.974 speedup

