25
 energy: 42.864907921703 xtb: 6.6.1 (8d0f1dd)
C            3.53612113626753        1.79692531825558        0.09416892582905
N            2.81088271128043        0.49740444343362        0.03266950764608
C            3.25578819445953       -0.76269989263539        0.07844358788235
N            2.23140187874610       -1.64235944704885        0.05110191005051
C            1.03783669160229       -0.93251956314576       -0.00450457584005
C            1.43388467205073        0.41317612236484       -0.01745430796769
C            0.42174741774671        1.42931370143368       -0.03980904423665
O            0.62839673940391        2.63674907038424       -0.04050453785633
N           -0.83163212946033        0.86462259376010       -0.05187871366768
C           -1.93756220924508        1.80022056556500       -0.05890172853432
C           -1.18629630860104       -0.52312462102199       -0.06380371419807
O           -2.37240971134946       -0.75449209916988       -0.08984740426573
N           -0.16889812973738       -1.43839818807299       -0.03393187151361
C           -3.91784535293967       -3.64422765139080       -0.10728912900272
H            4.29864896324912        1.82271821291187        0.87953638045234
H            4.06550412790448        2.06032202108570       -0.82807760123321
H            2.80782462266672        2.59255471589334        0.25889734908191
H            4.28242641047882       -1.08003779894671        0.11253433537856
H           -1.49025968683294        2.78500697432262       -0.04491276821213
H           -2.55519226878218        1.69240434806295       -0.94815193189813
H           -2.55237060867733        1.67817382319383        0.82919285516879
H           -4.19153069179891       -4.07523473192841        0.81111446699162
H           -4.11404698385762       -4.10184396837396       -1.02911539184966
H           -3.66378159813988       -2.62430615430055       -0.11743551578620
H            2.24042540097673       -2.64985025407415        0.08166121263983
