25
 energy: 0.000000000000 xtb: 6.6.1 (8d0f1dd)
C            3.23720132972391        1.16630909158653        0.08434468864950
N            2.29877796055224        0.07527476373246        0.03981602671198
C            2.58028186251803       -1.21425391179017        0.03006175752192
N            1.43813944744728       -1.93419254010258        0.00098261751768
C            0.39035684826767       -1.05887462812143       -0.00790371763344
C            0.93510047688824        0.21347817468824        0.01709077332874
C            0.09450143016486        1.40504290868848       -0.00410946993748
O            0.49712746915594        2.54126690785742       -0.00342325656480
N           -1.25076628431515        1.06271869620815       -0.03085477937476
C           -2.21907191394203        2.15522079838987       -0.05001256521996
C           -1.81739470187490       -0.20012724136556       -0.04692818139228
O           -2.99983858926755       -0.37846413507442       -0.07008877579474
N           -0.92618577614240       -1.30210203518959       -0.03682761236648
C           -1.46982251276835       -2.64643077634382       -0.06029819901142
H            3.71247229913541        1.21471443890471        1.06488839270555
H            4.00791460421487        1.03430799217987       -0.67357688121503
H            2.69909982127087        2.09770098766290       -0.09130154035862
H            3.56654087521359       -1.63682977417947        0.04233139674524
H           -1.67107945562430        3.09322822573871       -0.02552706696334
H           -2.82428927394145        2.09428605349656       -0.95318074103337
H           -2.87644002486466        2.07745706351925        0.81450059976605
H           -1.17061985538665       -3.19584861009707        0.83242224714061
H           -1.14560246782873       -3.17511580834413       -0.95688266944647
H           -2.55549768731684       -2.55659960601237       -0.07459039105944
H            1.38130842369251       -2.94313824728853       -0.01389874052104
25
 energy: -5.533102763012 xtb: 6.6.1 (8d0f1dd)
C            3.23651958327349        1.17502253910594        0.08014427445812
N            2.30285049548795        0.10062461054180        0.02954000395190
C            2.60295907077030       -1.24310605386686        0.03236871576625
N            1.42127180683691       -1.94382000506494        0.00340980512891
C            0.39864340202330       -1.06675303696839       -0.00725049365210
C            0.91711028214519        0.22045885278599        0.01241984751609
C            0.11140771346122        1.38048493094771       -0.00765817966754
O            0.48993091831438        2.55566465791211       -0.01625214155549
N           -1.27589308530739        1.05320418793661       -0.02714299907935
C           -2.20454070988160        2.18056029251456       -0.03672633916608
C           -1.82348903975985       -0.19874327752161       -0.04882548644754
O           -3.02094185359055       -0.39328848604146       -0.07100461457891
N           -0.94060984737403       -1.30434313504769       -0.03650850764494
C           -1.46690279633938       -2.65052763571992       -0.05727032533114
H            3.71285051779094        1.22658824706384        1.06327553270162
H            4.00704537328977        1.03822517485863       -0.68082053489919
H            2.69120015160035        2.09956518634664       -0.09932921383364
H            3.58017994739735       -1.65579579242945        0.04340318251232
H           -1.68599976520589        3.14668373526740        0.04451325237550
H           -2.76271156961676        2.18392230125133       -0.96446793648143
H           -2.92282793244697        2.05287610420914        0.77013001717987
H           -1.16265510470530       -3.20157397278021        0.83623780367352
H           -1.13329460976011       -3.18563291611846       -0.95011785501137
H           -2.55254479767285       -2.57185473156126       -0.07436444952865
H            1.36895820538976       -2.94849528649232       -0.00738303196409
25
 energy: -3.867721122260 xtb: 6.6.1 (8d0f1dd)
C            3.23173310783023        1.17640260331850        0.07322776353412
N            2.30132047858960        0.09822629682499        0.02083013649876
C            2.60520297589212       -1.24900679015121        0.03292335506464
N            1.42077012667343       -1.95018659460278        0.00701757150289
C            0.39740877743568       -1.07364891658469       -0.00566337543115
C            0.91379930918673        0.21392948195555        0.00885226827386
C            0.10651232689310        1.37163331332636       -0.01047667513701
O            0.48454712260245        2.54658454507048       -0.02942299485012
N           -1.28603209382830        1.05594318857296       -0.01395247383359
C           -2.19253339960160        2.21041013386023       -0.02122791013022
C           -1.83252973615099       -0.20178633310982       -0.04247014630231
O           -3.02850582426904       -0.40388156370025       -0.06917011509981
N           -0.94400821881350       -1.30827201697052       -0.03449851846354
C           -1.46307720513707       -2.65862529555287       -0.05445123723699
H            3.70718197975971        1.23404582840848        1.05696252893217
H            4.00324797947485        1.03989671458825       -0.68696116115188
H            2.68324746461910        2.09854681998064       -0.10840334616020
H            3.58301047275137       -1.66415016299775        0.04559035385624
H           -1.70830735604623        3.20042036209575        0.12508384669041
H           -2.69207713814543        2.27430007252028       -0.97731742554919
H           -2.96917572616432        2.02608083931597        0.71879635447401
H           -1.15756754900242       -3.20801483899157        0.84016846138338
H           -1.12309523193250       -3.19552774944842       -0.94439966270759
H           -2.54891071725392       -2.58863262118234       -0.07492537098445
H            1.36642660215350       -2.95519391295915        0.00137310222208
25
 energy: -1.546368143590 xtb: 6.6.1 (8d0f1dd)
C            3.22621209772542        1.17658589630628        0.06607789588705
N            2.29889799061293        0.09423949122727        0.01115359624050
C            2.60684657155593       -1.25574257945782        0.03353042474411
N            1.41962414074534       -1.95669228172507        0.01115019423648
C            0.39571571146950       -1.08065784639308       -0.00338109640436
C            0.90998256173705        0.20733276433715        0.00511694959244
C            0.10141883185350        1.36328841451183       -0.01309645524133
O            0.47779998132980        2.53846301530649       -0.04211788840114
N           -1.29605480442273        1.05973401732237        0.00372015614082
C           -2.18327009181638        2.23981393777548       -0.00347478141154
C           -1.84070263873022       -0.20395207167672       -0.03166550336473
O           -3.03487524231479       -0.41517319000277       -0.06512991738513
N           -0.94755079022796       -1.31207572686289       -0.03083335305486
C           -1.45912931083594       -2.66658793323032       -0.05085888278447
H            3.70104552136405        1.24035755321954        1.05027305791683
H            3.99902872247237        1.04092121669850       -0.69306713254535
H            2.67541981697737        2.09706252879220       -0.11734471474806
H            3.58559424675426       -1.67246257670998        0.04757789491385
H           -1.73173750569603        3.24790607145238        0.21211629922322
H           -2.61543667366093        2.36643511210001       -0.98712016173880
H           -3.01404179887838        1.99906735355888        0.66271189372372
H           -1.15200703780229       -3.21445883594051        0.84464226144798
H           -1.11257491991615       -3.20477508048647       -0.93811269892156
H           -2.54512995060933       -2.60576148484195       -0.07479320109499
H            1.36461401496823       -2.96197848790884        0.01080762712630
25
 energy: 1.453130082376 xtb: 6.6.1 (8d0f1dd)
C            3.21877231243507        1.17611861338209        0.05984861547462
N            2.29532964200837        0.08854485862068        0.00274420846114
C            2.60779987660260       -1.26364094680159        0.03257578385810
N            1.41850261649812       -1.96451176425717        0.01255106439235
C            0.39368940934093       -1.08884733106859       -0.00190746783675
C            0.90541433946124        0.19958819286041        0.00202884823267
C            0.09525460510554        1.35429086402743       -0.01309905478219
O            0.46939331656090        2.52981696680111       -0.04955381506412
N           -1.30592522094281        1.06439057227334        0.02342468486107
C           -2.17345815601344        2.27135699093682        0.01339880951838
C           -1.84830526675011       -0.20564999652975       -0.01947978040918
O           -3.04029770050749       -0.42753980151767       -0.06230720815376
N           -0.95103915575186       -1.31620772558525       -0.02669627846439
C           -1.45496389906169       -2.67446003502450       -0.04519693660594
H            3.69184748914057        1.24743206280850        1.04481738196502
H            3.99412922579769        1.04297476975654       -0.69732058793356
H            2.66497040524999        2.09433986321362       -0.12626233831935
H            3.58827446942600       -1.68032148599931        0.04606514365295
H           -1.75447422572509        3.29322661384714        0.30188020831955
H           -2.54009629023371        2.45502171436857       -0.99045541890400
H           -3.04895489717551        1.97847208489483        0.60085673144569
H           -1.14593554386635       -3.21832490733985        0.85264502034233
H           -1.10179781989334       -3.21531164131551       -0.92897553191063
H           -2.54093881013244       -2.62134906651701       -0.07242987798384
H            1.36577755173930       -2.97026526406265        0.01461732340121
25
 energy: 5.262494256374 xtb: 6.6.1 (8d0f1dd)
C            3.21212267061060        1.17483748585539        0.05215025228115
N            2.29045332334126        0.08319677461545       -0.00491629690260
C            2.60505665837951       -1.26997760613854        0.03374767388733
N            1.41634615442446       -1.97210389281489        0.01601101633341
C            0.39111890390630       -1.09659022945604       -0.00103633836320
C            0.89990995223090        0.19254221876268       -0.00199722299555
C            0.08749883645040        1.34588459424140       -0.01402867129761
O            0.46095687745796        2.52140825324729       -0.05935100245358
N           -1.31639799719731        1.06888162880386        0.04952901527416
C           -2.17151480679686        2.30182433544811        0.03347046035802
C           -1.85589697387535       -0.20795031983607       -0.00629040555406
O           -3.04546619982983       -0.43965562824606       -0.05665858280116
N           -0.95473347461747       -1.32053355199243       -0.02342820920899
C           -1.45075709630680       -2.68260163048048       -0.04199749145115
H            3.68397385695874        1.25318588040616        1.03764698047018
H            3.98986409691101        1.04357976011314       -0.70325673349194
H            2.65693540758278        2.09172139562856       -0.13675734948202
H            3.58788534611615       -1.67584463569336        0.03719580773981
H           -1.78695689569936        3.34039497276655        0.38097612892430
H           -2.45835386563660        2.53922906184151       -0.98948211185043
H           -3.09197468452835        1.96877736964336        0.53498573733159
H           -1.13971718581597       -3.22361653127058        0.85728002160902
H           -1.09084259420723       -3.22516395648745       -0.92261853032075
H           -2.53675467317158       -2.63878428123146       -0.07274730899176
H            1.36867808159508       -2.97826173996019        0.02443150171739
25
 energy: 10.139421720403 xtb: 6.6.1 (8d0f1dd)
C            3.20555209817970        1.17375112177553        0.04479603538915
N            2.28458619748055        0.07932086519574       -0.01025636219283
C            2.59938001619252       -1.27300912888285        0.03232241777903
N            1.41360628080087       -1.97888652366988        0.02038127184183
C            0.38782773800008       -1.10395002807864        0.00169291665200
C            0.89350662944022        0.18617914132057       -0.00477575064563
C            0.07902683295672        1.33821311629579       -0.01656014151875
O            0.45091872735582        2.51388211153757       -0.07222275947953
N           -1.32481762746177        1.07204401460212        0.07527247237484
C           -2.17259685110998        2.33140241896551        0.04957387245443
C           -1.86276196570537       -0.21114073467474        0.00772045739471
O           -3.05007139139277       -0.45193190378224       -0.05028582180929
N           -0.95862790451644       -1.32564067215591       -0.01842634660940
C           -1.44619190035139       -2.69154595425478       -0.03865221877626
H            3.67818026758615        1.25807494053678        1.02984262993978
H            3.98398423147090        1.04310324370349       -0.71028880532912
H            2.64990968147661        2.08999457506062       -0.14588761336660
H            3.58514486572349       -1.67027607620193        0.02524815150717
H           -1.83529731429110        3.39280447657161        0.44912244358464
H           -2.37475578709380        2.61862273816659       -0.98469530368184
H           -3.12710592460269        1.96477194849658        0.46377853564483
H           -1.13311509342584       -3.23109903508479        0.86122824861753
H           -1.07879449118828       -3.23384753328406       -0.91691845877355
H           -2.53215555840019       -2.65753391120763       -0.07319263566508
H            1.37304668403690       -2.98554600549103        0.03295705182039
25
 energy: 14.929580806123 xtb: 6.6.1 (8d0f1dd)
C            3.19774807715837        1.17425735181627        0.03719625715400
N            2.27806914596424        0.07790926014089       -0.01786368903118
C            2.59410832211307       -1.27140990631057        0.02373687976376
N            1.41273915187422       -1.98457583291719        0.02430216736335
C            0.38482610022641       -1.11150590947494        0.00529263600279
C            0.88627122213258        0.18038960406338       -0.00690819870939
C            0.06882607118698        1.33124724249391       -0.01719800006493
O            0.43892013668005        2.50695872886951       -0.08255673544896
N           -1.33409204654408        1.07036178248561        0.10071358985023
C           -2.18435418815187        2.34398680523558        0.06171734569540
C           -1.86862028856143       -0.21725924477492        0.02304334622319
O           -3.05391661830770       -0.46549601839328       -0.04186400268949
N           -0.96182411609103       -1.33241097216197       -0.01241253509440
C           -1.44177789101748       -2.70128451604222       -0.03560823702470
H            3.67018238938869        1.26470176376431        1.02219013006465
H            3.97727668443710        1.04422707857380       -0.71690848921308
H            2.64034080110480        2.08863540830527       -0.15619301986610
H            3.58122314176115       -1.66262866869331        0.02097593213764
H           -1.90304231781239        3.43133200677822        0.51934840930958
H           -2.29124521492293        2.69309604864379       -0.96707634191226
H           -3.15889341980908        1.96164622641584        0.38828163940234
H           -1.12720076478723       -3.24048707526585        0.86423036627058
H           -1.06739863132244       -3.24194665169860       -0.91242221932034
H           -2.52767094667894       -2.67578406664626       -0.07408681943089
H            1.38083650449769       -2.99178240654069        0.03833044782694
25
 energy: 20.307607519108 xtb: 6.6.1 (8d0f1dd)
C            3.19007263701122        1.17541871028575        0.03357048478829
N            2.27143279288595        0.07838740079546       -0.02217613940416
C            2.58995554602909       -1.26741512172184        0.01851506796241
N            1.41351407106609       -1.98749440235753        0.02391643059675
C            0.38235697741309       -1.11763868295985        0.00820274206169
C            0.87953042507979        0.17628826618047       -0.00745160391711
C            0.05948172537191        1.32654149914152       -0.01255597878152
O            0.42557392555908        2.50265558641016       -0.09142732014883
N           -1.33946274946419        1.06401474863836        0.12594097019739
C           -2.19134970747825        2.34154067414665        0.05962684133729
C           -1.87338637621977       -0.22614898534415        0.03984950178684
O           -3.05732386934265       -0.47830109496369       -0.02919303217900
N           -0.96379520843131       -1.34014138605896       -0.00511012246415
C           -1.43567452062050       -2.71173769821435       -0.03211324333797
H            3.66273757828321        1.26737315954849        1.01849172472947
H            3.96956167244756        1.04685835002582       -0.72061983529020
H            2.63139858505674        2.08864178862840       -0.15981614114951
H            3.57740561338194       -1.65737600997522        0.00934665203796
H           -1.97926831158677        3.47143762089177        0.54810545248977
H           -2.19745274392891        2.73941229185784       -0.95340826905085
H           -3.18087618410710        1.95956442150454        0.31091730559982
H           -1.11816894332496       -3.25066839409811        0.86701838598888
H           -1.05357484064265       -3.24903069061960       -0.90794592340293
H           -2.52169182352289       -2.69716878209304       -0.07427910963966
H            1.38958956536891       -2.99503595336837        0.03771788082555
25
 energy: 27.877742732613 xtb: 6.6.1 (8d0f1dd)
C            3.18477130937314        1.17866182694411        0.02811168538913
N            2.26927802353672        0.08237557614339       -0.02413968837031
C            2.59213803651934       -1.26223598213955        0.01496011997356
N            1.41853767651565       -1.98607281089727        0.02156220825592
C            0.38253981897393       -1.12192739633545        0.01033006949520
C            0.87654686477248        0.17291516162016       -0.00678023841649
C            0.05400965713097        1.32225445212924       -0.00271965979493
O            0.41579698766706        2.49821099351525       -0.09814065271074
N           -1.34424177236610        1.05540102579288        0.14605752116425
C           -2.19139956242471        2.33719011072641        0.05579820918727
C           -1.87431751457702       -0.23696677942049        0.04599209063182
O           -3.05727954421755       -0.49283666750424       -0.02483541930701
N           -0.96247945604991       -1.34705885370829        0.00063229566511
C           -1.42990866686282       -2.72047019103547       -0.02999808958870
H            3.65462794957706        1.27648485356490        1.01376288351456
H            3.96498721085258        1.04750790520361       -0.72446657310759
H            2.62465123561926        2.08907895145343       -0.17112164890632
H            3.57915955626793       -1.66034637890963        0.00998530255129
H           -2.04517105655131        3.53067044971718        0.56503361707368
H           -2.09598803842610        2.77165053212112       -0.93242379419795
H           -3.19248295267781        1.95881150848978        0.23070218809314
H           -1.11299712252881       -3.25675800091310        0.87092354293880
H           -1.04136127049066       -3.25770547588164       -0.90311343421704
H           -2.51599717620772       -2.71143193926573       -0.07673890159892
H            1.40077349906449       -2.99391402077465        0.03600951562387
25
 energy: 38.880487294491 xtb: 6.6.1 (8d0f1dd)
C            3.17994575377134        1.18055165206468        0.02426923897852
N            2.26955525651845        0.08300919691295       -0.02231156462017
C            2.59841739699954       -1.26328079593787        0.01492479501858
N            1.42284973729911       -1.98484477450205        0.02010116934476
C            0.38354050997937       -1.12331093459405        0.01302960989335
C            0.87687327823592        0.17105635169294       -0.00098178630134
C            0.05042817029017        1.31835778821191        0.00175218411399
O            0.41216311786649        2.49307759346106       -0.10094238181204
N           -1.34699131023979        1.04440268101726        0.13906635688546
C           -2.18227923490862        2.32315452620362        0.03470578383673
C           -1.87265416623298       -0.24963090764912        0.04277702851822
O           -3.05577665943646       -0.50778976517117       -0.02045576328697
N           -0.95959061277682       -1.35451278681029        0.00472047323046
C           -1.42294059675217       -2.72979964564758       -0.02813407449249
H            3.64710151756948        1.28313351987389        1.01031958375960
H            3.95958484946053        1.04749826898298       -0.72811638344749
H            2.61690784944038        2.08806008693502       -0.17903851256637
H            3.58446806283385       -1.66701504687220        0.01007680006362
H           -2.10456294118669        3.61987281532059        0.57101166166158
H           -1.98272256180110        2.79382875228226       -0.91637769592730
H           -3.19483005006414        1.95862228579633        0.14302607647904
H           -1.10611151722824       -3.26352245328293        0.87431533344634
H           -1.02900799933965       -3.26728289765201       -0.89863543371980
H           -2.50933955614753       -2.72642347663558       -0.07759355264149
H            1.40599099229592       -2.99159005744451        0.02796558635345
25
 energy: 55.418696284962 xtb: 6.6.1 (8d0f1dd)
C            3.17521438492480        1.18002899561742        0.01944259227725
N            2.26920127103121        0.08059729619492       -0.02106641515099
C            2.60248977783310       -1.26743612883667        0.01450282657422
N            1.42646325100529       -1.98958243400186        0.02163311658471
C            0.38602381701045       -1.12944565808356        0.01544184278925
C            0.87524734929139        0.16613166049700        0.00178865771286
C            0.04779587746694        1.30932648882125        0.00406066649762
O            0.41674628546130        2.48256458854396       -0.09001982174842
N           -1.35143211888303        1.02927975502887        0.12401649028006
C           -2.17640141235191        2.28323335420281        0.00244018648565
C           -1.87035618317127       -0.26743383785426        0.03869211437413
O           -3.05382453547192       -0.52416945912214       -0.01567913780673
N           -0.95675642386370       -1.36501212885572        0.00693864436725
C           -1.41565536160822       -2.74107851193676       -0.02628329558178
H            3.63860546598415        1.28536854341474        1.00620053353908
H            3.95531982174071        1.04628992761050       -0.73268690301162
H            2.60929909585645        2.08551950512818       -0.18579174066769
H            3.58862149233512       -1.67504030421439        0.01027320046518
H           -2.17660632066805        3.75299761450944        0.57321198801373
H           -1.87480739887336        2.81024665051835       -0.88684007110923
H           -3.20514924458486        1.94702233574620        0.05704830545256
H           -1.09771391679902       -3.26963128360538        0.87854507754777
H           -1.01484914369499       -3.27792623854722       -0.89383060536357
H           -2.50238737834806       -2.74351082273366       -0.07846773750040
H            1.40271304161313       -2.99609454014725        0.02382850210765
25
 energy: 78.608085477771 xtb: 6.6.1 (8d0f1dd)
C            3.17171590959238        1.17775036087448        0.01288104740515
N            2.26993841155281        0.07135474693813       -0.01497505024999
C            2.60400025518238       -1.26780828915625        0.01466889971727
N            1.43585144584351       -1.99616495815174        0.02371417308046
C            0.38843388891349       -1.13889891213648        0.01871514532853
C            0.87634069207770        0.15643055201253        0.00474511936235
C            0.04265113429337        1.29854066583146       -0.00246350877773
O            0.42043414264741        2.46507540928848       -0.08141431668689
N           -1.34879926321293        0.99410691058459        0.08734887494090
C           -2.16877826703267        2.16654830930317       -0.03246409807946
C           -1.86376337762542       -0.29912652073555        0.03297561677740
O           -3.04833438624309       -0.54723973818513       -0.00608914941652
N           -0.94742881971655       -1.38487294841072        0.01128395922650
C           -1.40753477798420       -2.75797715389698       -0.02515048736396
H            3.63400118460588        1.28788860619003        0.99809303873040
H            3.95024244716015        1.04308150151404       -0.74042342152508
H            2.60075875261874        2.08118074065937       -0.19307172710369
H            3.59195627638774       -1.68087415676820        0.01144601646277
H           -2.25403817722309        4.03682509196133        0.57897807773428
H           -1.79617196614161        2.81786429262217       -0.78269314693137
H           -3.21910441343112        1.92128854942244       -0.00996171155127
H           -1.09271706542174       -3.28245049619754        0.88170262657593
H           -1.00173330420004       -3.28915098871984       -0.89236199514927
H           -2.49492070945656       -2.75808627514591       -0.08166023370885
H            1.39991647894782       -3.00304334888870        0.02517881930063
25
 energy: 85.387809673290 xtb: 6.6.1 (8d0f1dd)
C            3.16932574070383        1.17539533173745        0.00632029413060
N            2.27058013767316        0.06611625058139       -0.01239754883746
C            2.60609548413258       -1.27139988491472        0.01583640505279
N            1.43970904420768       -2.00131426045676        0.02410725747484
C            0.39037214599031       -1.14454950819171        0.01928677339845
C            0.87774811281748        0.15216499928907        0.00533228775968
C            0.04600319339544        1.29224300299523       -0.00841599415456
O            0.42756422408366        2.46073396920006       -0.06835090648067
N           -1.34162438786252        0.97761695666469        0.05403589718631
C           -2.14128712252903        2.12146954084661       -0.06929205243800
C           -1.85752833697486       -0.31517422375541        0.02264393943842
O           -3.04665710171004       -0.55284502737293        0.00326201278319
N           -0.94271980497909       -1.39642464226305        0.01301641359430
C           -1.40054759230792       -2.76924455947585       -0.02191113506466
H            3.63188451005067        1.28465658394825        0.98998165000363
H            3.94915240327969        1.03779888432290       -0.74284194157088
H            2.59427362000184        2.07703223849025       -0.20087232079698
H            3.59464409123893       -1.68931838636175        0.01608593309432
H           -2.26210122284149        4.19779419526129        0.55029133318552
H           -1.70387078529412        2.85383910146779       -0.70399607607098
H           -3.19395578252760        1.91937508178315       -0.07762112314565
H           -1.08799460342205       -3.28908620307303        0.88825441041400
H           -0.98423317068344       -3.29674148646134       -0.88620569600941
H           -2.48795979343353       -2.77475873748816       -0.08509778965814
H            1.39203266872559       -3.00795416760859        0.02699695036476
25
 energy: 89.156874281242 xtb: 6.6.1 (8d0f1dd)
C            3.16803262768556        1.17428428774545        0.00259900539372
N            2.27124968125675        0.06217399311039       -0.01094639467348
C            2.60787209341120       -1.27474064058853        0.01702803066655
N            1.44348797717785       -2.00440618576171        0.02452796485301
C            0.39214797873674       -1.14880467982889        0.01979416967524
C            0.87775578292629        0.15166182946992        0.00807364724468
C            0.04759676279468        1.28662159409388       -0.01539280645837
O            0.42412721466238        2.46031787919497       -0.07224751914330
N           -1.34086915583639        0.96356645421018        0.02629872351611
C           -2.13247757130741        2.07940272762917       -0.10306429812522
C           -1.85439077038890       -0.33241230256033        0.01099399638004
O           -3.04612264430814       -0.56713636798514       -0.00276362657469
N           -0.93997237817193       -1.40540568612781        0.01397723683755
C           -1.40204886383050       -2.77495692989337       -0.02016531589831
H            3.62863388634458        1.27931692397185        0.98783059546962
H            3.94715952779076        1.03793931413982       -0.74842528434914
H            2.58704718144149        2.07249798970296       -0.20777145538285
H            3.59749881161075       -1.69690427625430        0.02267662479510
H           -2.23642794418548        4.34074702256192        0.47376188710495
H           -1.64750225940251        2.89833745490456       -0.59549899599574
H           -3.18683676277384        1.91208479290186       -0.14373339523301
H           -1.09381263176159       -3.29263637046765        0.89074862094176
H           -0.98511300412819       -3.29710996547083       -0.88433802415724
H           -2.48655345052530       -2.79041780650679       -0.08813891117089
H            1.38201480992651       -3.01077715301712        0.02790576327071
25