25
 energy: -42.079904025258 gnorm: 0.003530020093 xtb: 6.6.1 (8d0f1dd)
C            3.21902528086518        1.12464640885424       -0.02598322969137
N            2.29001292916936        0.02600349259707       -0.02151890051342
C            2.58689797435481       -1.26499493344023       -0.05870337073134
N            1.45599337315089       -1.99902262916467       -0.02132827998608
C            0.39740764033981       -1.14228915958770        0.04262898932702
C            0.91869722798588        0.14589085452427        0.04483204639214
C            0.08927600357968        1.31465969306262        0.08323911019095
O            0.44418518629726        2.47224701177613        0.06772869695340
N           -1.30057019339574        0.96477878002609        0.14257987174122
C           -2.18147356828749        1.97452220045585        0.20403394905276
C           -1.83487745812259       -0.35866346289737        0.14450239910002
O           -3.01746320925493       -0.54947897222888        0.18573263148268
N           -0.92180512418497       -1.40898813547906        0.09095651212564
C           -1.42393693296069       -2.77089217911898        0.08848882691255
H            3.72820293280963        1.19296965624361        0.93644014009646
H            3.96278531347089        0.98696264988570       -0.80927899294325
H            2.66782998201763        2.04903798141630       -0.19581958777818
H            3.57736392332477       -1.67282833126263       -0.11319333608353
H           -1.79423390924476        2.97596102253895        0.22683027377807
H           -3.18843392329677        4.33864913809246       -1.44313069113496
H           -3.23002087944328        1.74495996610436        0.23499767918274
H           -1.08778554591054       -3.30244424279562        0.97903052323564
H           -1.09798040009351       -3.29312296051709       -0.81075689392125
H           -2.51200684643036       -2.72176964046470        0.09586710469368
H            1.41334173735988       -3.00855566702088       -0.03700385358163
