      -----------------------------------------------------------      
     |                   =====================                   |     
     |                           x T B                           |     
     |                   =====================                   |     
     |                         S. Grimme                         |     
     |          Mulliken Center for Theoretical Chemistry        |     
     |                    University of Bonn                     |     
      -----------------------------------------------------------      

   * xtb version 6.6.1 (8d0f1dd) compiled by 'conda@1efc2f54142f' on 2023-08-01

   xtb is free software: you can redistribute it and/or modify it under
   the terms of the GNU Lesser General Public License as published by
   the Free Software Foundation, either version 3 of the License, or
   (at your option) any later version.
   
   xtb is distributed in the hope that it will be useful,
   but WITHOUT ANY WARRANTY; without even the implied warranty of
   MERCHANTABILITY or FITNESS FOR A PARTICULAR PURPOSE.  See the
   GNU Lesser General Public License for more details.
   
   Cite this work as:
   * C. Bannwarth, E. Caldeweyher, S. Ehlert, A. Hansen, P. Pracht,
     J. Seibert, S. Spicher, S. Grimme, WIREs Comput. Mol. Sci., 2020, 11,
     e01493. DOI: 10.1002/wcms.1493
   
   for GFN2-xTB:
   * C. Bannwarth, S. Ehlert and S. Grimme., J. Chem. Theory Comput., 2019,
     15, 1652-1671. DOI: 10.1021/acs.jctc.8b01176
   for GFN1-xTB:
   * S. Grimme, C. Bannwarth, P. Shushkov, J. Chem. Theory Comput., 2017,
     13, 1989-2009. DOI: 10.1021/acs.jctc.7b00118
   for GFN0-xTB:
   * P. Pracht, E. Caldeweyher, S. Ehlert, S. Grimme, ChemRxiv, 2019, preprint.
     DOI: 10.26434/chemrxiv.8326202.v1
   for GFN-FF:
   * S. Spicher and S. Grimme, Angew. Chem. Int. Ed., 2020, 59, 15665-15673.
     DOI: 10.1002/anie.202004239
   
   for ALPB and GBSA implicit solvation:
   * S. Ehlert, M. Stahn, S. Spicher, S. Grimme, J. Chem. Theory Comput.,
     2021, 17, 4250-4261. DOI: 10.1021/acs.jctc.1c00471
   
   for DFT-D4:
   * E. Caldeweyher, C. Bannwarth and S. Grimme, J. Chem. Phys., 2017,
     147, 034112. DOI: 10.1063/1.4993215
   * E. Caldeweyher, S. Ehlert, A. Hansen, H. Neugebauer, S. Spicher,
     C. Bannwarth and S. Grimme, J. Chem. Phys., 2019, 150, 154122.
     DOI: 10.1063/1.5090222
   * E. Caldeweyher, J.-M. Mewes, S. Ehlert and S. Grimme, Phys. Chem. Chem. Phys.
     2020, 22, 8499-8512. DOI: 10.1039/D0CP00502A
   
   for sTDA-xTB:
   * S. Grimme and C. Bannwarth, J. Chem. Phys., 2016, 145, 054103.
     DOI: 10.1063/1.4959605
   
   in the mass-spec context:
   * V. Asgeirsson, C. Bauer and S. Grimme, Chem. Sci., 2017, 8, 4879.
     DOI: 10.1039/c7sc00601b
   * J. Koopman and S. Grimme, ACS Omega 2019, 4, 12, 15120-15133.
     DOI: 10.1021/acsomega.9b02011
   
   for metadynamics refer to:
   * S. Grimme, J. Chem. Theory Comput., 2019, 155, 2847-2862
     DOI: 10.1021/acs.jctc.9b00143
   
   for SPH calculations refer to:
   * S. Spicher and S. Grimme, J. Chem. Theory Comput., 2021, 17, 1701-1714
     DOI: 10.1021/acs.jctc.0c01306
   
   with help from (in alphabetical order)
   P. Atkinson, C. Bannwarth, F. Bohle, G. Brandenburg, E. Caldeweyher
   M. Checinski, S. Dohm, S. Ehlert, S. Ehrlich, I. Gerasimov, C. Hölzer
   A. Katbashev, J. Koopman, C. Lavigne, S. Lehtola, F. März, M. Müller,
   F. Musil, H. Neugebauer, J. Pisarek, C. Plett, P. Pracht, F. Pultar,
   J. Seibert, P. Shushkov, S. Spicher, M. Stahn, M. Steiner, T. Strunk,
   J. Stückrath, T. Rose, and J. Unsleber
   
 * started run on 2024/04/06 at 11:13:58.859     

           -------------------------------------------------
          |                Calculation Setup                |
           -------------------------------------------------

          program call               : xtb struc.xyz --opt loose --input .xc1 --gfn2
          hostname                   : n-62-30-23
          coordinate file            : struc.xyz
          omp threads                :                     1

   ID    Z sym.   atoms
    1    7 N      1, 17
    2    6 C      2-6, 8, 9, 11-16, 18-23, 25, 26, 28-33
    3    8 O      7, 10, 24, 27
    4    1 H      34-72
constraining bond 21 24 to    5.7600000 Å, actual value:    3.6786507 Å

           -------------------------------------------------
          |                 G F N 2 - x T B                 |
           -------------------------------------------------

        Reference                      10.1021/acs.jctc.8b01176
      * Hamiltonian:
        H0-scaling (s, p, d)           1.850000    2.230000    2.230000
        zeta-weighting                 0.500000
      * Dispersion:
        s8                             2.700000
        a1                             0.520000
        a2                             5.000000
        s9                             5.000000
      * Repulsion:
        kExp                           1.500000    1.000000
        rExp                           1.000000
      * Coulomb:
        alpha                          2.000000
        third order                    shell-resolved
        anisotropic                    true
        a3                             3.000000
        a5                             4.000000
        cn-shift                       1.200000
        cn-exp                         4.000000
        max-rad                        5.000000


          ...................................................
          :                      SETUP                      :
          :.................................................:
          :  # basis functions                 171          :
          :  # atomic orbitals                 171          :
          :  # shells                          105          :
          :  # electrons                       180          :
          :  max. iterations                   250          :
          :  Hamiltonian                  GFN2-xTB          :
          :  restarted?                      false          :
          :  GBSA solvation                  false          :
          :  PC potential                    false          :
          :  electronic temp.         5000.0000000     K    :
          :  accuracy                    1.0000000          :
          :  -> integral cutoff          0.2500000E+02      :
          :  -> integral neglect         0.1000000E-07      :
          :  -> SCF convergence          0.1000000E-05 Eh   :
          :  -> wf. convergence          0.1000000E-03 e    :
          :  Broyden damping             0.4000000          :
          ...................................................

 iter      E             dE          RMSdq      gap      omega  full diag
   1   -100.5973919 -0.100597E+03  0.374E+00    3.20       0.0  T
   2   -100.7362642 -0.138872E+00  0.221E+00    1.08       1.0  T
   3   -100.7049001  0.313641E-01  0.141E+00    3.29       1.0  T
   4   -100.7721690 -0.672689E-01  0.526E-01    1.50       1.0  T
   5   -100.7894292 -0.172602E-01  0.190E-01    1.98       1.0  T
   6   -100.7911978 -0.176856E-02  0.792E-02    1.77       1.0  T
   7   -100.7914750 -0.277198E-03  0.375E-02    1.83       1.0  T
   8   -100.7914914 -0.164582E-04  0.140E-02    1.83       1.0  T
   9   -100.7914976 -0.616739E-05  0.474E-03    1.82       2.5  T
  10   -100.7914988 -0.118227E-05  0.172E-03    1.82       6.8  T
  11   -100.7914989 -0.139928E-06  0.766E-04    1.82      15.4  T
  12   -100.7914989 -0.773143E-08  0.318E-04    1.82      37.0  T

   *** convergence criteria satisfied after 12 iterations ***

         #    Occupation            Energy/Eh            Energy/eV
      -------------------------------------------------------------
         1        2.0000           -0.8078051             -21.9815
       ...           ...                  ...                  ...
        84        1.9966           -0.5157491             -14.0342
        85        1.9959           -0.5128261             -13.9547
        86        1.9840           -0.4911498             -13.3649
        87        1.9795           -0.4872543             -13.2589
        88        1.9640           -0.4782114             -13.0128
        89        1.8920           -0.4602041             -12.5228
        90        1.8557           -0.4553147             -12.3897 (HOMO)
        91        0.3166           -0.3884132             -10.5693 (LUMO)
        92        0.0218           -0.3434697              -9.3463
        93        0.0041           -0.3169887              -8.6257
        94        0.0034           -0.3139726              -8.5436
        95        0.0029           -0.3112618              -8.4699
       ...           ...                  ...                  ...
       171                          0.5822580              15.8440
      -------------------------------------------------------------
                  HL-Gap            0.0669015 Eh            1.8205 eV
             Fermi-level           -0.4148687 Eh          -11.2892 eV

 SCC (total)                   0 d,  0 h,  0 min,  0.189 sec
 SCC setup                      ...        0 min,  0.001 sec (  0.584%)
 Dispersion                     ...        0 min,  0.002 sec (  0.918%)
 classical contributions        ...        0 min,  0.000 sec (  0.226%)
 integral evaluation            ...        0 min,  0.018 sec (  9.569%)
 iterations                     ...        0 min,  0.098 sec ( 51.750%)
 molecular gradient             ...        0 min,  0.069 sec ( 36.602%)
 printout                       ...        0 min,  0.001 sec (  0.342%)

         :::::::::::::::::::::::::::::::::::::::::::::::::::::
         ::                     SUMMARY                     ::
         :::::::::::::::::::::::::::::::::::::::::::::::::::::
         :: total energy             -98.630635762230 Eh    ::
         :: gradient norm              0.554843834405 Eh/a0 ::
         :: HOMO-LUMO gap              1.820481192090 eV    ::
         ::.................................................::
         :: SCC energy              -100.791498925389 Eh    ::
         :: -> isotropic ES            0.109302908418 Eh    ::
         :: -> anisotropic ES          0.005415138735 Eh    ::
         :: -> anisotropic XC          0.042392697176 Eh    ::
         :: -> dispersion             -0.075527661009 Eh    ::
         :: repulsion energy           1.386151658689 Eh    ::
         :: add. restraining           0.773495151964 Eh    ::
         :: total charge               1.000000000108 e     ::
         :::::::::::::::::::::::::::::::::::::::::::::::::::::

      ----------------------------------------------------------- 
     |                   =====================                   |
     |                        A N C O P T                        |
     |                   =====================                   |
     |               Approximate Normal Coordinate               |
     |                Rational Function Optimizer                |
      ----------------------------------------------------------- 

          ...................................................
          :                      SETUP                      :
          :.................................................:
          :   optimization level             loose          :
          :   max. optcycles                   200          :
          :   ANC micro-cycles                  20          :
          :   degrees of freedom               210          :
          :.................................................:
          :   RF solver                   davidson          :
          :   write xtbopt.log                true          :
          :   linear?                        false          :
          :   energy convergence         0.5000000E-04 Eh   :
          :   grad. convergence          0.4000000E-02 Eh/α :
          :   maxmium RF displ.          1.0000000          :
          :   Hlow (freq-cutoff)         0.1000000E-01      :
          :   Hmax (freq-cutoff)         5.0000000          :
          :   S6 in model hess.         20.0000000          :
          ...................................................

generating ANC from model Hessian ...
Using Lindh-Hessian (1995)
 Shifting diagonal of input Hessian by    6.4251529149959866E-002
 Lowest  eigenvalues of input Hessian
    0.010000    0.057912    0.000000    0.000000    0.000000    0.000000
    0.000000    0.000000    0.064374    0.064410    0.064466    0.064613
    0.064792    0.065208    0.065422    0.065765    0.065992    0.066348
 Highest eigenvalues
    2.090217    2.100210    2.100884    2.233695    2.241307    2.264813


........................................................................
.............................. CYCLE    1 ..............................
........................................................................

 iter      E             dE          RMSdq      gap      omega  full diag
   1   -100.7914989 -0.100791E+03  0.114E-04    1.82       0.0  T
   2   -100.7914989 -0.678995E-10  0.713E-05    1.82     165.2  T
   3   -100.7914989  0.665210E-10  0.496E-05    1.82     237.5  T
     SCC iter.                  ...        0 min,  0.026 sec
     gradient                   ...        0 min,  0.072 sec
 * total energy  :   -98.6306358 Eh     change       -0.4035485E-08 Eh
   gradient norm :     0.5548411 Eh/α   predicted     0.0000000E+00 (-100.00%)
   displ. norm   :     0.5531461 α      lambda       -0.2715197E+00
   maximum displ.:     0.2466666 α      in ANC's #135, #157, #111, ...

........................................................................
.............................. CYCLE    2 ..............................
........................................................................

 iter      E             dE          RMSdq      gap      omega  full diag
   1   -100.7141188 -0.100714E+03  0.470E-01    1.87       0.0  T
   2   -100.7154782 -0.135940E-02  0.348E-01    1.78       1.0  T
   3   -100.7176162 -0.213802E-02  0.199E-01    1.95       1.0  T
   4   -100.7179158 -0.299595E-03  0.883E-02    1.81       1.0  T
   5   -100.7186946 -0.778784E-03  0.199E-02    1.92       1.0  T
   6   -100.7187202 -0.256015E-04  0.102E-02    1.90       1.2  T
   7   -100.7187236 -0.338980E-05  0.566E-03    1.90       2.1  T
   8   -100.7187239 -0.253098E-06  0.214E-03    1.90       5.5  T
   9   -100.7187240 -0.188976E-06  0.842E-04    1.90      14.0  T
  10   -100.7187241 -0.207502E-07  0.376E-04    1.90      31.4  T
     SCC iter.                  ...        0 min,  0.081 sec
     gradient                   ...        0 min,  0.069 sec
 * total energy  :   -98.8416672 Eh     change       -0.2110315E+00 Eh
   gradient norm :     0.3096481 Eh/α   predicted    -0.1773113E+00 ( -15.98%)
   displ. norm   :     0.5752145 α      lambda       -0.1560004E+00
   maximum displ.:     0.2364427 α      in ANC's #135, #157, #111, ...

........................................................................
.............................. CYCLE    3 ..............................
........................................................................

 iter      E             dE          RMSdq      gap      omega  full diag
   1   -100.6123385 -0.100612E+03  0.400E-01    1.84       0.0  T
   2   -100.6123259  0.126532E-04  0.306E-01    1.85       1.0  T
   3   -100.6145007 -0.217486E-02  0.189E-01    1.89       1.0  T
   4   -100.6153173 -0.816522E-03  0.641E-02    1.81       1.0  T
   5   -100.6156687 -0.351430E-03  0.225E-02    1.88       1.0  T
   6   -100.6157068 -0.380779E-04  0.101E-02    1.86       1.2  T
   7   -100.6157103 -0.352315E-05  0.619E-03    1.87       1.9  T
   8   -100.6157108 -0.540365E-06  0.354E-03    1.86       3.3  T
   9   -100.6157114 -0.577254E-06  0.129E-03    1.86       9.1  T
  10   -100.6157115 -0.850058E-07  0.484E-04    1.86      24.4  T
  11   -100.6157115 -0.374702E-08  0.243E-04    1.86      48.5  T
     SCC iter.                  ...        0 min,  0.088 sec
     gradient                   ...        0 min,  0.069 sec
 * total energy  :   -98.9566581 Eh     change       -0.1149909E+00 Eh
   gradient norm :     0.1576757 Eh/α   predicted    -0.1038089E+00 (  -9.72%)
   displ. norm   :     0.5397540 α      lambda       -0.6956702E-01
   maximum displ.:     0.1844666 α      in ANC's #77, #71, #135, ...

........................................................................
.............................. CYCLE    4 ..............................
........................................................................

 iter      E             dE          RMSdq      gap      omega  full diag
   1   -100.5298580 -0.100530E+03  0.256E-01    1.83       0.0  T
   2   -100.5293125  0.545423E-03  0.209E-01    1.81       1.0  T
   3   -100.5309131 -0.160059E-02  0.129E-01    1.87       1.0  T
   4   -100.5314040 -0.490860E-03  0.483E-02    1.81       1.0  T
   5   -100.5315564 -0.152439E-03  0.199E-02    1.85       1.0  T
   6   -100.5315895 -0.331219E-04  0.668E-03    1.84       1.8  T
   7   -100.5315905 -0.932855E-06  0.389E-03    1.84       3.0  T
   8   -100.5315906 -0.151164E-06  0.217E-03    1.84       5.4  T
   9   -100.5315908 -0.154269E-06  0.784E-04    1.84      15.0  T
  10   -100.5315908 -0.324406E-07  0.507E-04    1.84      23.2  T
     SCC iter.                  ...        0 min,  0.080 sec
     gradient                   ...        0 min,  0.069 sec
 * total energy  :   -99.0077423 Eh     change       -0.5108418E-01 Eh
   gradient norm :     0.0964742 Eh/α   predicted    -0.4491846E-01 ( -12.07%)
   displ. norm   :     0.5160495 α      lambda       -0.3390540E-01
   maximum displ.:     0.2034258 α      in ANC's #71, #77, #27, ...

........................................................................
.............................. CYCLE    5 ..............................
........................................................................

 iter      E             dE          RMSdq      gap      omega  full diag
   1   -100.4806937 -0.100481E+03  0.184E-01    1.82       0.0  T
   2   -100.4793300  0.136373E-02  0.182E-01    1.78       1.0  T
   3   -100.4818264 -0.249633E-02  0.897E-02    1.85       1.0  T
   4   -100.4819787 -0.152349E-03  0.487E-02    1.78       1.0  T
   5   -100.4821281 -0.149361E-03  0.183E-02    1.84       1.0  T
   6   -100.4821578 -0.297107E-04  0.593E-03    1.82       2.0  T
   7   -100.4821598 -0.197973E-05  0.342E-03    1.82       3.4  T
   8   -100.4821601 -0.303309E-06  0.230E-03    1.82       5.1  T
   9   -100.4821603 -0.208022E-06  0.913E-04    1.82      12.9  T
  10   -100.4821603 -0.354837E-07  0.402E-04    1.82      29.3  T
     SCC iter.                  ...        0 min,  0.081 sec
     gradient                   ...        0 min,  0.069 sec
 * total energy  :   -99.0337072 Eh     change       -0.2596488E-01 Eh
   gradient norm :     0.0872639 Eh/α   predicted    -0.2146734E-01 ( -17.32%)
   displ. norm   :     0.5514737 α      lambda       -0.2460686E-01
   maximum displ.:     0.2251689 α      in ANC's #27, #71, #77, ...

........................................................................
.............................. CYCLE    6 ..............................
........................................................................

 iter      E             dE          RMSdq      gap      omega  full diag
   1   -100.4531254 -0.100453E+03  0.241E-01    1.81       0.0  T
   2   -100.4349399  0.181855E-01  0.386E-01    1.36       1.0  T
   3   -100.4578631 -0.229233E-01  0.111E-01    1.87       1.0  T
   4   -100.4575378  0.325342E-03  0.961E-02    1.72       1.0  T
   5   -100.4581918 -0.654043E-03  0.367E-02    1.80       1.0  T
   6   -100.4582634 -0.715416E-04  0.158E-02    1.79       1.0  T
   7   -100.4582960 -0.326450E-04  0.457E-03    1.80       2.6  T
   8   -100.4582967 -0.705834E-06  0.251E-03    1.80       4.7  T
   9   -100.4582970 -0.254372E-06  0.131E-03    1.81       9.0  T
  10   -100.4582971 -0.727979E-07  0.505E-04    1.80      23.4  T
  11   -100.4582971 -0.276971E-08  0.314E-04    1.80      37.5  T
     SCC iter.                  ...        0 min,  0.088 sec
     gradient                   ...        0 min,  0.069 sec
 * total energy  :   -99.0548037 Eh     change       -0.2109652E-01 Eh
   gradient norm :     0.1017757 Eh/α   predicted    -0.1604526E-01 ( -23.94%)
   displ. norm   :     0.7201523 α      lambda       -0.3268061E-01
   maximum displ.:     0.3099088 α      in ANC's #27, #71, #77, ...

........................................................................
.............................. CYCLE    7 ..............................
........................................................................

 iter      E             dE          RMSdq      gap      omega  full diag
   1   -100.4402146 -0.100440E+03  0.434E-01    1.16       0.0  T
   2   -100.2777615  0.162453E+00  0.997E-01    0.52       1.0  T
   3   -100.4530061 -0.175245E+00  0.274E-01    1.34       1.0  T
   4   -100.4550977 -0.209162E-02  0.213E-01    1.14       1.0  T
   5   -100.4571064 -0.200875E-02  0.117E-01    1.29       1.0  T
   6   -100.4579072 -0.800706E-03  0.622E-02    1.21       1.0  T
   7   -100.4583320 -0.424818E-03  0.216E-02    1.23       1.0  T
   8   -100.4583884 -0.563939E-04  0.912E-03    1.24       1.3  T
   9   -100.4583948 -0.642397E-05  0.347E-03    1.24       3.4  T
  10   -100.4583948  0.172162E-07  0.258E-03    1.24       4.6  T
  11   -100.4583954 -0.580541E-06  0.127E-03    1.24       9.3  T
  12   -100.4583955 -0.113602E-06  0.399E-04    1.24      29.5  T
  13   -100.4583955 -0.173251E-07  0.137E-04    1.24      86.3  T
     SCC iter.                  ...        0 min,  0.104 sec
     gradient                   ...        0 min,  0.069 sec
 * total energy  :   -99.0866397 Eh     change       -0.3183597E-01 Eh
   gradient norm :     0.1244010 Eh/α   predicted    -0.2481472E-01 ( -22.05%)
   displ. norm   :     0.8467987 α      lambda       -0.5081825E-01
   maximum displ.:     0.3186948 α      in ANC's #27, #71, #210, ...

........................................................................
.............................. CYCLE    8 ..............................
........................................................................

 iter      E             dE          RMSdq      gap      omega  full diag
   1   -100.5026424 -0.100503E+03  0.490E-01    0.63       0.0  T
   2   -100.4844087  0.182337E-01  0.490E-01    0.71       1.0  T
   3   -100.4803118  0.409689E-02  0.420E-01    0.72       1.0  T
   4   -100.4731799  0.713192E-02  0.488E-01    0.44       1.0  T
   5   -100.5039382 -0.307584E-01  0.149E-01    0.77       1.0  T
   6   -100.5062672 -0.232892E-02  0.541E-02    0.64       1.0  T
   7   -100.5065835 -0.316334E-03  0.181E-02    0.67       1.0  T
   8   -100.5066155 -0.320407E-04  0.103E-02    0.67       1.1  T
   9   -100.5066197 -0.418844E-05  0.550E-03    0.67       2.1  T
  10   -100.5066211 -0.132568E-05  0.269E-03    0.67       4.4  T
  11   -100.5066220 -0.948460E-06  0.891E-04    0.67      13.2  T
  12   -100.5066220  0.125892E-07  0.614E-04    0.67      19.2  T
     SCC iter.                  ...        0 min,  0.096 sec
     gradient                   ...        0 min,  0.069 sec
 * total energy  :   -99.1276165 Eh     change       -0.4097686E-01 Eh
   gradient norm :     0.1036955 Eh/α   predicted    -0.4362932E-01 (   6.47%)
   displ. norm   :     0.4699224 α      lambda       -0.2965250E-01
   maximum displ.:     0.1813885 α      in ANC's #210, #202, #111, ...

........................................................................
.............................. CYCLE    9 ..............................
........................................................................

 iter      E             dE          RMSdq      gap      omega  full diag
   1   -100.5622317 -0.100562E+03  0.413E-01    0.74       0.0  T
   2   -100.5545551  0.767665E-02  0.324E-01    0.45       1.0  T
   3   -100.5431384  0.114167E-01  0.460E-01    0.97       1.0  T
   4   -100.5611751 -0.180367E-01  0.143E-01    0.65       1.0  T
   5   -100.5609283  0.246839E-03  0.142E-01    0.73       1.0  T
   6   -100.5640769 -0.314861E-02  0.166E-02    0.65       1.0  T
   7   -100.5640999 -0.229788E-04  0.713E-03    0.65       1.7  T
   8   -100.5641038 -0.396121E-05  0.308E-03    0.65       3.8  T
   9   -100.5641039 -0.923727E-07  0.134E-03    0.65       8.8  T
  10   -100.5641041 -0.129614E-06  0.580E-04    0.65      20.3  T
  11   -100.5641041 -0.168039E-07  0.298E-04    0.65      39.6  T
     SCC iter.                  ...        0 min,  0.088 sec
     gradient                   ...        0 min,  0.069 sec
 * total energy  :   -99.1448966 Eh     change       -0.1728010E-01 Eh
   gradient norm :     0.1681037 Eh/α   predicted    -0.1810030E-01 (   4.75%)
   displ. norm   :     0.3467755 α      lambda       -0.2394123E-01
   maximum displ.:     0.1578691 α      in ANC's #111, #110, #202, ...

........................................................................
.............................. CYCLE   10 ..............................
........................................................................

 iter      E             dE          RMSdq      gap      omega  full diag
   1   -100.5611482 -0.100561E+03  0.268E-01    0.72       0.0  T
   2   -100.5591874  0.196076E-02  0.198E-01    0.57       1.0  T
   3   -100.5482212  0.109662E-01  0.350E-01    0.98       1.0  T
   4   -100.5590473 -0.108261E-01  0.125E-01    0.67       1.0  T
   5   -100.5607852 -0.173785E-02  0.671E-02    0.71       1.0  T
   6   -100.5614879 -0.702709E-03  0.724E-03    0.68       1.6  T
   7   -100.5614903 -0.245600E-05  0.416E-03    0.68       2.8  T
   8   -100.5614912 -0.837700E-06  0.321E-03    0.68       3.7  T
   9   -100.5614914 -0.189994E-06  0.238E-03    0.68       5.0  T
  10   -100.5614921 -0.758979E-06  0.329E-04    0.68      35.8  T
  11   -100.5614921 -0.967215E-08  0.158E-04    0.68      74.7  T
     SCC iter.                  ...        0 min,  0.088 sec
     gradient                   ...        0 min,  0.069 sec
 * total energy  :   -99.1641030 Eh     change       -0.1920636E-01 Eh
   gradient norm :     0.1174829 Eh/α   predicted    -0.1341013E-01 ( -30.18%)
   displ. norm   :     0.5110916 α      lambda       -0.3127221E-01
   maximum displ.:     0.2351751 α      in ANC's #111, #202, #110, ...

........................................................................
.............................. CYCLE   11 ..............................
........................................................................

 iter      E             dE          RMSdq      gap      omega  full diag
   1   -100.5673463 -0.100567E+03  0.383E-01    0.75       0.0  T
   2   -100.5560291  0.113172E-01  0.367E-01    0.50       1.0  T
   3   -100.5495595  0.646961E-02  0.436E-01    0.91       1.0  T
   4   -100.5677402 -0.181807E-01  0.126E-01    0.72       1.0  T
   5   -100.5685717 -0.831409E-03  0.684E-02    0.65       1.0  T
   6   -100.5690678 -0.496114E-03  0.347E-02    0.70       1.0  T
   7   -100.5692390 -0.171238E-03  0.817E-03    0.69       1.4  T
   8   -100.5692460 -0.694601E-05  0.388E-03    0.69       3.0  T
   9   -100.5692465 -0.545639E-06  0.210E-03    0.69       5.6  T
  10   -100.5692469 -0.348927E-06  0.634E-04    0.69      18.6  T
  11   -100.5692469 -0.341743E-07  0.263E-04    0.69      44.8  T
     SCC iter.                  ...        0 min,  0.089 sec
     gradient                   ...        0 min,  0.069 sec
 * total energy  :   -99.1880913 Eh     change       -0.2398833E-01 Eh
   gradient norm :     0.1216354 Eh/α   predicted    -0.1972051E-01 ( -17.79%)
   displ. norm   :     0.5340758 α      lambda       -0.3283178E-01
   maximum displ.:     0.1688927 α      in ANC's #202, #111, #85, ...

........................................................................
.............................. CYCLE   12 ..............................
........................................................................

 iter      E             dE          RMSdq      gap      omega  full diag
   1   -100.5720786 -0.100572E+03  0.353E-01    0.55       0.0  T
   2   -100.5461999  0.258787E-01  0.533E-01    1.07       1.0  T
   3   -100.5659150 -0.197151E-01  0.327E-01    0.44       1.0  T
   4   -100.5732306 -0.731560E-02  0.127E-01    0.71       1.0  T
   5   -100.5735250 -0.294416E-03  0.868E-02    0.64       1.0  T
   6   -100.5746774 -0.115240E-02  0.313E-02    0.65       1.0  T
   7   -100.5748100 -0.132559E-03  0.661E-03    0.65       1.8  T
   8   -100.5748130 -0.299419E-05  0.366E-03    0.65       3.2  T
   9   -100.5748140 -0.105421E-05  0.203E-03    0.65       5.8  T
  10   -100.5748142 -0.205151E-06  0.519E-04    0.65      22.7  T
  11   -100.5748143 -0.303417E-07  0.181E-04    0.65      65.1  T
     SCC iter.                  ...        0 min,  0.089 sec
     gradient                   ...        0 min,  0.069 sec
 * total energy  :   -99.2140344 Eh     change       -0.2594311E-01 Eh
   gradient norm :     0.1203641 Eh/α   predicted    -0.2109851E-01 ( -18.67%)
   displ. norm   :     0.4621095 α      lambda       -0.3117155E-01
   maximum displ.:     0.1491747 α      in ANC's #157, #202, #85, ...

........................................................................
.............................. CYCLE   13 ..............................
........................................................................

 iter      E             dE          RMSdq      gap      omega  full diag
   1   -100.5759371 -0.100576E+03  0.585E-01    0.23       0.0  T
   2   -100.3195194  0.256418E+00  0.149E+00    1.40       1.0  T
   3   -100.5960455 -0.276526E+00  0.247E-01    0.47       1.0  T
   4   -100.5662287  0.298169E-01  0.454E-01    0.41       1.0  T
   5   -100.5975096 -0.312809E-01  0.111E-01    0.58       1.0  T
   6   -100.5993941 -0.188445E-02  0.282E-02    0.56       1.0  T
   7   -100.5994553 -0.612622E-04  0.158E-02    0.56       1.0  T
   8   -100.5994683 -0.129251E-04  0.846E-03    0.55       1.4  T
   9   -100.5994758 -0.759057E-05  0.206E-03    0.55       5.7  T
  10   -100.5994762 -0.362872E-06  0.587E-04    0.55      20.1  T
  11   -100.5994762 -0.181904E-07  0.321E-04    0.55      36.7  T
     SCC iter.                  ...        0 min,  0.089 sec
     gradient                   ...        0 min,  0.069 sec
 * total energy  :   -99.2257004 Eh     change       -0.1166594E-01 Eh
   gradient norm :     0.1213055 Eh/α   predicted    -0.1891406E-01 (  62.13%)
   displ. norm   :     0.3208329 α      lambda       -0.2144401E-01
   maximum displ.:     0.1070182 α      in ANC's #111, #27, #71, ...

........................................................................
.............................. CYCLE   14 ..............................
........................................................................

 iter      E             dE          RMSdq      gap      omega  full diag
   1   -100.5948491 -0.100595E+03  0.218E-01    0.50       0.0  T
   2   -100.5803564  0.144927E-01  0.373E-01    0.83       1.0  T
   3   -100.5919457 -0.115893E-01  0.226E-01    0.43       1.0  T
   4   -100.5955923 -0.364663E-02  0.817E-02    0.57       1.0  T
   5   -100.5930970  0.249536E-02  0.138E-01    0.51       1.0  T
   6   -100.5962811 -0.318415E-02  0.908E-03    0.56       1.3  T
   7   -100.5962883 -0.712889E-05  0.457E-03    0.56       2.6  T
   8   -100.5962897 -0.141578E-05  0.256E-03    0.56       4.6  T
   9   -100.5962901 -0.383286E-06  0.128E-03    0.56       9.2  T
  10   -100.5962902 -0.159500E-06  0.315E-04    0.56      37.4  T
  11   -100.5962902 -0.618741E-08  0.138E-04    0.56      85.6  T
     SCC iter.                  ...        0 min,  0.088 sec
     gradient                   ...        0 min,  0.069 sec
 * total energy  :   -99.2357751 Eh     change       -0.1007477E-01 Eh
   gradient norm :     0.0720104 Eh/α   predicted    -0.1182571E-01 (  17.38%)
   displ. norm   :     0.1438578 α      lambda       -0.4859769E-02
   maximum displ.:     0.0644498 α      in ANC's #111, #37, #1, ...

........................................................................
.............................. CYCLE   15 ..............................
........................................................................

 iter      E             dE          RMSdq      gap      omega  full diag
   1   -100.6131418 -0.100613E+03  0.974E-02    0.54       0.0  T
   2   -100.6122297  0.912129E-03  0.969E-02    0.60       1.0  T
   3   -100.6111850  0.104472E-02  0.137E-01    0.49       1.0  T
   4   -100.6129200 -0.173507E-02  0.508E-02    0.59       1.0  T
   5   -100.6130848 -0.164756E-03  0.282E-02    0.55       1.0  T
   6   -100.6132228 -0.138009E-03  0.579E-03    0.56       2.0  T
   7   -100.6132272 -0.436434E-05  0.198E-03    0.56       5.9  T
   8   -100.6132274 -0.217593E-06  0.108E-03    0.56      10.9  T
   9   -100.6132274 -0.591389E-07  0.557E-04    0.56      21.2  T
  10   -100.6132275 -0.193290E-07  0.241E-04    0.56      48.9  T
     SCC iter.                  ...        0 min,  0.080 sec
     gradient                   ...        0 min,  0.069 sec
 * total energy  :   -99.2393873 Eh     change       -0.3612188E-02 Eh
   gradient norm :     0.0420485 Eh/α   predicted    -0.2480216E-02 ( -31.34%)
   displ. norm   :     0.2314616 α      lambda       -0.4074501E-02
   maximum displ.:     0.1054635 α      in ANC's #1, #111, #37, ...

........................................................................
.............................. CYCLE   16 ..............................
........................................................................

 iter      E             dE          RMSdq      gap      omega  full diag
   1   -100.6283768 -0.100628E+03  0.117E-01    0.61       0.0  T
   2   -100.6227528  0.562400E-02  0.224E-01    0.43       1.0  T
   3   -100.6286352 -0.588246E-02  0.646E-02    0.59       1.0  T
   4   -100.6281252  0.510004E-03  0.711E-02    0.54       1.0  T
   5   -100.6284848 -0.359561E-03  0.411E-02    0.59       1.0  T
   6   -100.6287440 -0.259229E-03  0.250E-03    0.57       4.7  T
   7   -100.6287443 -0.309419E-06  0.169E-03    0.57       7.0  T
   8   -100.6287446 -0.290768E-06  0.765E-04    0.57      15.4  T
   9   -100.6287446 -0.177794E-07  0.353E-04    0.57      33.4  T
     SCC iter.                  ...        0 min,  0.073 sec
     gradient                   ...        0 min,  0.069 sec
 * total energy  :   -99.2411425 Eh     change       -0.1755185E-02 Eh
   gradient norm :     0.0160540 Eh/α   predicted    -0.2146433E-02 (  22.29%)
   displ. norm   :     0.1601022 α      lambda       -0.8711009E-03
   maximum displ.:     0.1416350 α      in ANC's #1, #27, #37, ...

........................................................................
.............................. CYCLE   17 ..............................
........................................................................

 iter      E             dE          RMSdq      gap      omega  full diag
   1   -100.6291601 -0.100629E+03  0.712E-02    0.56       0.0  T
   2   -100.6280886  0.107156E-02  0.968E-02    0.62       1.0  T
   3   -100.6288815 -0.792882E-03  0.601E-02    0.54       1.0  T
   4   -100.6289259 -0.444404E-04  0.473E-02    0.59       1.0  T
   5   -100.6292120 -0.286086E-03  0.175E-02    0.56       1.0  T
   6   -100.6292459 -0.339465E-04  0.207E-03    0.57       5.7  T
   7   -100.6292462 -0.216722E-06  0.121E-03    0.57       9.8  T
   8   -100.6292462 -0.123235E-07  0.882E-04    0.57      13.4  T
   9   -100.6292463 -0.835715E-07  0.199E-04    0.57      59.3  T
     SCC iter.                  ...        0 min,  0.073 sec
     gradient                   ...        0 min,  0.069 sec
 * total energy  :   -99.2414978 Eh     change       -0.3552498E-03 Eh
   gradient norm :     0.0122770 Eh/α   predicted    -0.4467298E-03 (  25.75%)
   displ. norm   :     0.0899313 α      lambda       -0.4456986E-03
   maximum displ.:     0.0668956 α      in ANC's #1, #37, #18, ...

........................................................................
.............................. CYCLE   18 ..............................
........................................................................

 iter      E             dE          RMSdq      gap      omega  full diag
   1   -100.6271161 -0.100627E+03  0.381E-02    0.56       0.0  T
   2   -100.6260680  0.104809E-02  0.962E-02    0.64       1.0  T
   3   -100.6271844 -0.111631E-02  0.188E-02    0.57       1.0  T
   4   -100.6270901  0.942506E-04  0.253E-02    0.58       1.0  T
   5   -100.6271745 -0.843744E-04  0.863E-03    0.57       1.4  T
   6   -100.6271857 -0.112621E-04  0.118E-03    0.57      10.0  T
   7   -100.6271858 -0.100782E-06  0.817E-04    0.57      14.4  T
   8   -100.6271859 -0.627739E-07  0.388E-04    0.57      30.4  T
     SCC iter.                  ...        0 min,  0.066 sec
     gradient                   ...        0 min,  0.069 sec
 * total energy  :   -99.2417752 Eh     change       -0.2774211E-03 Eh
   gradient norm :     0.0078937 Eh/α   predicted    -0.2246740E-03 ( -19.01%)
   displ. norm   :     0.1327864 α      lambda       -0.4739066E-03
   maximum displ.:     0.0435675 α      in ANC's #18, #11, #37, ...

........................................................................
.............................. CYCLE   19 ..............................
........................................................................

 iter      E             dE          RMSdq      gap      omega  full diag
   1   -100.6241534 -0.100624E+03  0.312E-02    0.59       0.0  T
   2   -100.6239902  0.163191E-03  0.440E-02    0.55       1.0  T
   3   -100.6241115 -0.121348E-03  0.262E-02    0.60       1.0  T
   4   -100.6241348 -0.232327E-04  0.158E-02    0.58       1.0  T
   5   -100.6241500 -0.151930E-04  0.931E-03    0.58       1.3  T
   6   -100.6241658 -0.158066E-04  0.152E-03    0.58       7.8  T
   7   -100.6241661 -0.287232E-06  0.626E-04    0.58      18.8  T
   8   -100.6241661 -0.517718E-08  0.397E-04    0.58      29.7  T
     SCC iter.                  ...        0 min,  0.065 sec
     gradient                   ...        0 min,  0.069 sec
 * total energy  :   -99.2421135 Eh     change       -0.3382857E-03 Eh
   gradient norm :     0.0063156 Eh/α   predicted    -0.2411357E-03 ( -28.72%)
   displ. norm   :     0.2006595 α      lambda       -0.4402919E-03
   maximum displ.:     0.0693252 α      in ANC's #18, #11, #12, ...

........................................................................
.............................. CYCLE   20 ..............................
........................................................................

 iter      E             dE          RMSdq      gap      omega  full diag
   1   -100.6235887 -0.100624E+03  0.360E-02    0.60       0.0  T
   2   -100.6229433  0.645386E-03  0.803E-02    0.53       1.0  T
   3   -100.6236193 -0.676031E-03  0.195E-02    0.60       1.0  T
   4   -100.6235558  0.635249E-04  0.213E-02    0.58       1.0  T
   5   -100.6236190 -0.632192E-04  0.917E-03    0.59       1.3  T
   6   -100.6236323 -0.132942E-04  0.800E-04    0.59      14.7  T
   7   -100.6236323  0.408069E-08  0.566E-04    0.59      20.8  T
   8   -100.6236323 -0.196901E-07  0.223E-04    0.59      52.7  T
     SCC iter.                  ...        0 min,  0.065 sec
     gradient                   ...        0 min,  0.069 sec
 * total energy  :   -99.2424143 Eh     change       -0.3008023E-03 Eh
   gradient norm :     0.0070198 Eh/α   predicted    -0.2290125E-03 ( -23.87%)
   displ. norm   :     0.1639261 α      lambda       -0.2538972E-03
   maximum displ.:     0.0649607 α      in ANC's #18, #11, #12, ...
 * RMSD in coord.:     0.6132351 α      energy gain  -0.6117785E+00 Eh

generating ANC from model Hessian ...
Using Lindh-Hessian (1995)
 Shifting diagonal of input Hessian by    1.0077345194703788E-002
 Lowest  eigenvalues of input Hessian
    0.010000    0.000000    0.000000    0.000000    0.000000    0.000000
    0.000000    0.010106    0.010152    0.010208    0.010276    0.010412
    0.010414    0.010727    0.010915    0.011016    0.011100    0.011295
 Highest eigenvalues
    1.975626    1.991992    2.042333    2.120774    2.145136    2.183433


........................................................................
.............................. CYCLE   21 ..............................
........................................................................

 iter      E             dE          RMSdq      gap      omega  full diag
   1   -100.6238687 -0.100624E+03  0.267E-02    0.58       0.0  T
   2   -100.6238178  0.508421E-04  0.252E-02    0.60       1.0  T
   3   -100.6237054  0.112454E-03  0.407E-02    0.56       1.0  T
   4   -100.6238661 -0.160703E-03  0.933E-03    0.59       1.3  T
   5   -100.6238552  0.108328E-04  0.109E-02    0.59       1.1  T
   6   -100.6238748 -0.195362E-04  0.121E-03    0.59       9.7  T
   7   -100.6238749 -0.179254E-06  0.684E-04    0.59      17.2  T
   8   -100.6238750 -0.525548E-07  0.245E-04    0.59      48.1  T
     SCC iter.                  ...        0 min,  0.065 sec
     gradient                   ...        0 min,  0.069 sec
 * total energy  :   -99.2425971 Eh     change       -0.1828530E-03 Eh
   gradient norm :     0.0059329 Eh/α   predicted     0.0000000E+00 (-100.00%)
   displ. norm   :     0.1185730 α      lambda       -0.2964778E-03
   maximum displ.:     0.0608395 α      in ANC's #14, #24, #11, ...

........................................................................
.............................. CYCLE   22 ..............................
........................................................................

 iter      E             dE          RMSdq      gap      omega  full diag
   1   -100.6249917 -0.100625E+03  0.231E-02    0.58       0.0  T
   2   -100.6249676  0.241629E-04  0.205E-02    0.60       1.0  T
   3   -100.6248488  0.118825E-03  0.352E-02    0.56       1.0  T
   4   -100.6249927 -0.143970E-03  0.519E-03    0.59       2.3  T
   5   -100.6249943 -0.159479E-05  0.229E-03    0.58       5.1  T
   6   -100.6249941  0.172750E-06  0.251E-03    0.58       4.7  T
   7   -100.6249951 -0.971393E-06  0.544E-04    0.58      21.7  T
   8   -100.6249951 -0.177993E-07  0.214E-04    0.58      55.2  T
     SCC iter.                  ...        0 min,  0.065 sec
     gradient                   ...        0 min,  0.069 sec
 * total energy  :   -99.2428379 Eh     change       -0.2407707E-03 Eh
   gradient norm :     0.0027947 Eh/α   predicted    -0.1503952E-03 ( -37.54%)
   displ. norm   :     0.2758350 α      lambda       -0.4063003E-03
   maximum displ.:     0.1487438 α      in ANC's #14, #24, #11, ...

........................................................................
.............................. CYCLE   23 ..............................
........................................................................

 iter      E             dE          RMSdq      gap      omega  full diag
   1   -100.6252433 -0.100625E+03  0.450E-02    0.58       0.0  T
   2   -100.6252281  0.152518E-04  0.288E-02    0.59       1.0  T
   3   -100.6245471  0.681035E-03  0.778E-02    0.52       1.0  T
   4   -100.6252403 -0.693261E-03  0.110E-02    0.58       1.1  T
   5   -100.6252491 -0.879113E-05  0.406E-03    0.58       2.9  T
   6   -100.6252491  0.781539E-08  0.330E-03    0.58       3.6  T
   7   -100.6252505 -0.137905E-05  0.148E-03    0.58       8.0  T
   8   -100.6252508 -0.318023E-06  0.408E-04    0.58      28.9  T
   9   -100.6252508 -0.104877E-07  0.146E-04    0.58      80.9  T
     SCC iter.                  ...        0 min,  0.073 sec
     gradient                   ...        0 min,  0.070 sec
 * total energy  :   -99.2430983 Eh     change       -0.2603654E-03 Eh
   gradient norm :     0.0029069 Eh/α   predicted    -0.2186088E-03 ( -16.04%)
   displ. norm   :     0.1841123 α      lambda       -0.1285004E-03
   maximum displ.:     0.0960917 α      in ANC's #14, #11, #24, ...

........................................................................
.............................. CYCLE   24 ..............................
........................................................................

 iter      E             dE          RMSdq      gap      omega  full diag
   1   -100.6247449 -0.100625E+03  0.279E-02    0.58       0.0  T
   2   -100.6247457 -0.768594E-06  0.159E-02    0.58       1.0  T
   3   -100.6246944  0.512983E-04  0.222E-02    0.57       1.0  T
   4   -100.6247356 -0.412164E-04  0.997E-03    0.59       1.2  T
   5   -100.6247463 -0.107411E-04  0.231E-03    0.58       5.1  T
   6   -100.6247464 -0.575529E-07  0.184E-03    0.58       6.4  T
   7   -100.6247468 -0.412519E-06  0.919E-04    0.58      12.8  T
   8   -100.6247469 -0.122734E-06  0.229E-04    0.58      51.4  T
     SCC iter.                  ...        0 min,  0.065 sec
     gradient                   ...        0 min,  0.070 sec
 * total energy  :   -99.2432009 Eh     change       -0.1026080E-03 Eh
   gradient norm :     0.0030144 Eh/α   predicted    -0.6642886E-04 ( -35.26%)
   displ. norm   :     0.3024384 α      lambda       -0.1877272E-03
   maximum displ.:     0.1428998 α      in ANC's #14, #11, #15, ...

........................................................................
.............................. CYCLE   25 ..............................
........................................................................

 iter      E             dE          RMSdq      gap      omega  full diag
   1   -100.6236278 -0.100624E+03  0.481E-02    0.59       0.0  T
   2   -100.6236214  0.637613E-05  0.281E-02    0.59       1.0  T
   3   -100.6230985  0.522909E-03  0.683E-02    0.55       1.0  T
   4   -100.6236240 -0.525521E-03  0.925E-03    0.59       1.3  T
   5   -100.6236230  0.984755E-06  0.827E-03    0.58       1.4  T
   6   -100.6236326 -0.960925E-05  0.196E-03    0.59       6.0  T
   7   -100.6236330 -0.361324E-06  0.108E-03    0.59      10.9  T
   8   -100.6236331 -0.126702E-06  0.360E-04    0.59      32.8  T
   9   -100.6236331 -0.159987E-07  0.130E-04    0.59      90.8  T
     SCC iter.                  ...        0 min,  0.073 sec
     gradient                   ...        0 min,  0.069 sec
 * total energy  :   -99.2433431 Eh     change       -0.1422496E-03 Eh
   gradient norm :     0.0024552 Eh/α   predicted    -0.1024506E-03 ( -27.98%)
   displ. norm   :     0.3407243 α      lambda       -0.1712959E-03
   maximum displ.:     0.1384412 α      in ANC's #14, #15, #11, ...

........................................................................
.............................. CYCLE   26 ..............................
........................................................................

 iter      E             dE          RMSdq      gap      omega  full diag
   1   -100.6223034 -0.100622E+03  0.571E-02    0.59       0.0  T
   2   -100.6222158  0.875637E-04  0.411E-02    0.62       1.0  T
   3   -100.6211635  0.105225E-02  0.103E-01    0.53       1.0  T
   4   -100.6222957 -0.113216E-02  0.118E-02    0.60       1.0  T
   5   -100.6222824  0.133255E-04  0.140E-02    0.59       1.0  T
   6   -100.6223142 -0.318457E-04  0.165E-03    0.60       7.2  T
   7   -100.6223143 -0.114680E-06  0.776E-04    0.60      15.2  T
   8   -100.6223144 -0.297019E-07  0.210E-04    0.60      56.2  T
     SCC iter.                  ...        0 min,  0.065 sec
     gradient                   ...        0 min,  0.069 sec
 * total energy  :   -99.2434765 Eh     change       -0.1334178E-03 Eh
   gradient norm :     0.0036701 Eh/α   predicted    -0.9559366E-04 ( -28.35%)
   displ. norm   :     0.4317165 α      lambda       -0.2165022E-03
   maximum displ.:     0.1801368 α      in ANC's #15, #4, #11, ...

........................................................................
.............................. CYCLE   27 ..............................
........................................................................

 iter      E             dE          RMSdq      gap      omega  full diag
   1   -100.6206169 -0.100621E+03  0.749E-02    0.60       0.0  T
   2   -100.6201411  0.475794E-03  0.742E-02    0.66       1.0  T
   3   -100.6193999  0.741224E-03  0.113E-01    0.54       1.0  T
   4   -100.6205930 -0.119318E-02  0.201E-02    0.62       1.0  T
   5   -100.6206127 -0.196905E-04  0.160E-02    0.61       1.0  T
   6   -100.6206547 -0.419329E-04  0.203E-03    0.61       5.8  T
   7   -100.6206547  0.386174E-08  0.118E-03    0.61      10.0  T
   8   -100.6206548 -0.115784E-06  0.538E-04    0.61      21.9  T
   9   -100.6206548 -0.371128E-07  0.186E-04    0.61      63.3  T
     SCC iter.                  ...        0 min,  0.072 sec
     gradient                   ...        0 min,  0.069 sec
 * total energy  :   -99.2436727 Eh     change       -0.1961646E-03 Eh
   gradient norm :     0.0066746 Eh/α   predicted    -0.1284341E-03 ( -34.53%)
   displ. norm   :     0.7374992 α      lambda       -0.4945667E-03
   maximum displ.:     0.3279256 α      in ANC's #15, #4, #11, ...

........................................................................
.............................. CYCLE   28 ..............................
........................................................................

 iter      E             dE          RMSdq      gap      omega  full diag
   1   -100.6161114 -0.100616E+03  0.136E-01    0.63       0.0  T
   2   -100.6136364  0.247498E-02  0.157E-01    0.77       1.0  T
   3   -100.6129205  0.715916E-03  0.190E-01    0.54       1.0  T
   4   -100.6160907 -0.317018E-02  0.376E-02    0.66       1.0  T
   5   -100.6161332 -0.424939E-04  0.317E-02    0.65       1.0  T
   6   -100.6163012 -0.167993E-03  0.355E-03    0.66       3.3  T
   7   -100.6163009  0.239106E-06  0.246E-03    0.66       4.8  T
   8   -100.6163015 -0.586938E-06  0.121E-03    0.66       9.7  T
   9   -100.6163017 -0.214253E-06  0.376E-04    0.66      31.3  T
  10   -100.6163018 -0.878899E-08  0.141E-04    0.66      83.8  T
     SCC iter.                  ...        0 min,  0.081 sec
     gradient                   ...        0 min,  0.074 sec
 * total energy  :   -99.2441858 Eh     change       -0.5130604E-03 Eh
   gradient norm :     0.0150626 Eh/α   predicted    -0.3817857E-03 ( -25.59%)
   displ. norm   :     1.0300197 α      lambda       -0.8210931E-03
   maximum displ.:     0.4721342 α      in ANC's #15, #4, #3, ...

........................................................................
.............................. CYCLE   29 ..............................
........................................................................

 iter      E             dE          RMSdq      gap      omega  full diag
   1   -100.6033609 -0.100603E+03  0.228E-01    0.77       0.0  T
   2   -100.5983816  0.497922E-02  0.220E-01    0.95       1.0  T
   3   -100.5915863  0.679531E-02  0.355E-01    0.61       1.0  T
   4   -100.6032546 -0.116682E-01  0.718E-02    0.78       1.0  T
   5   -100.6030149  0.239667E-03  0.700E-02    0.79       1.0  T
   6   -100.6038569 -0.842034E-03  0.525E-03    0.80       2.2  T
   7   -100.6038576 -0.718379E-06  0.313E-03    0.80       3.8  T
   8   -100.6038577 -0.989147E-08  0.249E-03    0.80       4.7  T
   9   -100.6038585 -0.896009E-06  0.842E-04    0.80      14.0  T
  10   -100.6038586 -0.638212E-07  0.226E-04    0.80      52.1  T
     SCC iter.                  ...        0 min,  0.080 sec
     gradient                   ...        0 min,  0.069 sec
 * total energy  :   -99.2445044 Eh     change       -0.3186364E-03 Eh
   gradient norm :     0.0391946 Eh/α   predicted    -0.8313643E-03 ( 160.91%)
   displ. norm   :     0.4410549 α      lambda       -0.5558420E-03
   maximum displ.:     0.2097583 α      in ANC's #15, #14, #11, ...

........................................................................
.............................. CYCLE   30 ..............................
........................................................................

 iter      E             dE          RMSdq      gap      omega  full diag
   1   -100.6125501 -0.100613E+03  0.826E-02    0.73       0.0  T
   2   -100.6113377  0.121237E-02  0.118E-01    0.81       1.0  T
   3   -100.6125470 -0.120927E-02  0.464E-02    0.73       1.0  T
   4   -100.6126190 -0.720755E-04  0.175E-02    0.75       1.0  T
   5   -100.6126377 -0.186926E-04  0.765E-03    0.75       1.5  T
   6   -100.6126400 -0.222044E-05  0.789E-03    0.75       1.5  T
   7   -100.6126477 -0.777427E-05  0.160E-03    0.75       7.4  T
   8   -100.6126478 -0.684247E-07  0.753E-04    0.75      15.7  T
   9   -100.6126478 -0.180139E-07  0.476E-04    0.75      24.8  T
     SCC iter.                  ...        0 min,  0.073 sec
     gradient                   ...        0 min,  0.070 sec
 * total energy  :   -99.2444589 Eh     change        0.4550969E-04 Eh
   gradient norm :     0.0258411 Eh/α   predicted    -0.3394846E-03 (-845.96%)
================
 final structure:
================
72
 xtb: 6.6.1 (8d0f1dd)
N           -1.76193005640000        2.68809039490000        2.16561075690000
C           -1.81392228370000        2.09859410250000        1.08133793040000
C           -2.99818303880000        1.90878052960000        0.19426551210000
C           -3.47420768020000        0.46288616610000        0.29016935460000
C           -4.43996898430000       -0.00330483290000       -0.60559694700000
C           -4.90734960440000       -1.30341158230000       -0.54901311400000
O           -5.84189486830000       -1.83205458650000       -1.36894264620000
C           -6.48435378860000       -0.99877349280000       -2.30440982770000
C           -4.39114454530000       -2.19046899320000        0.43093961430000
O           -4.89992910430000       -3.44082021600000        0.40772263020000
C           -4.51112850180000       -4.35186622960000        1.40912255350000
C           -3.43511326170000       -1.72258510870000        1.31355738540000
C           -2.98111367860000       -0.40866204850000        1.24322743660000
C           -2.47045251030000        2.18397043220000       -1.23587677620000
C           -1.47571987170000        1.11081679340000       -1.70013674360000
C           -0.19215057170000        1.12223456150000       -0.94811234320000
N            0.48695402650000        0.04747564810000       -0.62908980020000
C            1.87021822860000        0.13519251890000       -0.21605257130000
C            2.81941785860000       -0.32581183060000       -1.33941966640000
C            4.24392292760000       -0.12352493640000       -0.90195514160000
C            4.88264146450000        1.08133466660000       -1.12134495740000
C            6.18800960400000        1.27795368180000       -0.69309369340000
C            6.87185053750000        0.27280297160000       -0.03030627110000
O            8.13841043760000        0.35481793720000        0.42933565920000
C            8.86463891520000        1.54224916140000        0.21315214960000
C            6.22121044210000       -0.96639385400000        0.20340198270000
O            6.96375871210000       -1.89293228770000        0.85193771310000
C            6.41260924760000       -3.16536282220000        1.08684883300000
C            4.91989947960000       -1.14163074550000       -0.22961125380000
C           -0.10277250520000       -1.27197772050000       -0.66216947800000
C           -4.18174943190000        2.86042035090000        0.54188400490000
C           -4.77882145680000        2.52266043580000        1.90521452570000
C           -3.79996368070000        4.33696620220000        0.49436836840000
H           -4.84608442540000        0.66829209330000       -1.34343626760000
H           -6.99017034260000       -0.16054920410000       -1.81549139590000
H           -7.22467198430000       -1.62792857270000       -2.79434799360000
H           -5.78339447990000       -0.61831877160000       -3.05508840310000
H           -4.75055450390000       -3.97602886010000        2.40832690300000
H           -5.08399757130000       -5.25695202810000        1.21797550200000
H           -3.44224443500000       -4.58235700430000        1.35091501830000
H           -3.03861563620000       -2.36743958090000        2.08081299180000
H           -2.25950307550000       -0.07392022930000        1.97347578210000
H           -3.30632486840000        2.20436494440000       -1.93224077560000
H           -1.99134820780000        3.16338780600000       -1.26219189450000
H           -1.95849599210000        0.13567224620000       -1.66062781910000
H           -1.22169907090000        1.32440625770000       -2.74469301900000
H           -0.90529018360000        1.64008053400000        0.56419419610000
H            0.37392199710000        2.04746758030000       -0.98604251350000
H            2.02536557410000       -0.48713025860000        0.66815008310000
H            2.11135775340000        1.16773970750000        0.04364891770000
H            2.61746873890000        0.26380064090000       -2.23549587270000
H            2.63911137330000       -1.37668388540000       -1.56711401720000
H            4.37572704210000        1.87855248040000       -1.64463939550000
H            6.66450184750000        2.22434101050000       -0.88882542020000
H            8.39416253530000        2.39709349260000        0.70917481150000
H            8.97735914890000        1.75517488520000       -0.85432591110000
H            9.84552877080000        1.36775315300000        0.65092718820000
H            7.19385207620000       -3.73412174010000        1.58723525720000
H            5.53409704130000       -3.11039713520000        1.73879122130000
H            6.14409508610000       -3.66702745220000        0.15148993930000
H            4.41812701060000       -2.08268422800000       -0.06578100610000
H           -0.25311068840000       -1.60653207460000       -1.68978132320000
H           -1.06636384320000       -1.27297341890000       -0.14547828480000
H            0.56056938020000       -1.97400688730000       -0.16416637320000
H           -4.94857957520000        2.68185888330000       -0.21896757860000
H           -4.05248601510000        2.70315952590000        2.69098665370000
H           -5.09432861870000        1.48362296430000        1.94857507950000
H           -5.64627851960000        3.15125487400000        2.08638966200000
H           -3.01677883380000        4.55459839510000        1.21465957680000
H           -3.47279210760000        4.64306305210000       -0.49585519760000
H           -4.66891364860000        4.93538561190000        0.75379582870000
H           -0.88837560850000        2.78045544800000        2.66936551290000

 Bond Distances (Angstroems)
 ---------------------------
N1-C2=1.2353         N1-H72=1.0126        C2-N1=1.2353         C2-C3=1.4918         C2-H47=1.1416        C3-C2=1.4918         
C3-C4=1.5253         C3-C14=1.5490        C3-C31=1.5580        C4-C3=1.5253         C4-C5=1.3973         C4-C13=1.3824        
C5-C4=1.3973         C5-C6=1.3827         C5-H34=1.0772        C6-C5=1.3827         C6-O7=1.3510         C6-C9=1.4190         
O7-C6=1.3510         O7-C8=1.4079         C8-O7=1.4079         C8-H35=1.0943        C8-H36=1.0881        C8-H37=1.0953        
C9-C6=1.4190         C9-O10=1.3501        C9-C12=1.3827        O10-C9=1.3501        O10-C11=1.4085       C11-O10=1.4085       
C11-H38=1.0941       C11-H39=1.0881       C11-H40=1.0950       C12-C9=1.3827        C12-C13=1.3919       C12-H41=1.0778       
C13-C4=1.3824        C13-C12=1.3919       C13-H42=1.0798       C14-C3=1.5490        C14-C15=1.5352       C14-H43=1.0881       
C14-H44=1.0906       C15-C14=1.5352       C15-C16=1.4877       C15-H45=1.0888       C15-H46=1.0960       C16-C15=1.4877       
C16-N17=1.3107       C16-H48=1.0853       N17-C16=1.3107       N17-C18=1.4463       N17-C30=1.4456       C18-N17=1.4463       
C18-C19=1.5413       C18-H49=1.0923       C18-H50=1.0917       C19-C18=1.5413       C19-C20=1.5038       C19-H51=1.0915       
C19-H52=1.0903       C20-C19=1.5038       C20-C21=1.3812       C20-C29=1.3948       C21-C20=1.3812       C21-C22=1.3878       
C21-H53=1.0800       C22-C21=1.3878       C22-C23=1.3846       C22-H54=1.0775       C23-C22=1.3846       C23-O24=1.3499       
C23-C26=1.4190       O24-C23=1.3499       O24-C25=1.4086       C25-O24=1.4086       C25-H55=1.0946       C25-H56=1.0943       
C25-H57=1.0882       C26-C23=1.4190       C26-O27=1.3529       C26-C29=1.3826       O27-C26=1.3529       O27-C28=1.4064       
C28-O27=1.4064       C28-H58=1.0882       C28-H59=1.0954       C28-H60=1.0948       C29-C20=1.3948       C29-C26=1.3826       
C29-H61=1.0790       C30-N17=1.4456       C30-H62=1.0911       C30-H63=1.0934       C30-H64=1.0867       C31-C3=1.5580        
C31-C32=1.5262       C31-C33=1.5258       C31-H65=1.0949       C32-C31=1.5262       C32-H66=1.0852       C32-H67=1.0867       
C32-H68=1.0865       C33-C31=1.5258       C33-H69=1.0861       C33-H70=1.0869       C33-H71=1.0865       H34-C5=1.0772        
H35-C8=1.0943        H36-C8=1.0881        H37-C8=1.0953        H38-C11=1.0941       H39-C11=1.0881       H40-C11=1.0950       
H41-C12=1.0778       H42-C13=1.0798       H43-C14=1.0881       H44-C14=1.0906       H45-C15=1.0888       H46-C15=1.0960       
H47-C2=1.1416        H48-C16=1.0853       H49-C18=1.0923       H50-C18=1.0917       H51-C19=1.0915       H52-C19=1.0903       
H53-C21=1.0800       H54-C22=1.0775       H55-C25=1.0946       H56-C25=1.0943       H57-C25=1.0882       H58-C28=1.0882       
H59-C28=1.0954       H60-C28=1.0948       H61-C29=1.0790       H62-C30=1.0911       H63-C30=1.0934       H64-C30=1.0867       
H65-C31=1.0949       H66-C32=1.0852       H67-C32=1.0867       H68-C32=1.0865       H69-C33=1.0861       H70-C33=1.0869       
H71-C33=1.0865       H72-N1=1.0126        
 C  H  Rav=1.0901 sigma=0.0101  Rmin=1.0772  Rmax=1.1416    38
 C  C  Rav=1.4523 sigma=0.0682  Rmin=1.3812  Rmax=1.5580    22
 N  H  Rav=1.0126 sigma=0.0000  Rmin=1.0126  Rmax=1.0126     1
 N  C  Rav=1.3595 sigma=0.0905  Rmin=1.2353  Rmax=1.4463     4
 O  C  Rav=1.3794 sigma=0.0285  Rmin=1.3499  Rmax=1.4086     8

 selected bond angles (degree)
 --------------------
H72-N1-C2=121.10               C3-C2-N1=128.03                H47-C2-N1=123.77               H47-C2-C3=108.14               
C4-C3-C2=109.33                C14-C3-C2=104.83               C14-C3-C4=109.44               C31-C3-C2=113.12               
C31-C3-C4=109.14               C31-C3-C14=110.87              C5-C4-C3=119.45                C13-C4-C3=121.98               
C13-C4-C5=118.57               C6-C5-C4=121.41                H34-C5-C4=119.45               H34-C5-C6=119.13               
O7-C6-C5=125.23                C9-C6-C5=119.54                C9-C6-O7=115.22                C8-O7-C6=119.16                
H35-C8-O7=111.56               H36-C8-O7=105.51               H36-C8-H35=109.24              H37-C8-O7=111.65               
H37-C8-H35=109.63              H37-C8-H36=109.13              O10-C9-C6=115.47               C12-C9-C6=118.74               
C12-C9-O10=125.80              C11-O10-C9=118.87              

 selected dihedral angles (degree)
 ---------------------------------
C3-C2-N1-H72=182.03           H47-C2-N1-H72=358.85          C4-C3-C2-N1=253.88            C4-C3-C2-H47= 76.66           
C14-C3-C2-N1=136.64           C14-C3-C2-H47=319.42          C31-C3-C2-N1= 15.72           C31-C3-C2-H47=198.50          
C5-C4-C3-C2=189.84            C5-C4-C3-C14=304.13           C5-C4-C3-C31= 65.63           C13-C4-C3-C2= 10.00           
C13-C4-C3-C14=124.30          C13-C4-C3-C31=245.79          C6-C5-C4-C3=180.47            C6-C5-C4-C13=  0.31           
H34-C5-C4-C3=359.14           H34-C5-C4-C13=178.98          O7-C6-C5-C4=179.62            O7-C6-C5-H34=  0.95           
C9-C6-C5-C4=359.50            C9-C6-C5-H34=180.83           C8-O7-C6-C5=355.05            C8-O7-C6-C9=175.16            
H35-C8-O7-C6=301.99           H36-C8-O7-C6=183.47           H37-C8-O7-C6= 65.04           O10-C9-C6-C5=180.32           
O10-C9-C6-O7=  0.21           C12-C9-C6-C5=  0.45           C12-C9-C6-O7=180.34           C11-O10-C9-C6=184.59          
C11-O10-C9-C12=  4.45         
           -------------------------------------------------
          |                Final Singlepoint                |
           -------------------------------------------------

          ...................................................
          :                      SETUP                      :
          :.................................................:
          :  # basis functions                 171          :
          :  # atomic orbitals                 171          :
          :  # shells                          105          :
          :  # electrons                       180          :
          :  max. iterations                   250          :
          :  Hamiltonian                  GFN2-xTB          :
          :  restarted?                      false          :
          :  GBSA solvation                  false          :
          :  PC potential                    false          :
          :  electronic temp.         5000.0000000     K    :
          :  accuracy                    1.0000000          :
          :  -> integral cutoff          0.2500000E+02      :
          :  -> integral neglect         0.1000000E-07      :
          :  -> SCF convergence          0.1000000E-05 Eh   :
          :  -> wf. convergence          0.1000000E-03 e    :
          :  Broyden damping             0.4000000          :
          ...................................................

 iter      E             dE          RMSdq      gap      omega  full diag
   1   -100.6428911 -0.100643E+03  0.134E+00    0.86       0.0  T
   2   -100.7056414 -0.627504E-01  0.119E+00    2.52       1.0  T
   3   -100.7892233 -0.835819E-01  0.548E-01    1.82       1.0  T
   4   -100.7877398  0.148356E-02  0.275E-01    1.83       1.0  T
   5   -100.7903617 -0.262195E-02  0.110E-01    1.68       1.0  T
   6   -100.7913614 -0.999741E-03  0.384E-02    1.87       1.0  T
   7   -100.7914941 -0.132641E-03  0.107E-02    1.81       1.1  T
   8   -100.7914979 -0.381373E-05  0.557E-03    1.82       2.1  T
   9   -100.7914987 -0.789465E-06  0.202E-03    1.82       5.8  T
  10   -100.7914989 -0.236944E-06  0.627E-04    1.82      18.8  T
  11   -100.7914989 -0.493849E-08  0.313E-04    1.82      37.6  T

   *** convergence criteria satisfied after 11 iterations ***

         #    Occupation            Energy/Eh            Energy/eV
      -------------------------------------------------------------
         1        2.0000           -0.8078096             -21.9816
       ...           ...                  ...                  ...
        84        1.9966           -0.5157440             -14.0341
        85        1.9959           -0.5128215             -13.9546
        86        1.9840           -0.4911468             -13.3648
        87        1.9795           -0.4872496             -13.2587
        88        1.9640           -0.4782072             -13.0127
        89        1.8920           -0.4602057             -12.5228
        90        1.8557           -0.4553094             -12.3896 (HOMO)
        91        0.3167           -0.3884173             -10.5694 (LUMO)
        92        0.0218           -0.3434638              -9.3461
        93        0.0041           -0.3169868              -8.6256
        94        0.0034           -0.3139734              -8.5437
        95        0.0029           -0.3112568              -8.4697
       ...           ...                  ...                  ...
       171                          0.5822627              15.8442
      -------------------------------------------------------------
                  HL-Gap            0.0668921 Eh            1.8202 eV
             Fermi-level           -0.4148687 Eh          -11.2892 eV

 SCC (total)                   0 d,  0 h,  0 min,  0.180 sec
 SCC setup                      ...        0 min,  0.001 sec (  0.484%)
 Dispersion                     ...        0 min,  0.001 sec (  0.817%)
 classical contributions        ...        0 min,  0.000 sec (  0.241%)
 integral evaluation            ...        0 min,  0.018 sec ( 10.232%)
 iterations                     ...        0 min,  0.088 sec ( 49.186%)
 molecular gradient             ...        0 min,  0.070 sec ( 38.671%)
 printout                       ...        0 min,  0.001 sec (  0.359%)

         :::::::::::::::::::::::::::::::::::::::::::::::::::::
         ::                     SUMMARY                     ::
         :::::::::::::::::::::::::::::::::::::::::::::::::::::
         :: total energy             -98.630635762150 Eh    ::
         :: gradient norm              0.554842196650 Eh/a0 ::
         :: HOMO-LUMO gap              1.820226467524 eV    ::
         ::.................................................::
         :: SCC energy              -100.791498925310 Eh    ::
         :: -> isotropic ES            0.109290302833 Eh    ::
         :: -> anisotropic ES          0.005414510618 Eh    ::
         :: -> anisotropic XC          0.042391569718 Eh    ::
         :: -> dispersion             -0.075527675515 Eh    ::
         :: repulsion energy           1.386151658689 Eh    ::
         :: add. restraining           0.773495151964 Eh    ::
         :: total charge               1.000000000109 e     ::
         :::::::::::::::::::::::::::::::::::::::::::::::::::::


last geometry written to: xtblast.xyz

########################################################################
[ERROR] Program stopped due to fatal error
-5- Geometry optimization failed
-4- xtb_geoopt: Trying to recover from failed geometry optimization
-3- xtb_geoopt: Geometry optimization did not converge
-2- optimizer_ancopt: Could not relax structure
-1- optimizer_relax: internal rational function error
########################################################################
