25
 energy: -41.107452708185 gnorm: 5.848858834566 xtb: 6.6.1 (8d0f1dd)
C            3.40573821785943        0.57185471029747        0.06815568282285
N            3.64124838712599       -0.88514595892643       -0.00792707368211
C            2.69173664450053       -1.78875990442863       -0.03656567942431
N            1.37312216794869       -1.76578765504600       -0.03227910490226
C            0.43092758258353       -0.73116121908878       -0.03399183532251
C            0.77262972146925        0.57626286550302       -0.07206960733927
C           -0.15145945196101        1.65800485760529       -0.05993474452848
O            0.11028877834876        2.83913056689357       -0.07517831507371
N           -1.48981465849358        1.20781142337023       -0.02361267654426
C           -2.54470605998313        2.20130036899866       -0.00535282621056
C           -1.89344423228112       -0.10644134052124        0.00002209700829
O           -3.06120906074384       -0.41033886864501        0.02743012433200
N           -0.89477385115381       -1.09080901048556       -0.00530960118561
C           -1.33777939906215       -2.47077724113476        0.01997703501022
H            3.74045154811611        0.96182535714931        1.02893715048465
H            3.91587106989072        1.07254559582123       -0.75408218000470
H            2.24786425840813        0.78501956621886       -0.02337147163810
H            4.12044929474169       -1.01722692063691       -0.01632475900926
H           -2.08326955479835        3.18827303868588       -0.00069819410402
H           -3.18197625257432        2.08732623506753       -0.88495562151949
H           -3.16582550519431        2.06884624764549        0.88294268612761
H           -0.98788734109343       -2.98189675655335        0.91936263503546
H           -1.02040063584169       -3.00442986767902       -0.87855555399049
H           -2.42958263677098       -2.45555131112802        0.03886309596854
H            0.95223248305884       -2.69163623738257       -0.04430964441036
25
 energy: -42.095444504999 gnorm: 0.183195035860 xtb: 6.6.1 (8d0f1dd)
C            3.39596858918079        0.57918197372548        0.06861137829775
N            3.38937617582938       -0.81587428235604       -0.00348981288090
C            2.67276386212292       -1.78840211457297       -0.03639565997452
N            1.37025508909264       -1.76823866535435       -0.03237386998526
C            0.43069538755619       -0.73135277722789       -0.03398759742895
C            0.77264521665212        0.57626191114498       -0.07205573211382
C           -0.15146521239455        1.65800440074682       -0.05993284963836
O            0.11029007965193        2.83913435183559       -0.07517644670229
N           -1.48981903142898        1.20779317058904       -0.02361120965237
C           -2.54471401388419        2.20131221394070       -0.00535899974578
C           -1.89341437760621       -0.10639801651555        0.00001907336105
O           -3.06122333812084       -0.41034341474121        0.02743024222492
N           -0.89479081219606       -1.09077784675296       -0.00531824241683
C           -1.33778397702017       -2.47078738729041        0.01997869018540
H            3.74054290738335        0.96146870396494        1.02903604366522
H            3.91596126072724        1.07191851536374       -0.75416283809625
H            2.24731264789991        0.78610584727051       -0.02333269567643
H            4.40472747179764       -1.09129132615311       -0.02134638154768
H           -2.08326439474903        3.18827339377568       -0.00070339529528
H           -3.18196966321111        2.08732310002337       -0.88495535700821
H           -3.16582317628743        2.06884589354461        0.88293891673570
H           -0.98788145446565       -2.98189265951139        0.91936098122950
H           -1.02039995339741       -3.00442558544943       -0.87855370277152
H           -2.42957954075802       -2.45554821241923        0.03886617396347
H            0.95202177172551       -2.69205264598068       -0.04431509082842
25
 energy: -42.111995262266 gnorm: 0.057570964193 xtb: 6.6.1 (8d0f1dd)
C            3.38807776240826        0.60921167989080        0.07022349093065
N            3.45527265605700       -0.80678349560921       -0.00415228336680
C            2.67207365335219       -1.82785967712763       -0.03934850117995
N            1.34110522357515       -1.80368309238418       -0.03502958869720
C            0.42285315120528       -0.74871033730381       -0.03472959747135
C            0.77232833595285        0.56192466801510       -0.07156328335626
C           -0.14915760390209        1.64879946163655       -0.06009538030876
O            0.11759074772234        2.82906500173423       -0.07502737106705
N           -1.48991401988361        1.20633315879123       -0.02366374857977
C           -2.54103097208254        2.20363985120671       -0.00556483930883
C           -1.89871091888237       -0.10589508055257        0.00010654649533
O           -3.06722724792549       -0.40457708339173        0.02777265336732
N           -0.90509141552457       -1.09385950124877       -0.00563462003483
C           -1.34845515469289       -2.47248419179873        0.02018633155818
H            3.74327700440762        0.98047459997544        1.03113318579289
H            3.91601930815529        1.08515351413046       -0.75579012589293
H            2.23195308255643        0.84572331602004       -0.01672783368819
H            4.46820871395427       -1.07782038795692       -0.02207754906217
H           -2.07752898487093        3.18955353825814       -0.00116661043004
H           -3.17876870937159        2.09123325579820       -0.88508411818541
H           -3.16275309752583        2.07309814920923        0.88270039330929
H           -0.99530419638507       -2.98212240166259        0.91917093061145
H           -1.02845958563075       -3.00489799900678       -0.87813929063056
H           -2.43932153619586       -2.45525243407670        0.03964091952137
H            0.91339531762685       -2.72202597094626       -0.04596809242624
25
 energy: -42.114353692320 gnorm: 0.036001351803 xtb: 6.6.1 (8d0f1dd)
C            3.38333477151114        0.61265920527670        0.07044276676273
N            3.49497983789852       -0.81815270891335       -0.00661464585292
C            2.67613331110835       -1.82259676003048       -0.03999205594587
N            1.33954776306564       -1.79939837522782       -0.03415159280646
C            0.42223275881894       -0.75111979180216       -0.03300302741825
C            0.77054863887842        0.55923228900534       -0.06773350301895
C           -0.15033998485895        1.64465016085948       -0.05747313296263
O            0.11911293903779        2.82453076056499       -0.07258918693425
N           -1.49142780522559        1.20481739037393       -0.02328799253930
C           -2.54065151714661        2.20403156126058       -0.00680662809973
C           -1.90156894858701       -0.10670106644336        0.00007745988336
O           -3.07095167448609       -0.40502867760440        0.02683258827548
N           -0.90804351791962       -1.09441291654827       -0.00533813107379
C           -1.35670813198507       -2.47245490888132        0.02010446628003
H            3.73747682363166        0.98974160191252        1.02993226423749
H            3.90440823339667        1.09147460949463       -0.75732034046057
H            2.22187625923650        0.85866068832471       -0.01226837059434
H            4.50243283323678       -1.09230700213452       -0.02559174571725
H           -2.07417365024940        3.18851900865611       -0.00237813076029
H           -3.17731313619521        2.09225851298560       -0.88702800711782
H           -3.16310654762168        2.07484340254460        0.88100835094717
H           -1.00580425941378       -2.98382481634649        0.91908451076320
H           -1.03941155184270       -3.00643050887445       -0.87833933969488
H           -2.44773305573088       -2.45384839371645        0.03964046988721
H            0.91558112554213       -2.72090472313588       -0.04603542813923
25
 energy: -42.115418236413 gnorm: 0.021203546547 xtb: 6.6.1 (8d0f1dd)
C            3.37942490897454        0.61043002970973        0.06935504534844
N            3.53478206994235       -0.82799224285835       -0.00883930651651
C            2.68151093423955       -1.80732322361974       -0.03969974278432
N            1.34467981484668       -1.78928523461123       -0.03219811544480
C            0.42180057111804       -0.75203344759985       -0.03021617374823
C            0.76683369911585        0.55808412335101       -0.06131679422623
C           -0.15284254463305        1.64232697874936       -0.05290062909842
O            0.11975869983397        2.82210304561068       -0.06758904269169
N           -1.49395402701060        1.20464026485590       -0.02243422979860
C           -2.54165692573450        2.20591926063941       -0.00854189446475
C           -1.90398914643022       -0.10669216042334       -0.00000302680294
O           -3.07385893896050       -0.40481159493733        0.02521487749530
N           -0.91033977929720       -1.09466641370098       -0.00489639269446
C           -1.36369655128769       -2.47196936971299        0.01990422732738
H            3.72518382719656        0.99529730392723        1.02856764259447
H            3.88718846577786        1.09942263715205       -0.76022778290944
H            2.21077498999662        0.83694444665568       -0.01293568216577
H            4.53471844654283       -1.10634422450938       -0.02891071334107
H           -2.07286431749941        3.18927722611519       -0.00417631455160
H           -3.17691601010585        2.09499061277038       -0.88958112966853
H           -3.16567149375723        2.07900242824461        0.87822674167580
H           -1.01538958842437       -2.98527401264786        0.91864722033575
H           -1.04995343864220       -3.00727214054480       -0.87885922495916
H           -2.45498382359823       -2.44982523042283        0.03976586675253
H            0.92989167189616       -2.71671052059228       -0.04518380776305
25
 energy: -42.115715364690 gnorm: 0.015729085517 xtb: 6.6.1 (8d0f1dd)
C            3.37766548001443        0.60545106634908        0.06856095406326
N            3.54902478620762       -0.83225871030254       -0.01017002350683
C            2.68368096522147       -1.79688596472717       -0.03968760225321
N            1.35033869748783       -1.78316388409949       -0.03100276610978
C            0.42089709782026       -0.75106757736760       -0.02881307074865
C            0.76468353878363        0.55924827872322       -0.05793540106055
C           -0.15414878815090        1.64343699350933       -0.05029713501492
O            0.11924445122240        2.82330769764214       -0.06402080935155
N           -1.49486691380207        1.20559211277515       -0.02211530609085
C           -2.54213671530018        2.20742280317811       -0.00986906085125
C           -1.90451581555238       -0.10592428537181       -0.00029184182716
O           -3.07446089815884       -0.40383691926314        0.02400092370825
N           -0.91106412363103       -1.09476861583385       -0.00467937444444
C           -1.36509478601657       -2.47196623864832        0.01996959410378
H            3.71849477713170        0.99565115267106        1.02709154094591
H            3.87451090755617        1.10403733330906       -0.76218116340632
H            2.20362581468208        0.81431246974757       -0.01049033565144
H            4.54406363497299       -1.11302816294336       -0.03159181490691
H           -2.07178008177434        3.19011943775584       -0.00574579461208
H           -3.17635052348160        2.09632978573984       -0.89167930975727
H           -3.16699122275314        2.08175442783605        0.87653179965748
H           -1.01690283872506       -2.98585949032021        0.91825096004135
H           -1.05238282981753       -3.00712020799562       -0.87908201094483
H           -2.45660590062908       -2.44859169621776        0.04041648264788
H            0.94150280079209       -2.71395326454534       -0.04399781672978
25
 energy: -42.115860178578 gnorm: 0.012845456680 xtb: 6.6.1 (8d0f1dd)
C            3.37599120669959        0.59971759520187        0.06786682435487
N            3.55303379331138       -0.83469763620887       -0.01170057346564
C            2.68359699888176       -1.79040420769182       -0.04014460183487
N            1.35454174477999       -1.77978526521027       -0.02981451919109
C            0.41965292608681       -0.74905829271052       -0.02698410492525
C            0.76433368982139        0.56117393663540       -0.05437016992937
C           -0.15408909942115        1.64590822039200       -0.04730788969182
O            0.11888693559283        2.82586530988487       -0.05980677818294
N           -1.49449713006964        1.20695203474974       -0.02178811191168
C           -2.54214166951127        2.20851197040360       -0.01153934562769
C           -1.90399709278929       -0.10477542054235       -0.00057101774231
O           -3.07384418747035       -0.40264143657537        0.02233149080011
N           -0.91083207914888       -1.09453406994926       -0.00413691790360
C           -1.36335291773993       -2.47202740850893        0.02010140158754
H            3.71477809376608        0.99392758074764        1.02532820139715
H            3.86289867864386        1.10631281941728       -0.76419999619330
H            2.19679721620701        0.79678800164929       -0.00691843318057
H            4.54356416708891       -1.11718025673539       -0.03496503431013
H           -2.07142383179259        3.19108977075691       -0.00769361647094
H           -3.17527773787607        2.09660756805530       -0.89411225171047
H           -3.16803987680092        2.08375764698512        0.87433834933466
H           -1.01387751008515       -2.98587154422520        0.91779597081107
H           -1.05011824402469       -3.00613004818515       -0.87928829486817
H           -2.45492513090193       -2.44926488453743        0.04112585005064
H            0.94877257085219       -2.71200344219819       -0.04237481329608
25
 energy: -42.115929590970 gnorm: 0.011275514149 xtb: 6.6.1 (8d0f1dd)
C            3.37452864286858        0.59670733754374        0.06737700948127
N            3.55196436199854       -0.83523827456161       -0.01325809573677
C            2.68248244958163       -1.78919837162029       -0.04087134506527
N            1.35571164470644       -1.77948458536346       -0.02873651758011
C            0.41881978791758       -0.74749874908374       -0.02497459446095
C            0.76579355088027        0.56218374106241       -0.05079369923608
C           -0.15276174746704        1.64756144663255       -0.04432277171043
O            0.11950217378091        2.82748525110133       -0.05561111640987
N           -1.49320768784944        1.20768240179960       -0.02145689930999
C           -2.54139027905522        2.20878981572623       -0.01313928257456
C           -1.90312737519702       -0.10398362778336       -0.00085015039712
O           -3.07287727983285       -0.40188821562801        0.02052353382388
N           -0.91009502385270       -1.09419000162539       -0.00340170937723
C           -1.36098136029831       -2.47197955351274        0.02022054620042
H            3.71380247551532        0.99273372967495        1.02390554815677
H            3.85512909562029        1.10699936532702       -0.76608515400084
H            2.19111318887443        0.79062342676734       -0.00401206252731
H            4.53913572021628       -1.11855607312896       -0.03829968722312
H           -2.07127004451053        3.19162262438159       -0.00950715463663
H           -3.17354246454622        2.09585438262428       -0.89626803499590
H           -3.16830303489704        2.08455640071970        0.87207342592770
H           -1.01024018013285       -2.98569528986426        0.91748490300198
H           -1.04684140297558       -3.00501699197805       -0.87948451936411
H           -2.45246512399480       -2.45061048847970        0.04151247636928
H            0.94955142674928       -2.71122115913091       -0.04085303045489
25
 energy: -42.116026668016 gnorm: 0.008793684557 xtb: 6.6.1 (8d0f1dd)
C            3.37133727960501        0.59408330909427        0.06632989002664
N            3.54887724235301       -0.83467316456640       -0.01680397766332
C            2.68077860654186       -1.79015812593006       -0.04253727890496
N            1.35619918524931       -1.78093034119591       -0.02639079842941
C            0.41809620166344       -0.74576422616931       -0.02058380214929
C            0.76990069893295        0.56271069765389       -0.04298027298427
C           -0.14914847168726        1.64918741102696       -0.03773045235054
O            0.12208251547794        2.82893816019728       -0.04645182368005
N           -1.48993453941066        1.20824534806526       -0.02061330250055
C           -2.53882007960540        2.20882658986772       -0.01648393942344
C           -1.90127638694565       -0.10297271245869       -0.00140286984663
O           -3.07092698824109       -0.40080419645523        0.01651282596594
N           -0.90843460071965       -1.09377265910507       -0.00167373818677
C           -1.35729612076606       -2.47189058482523        0.02046748992743
H            3.71286764352266        0.99221816763795        1.02123130197321
H            3.84143801645357        1.10888858669085       -0.77033299742112
H            2.17926397682753        0.78605469283757        0.00162802648295
H            4.53009439624578       -1.11897757926695       -0.04549624065183
H           -2.06992537722845        3.19218456573909       -0.01321635106899
H           -3.16876366252650        2.09379106522050       -0.90086730248888
H           -3.16797915497290        2.08562756598071        0.86722882455318
H           -1.00497855654736       -2.98578529667489        0.91708653487479
H           -1.04185101031057       -3.00320252529687       -0.87989995753807
H           -2.44857504843940       -2.45261874184824        0.04192385849669
H            0.94740574862784       -2.71096746461894       -0.03777202911259
