72
 energy: 0.000000000000 xtb: 6.6.1 (8d0f1dd)
N           -1.47310934822924        2.74401318561852        2.22063942287560
C           -1.55658894218425        2.16490305624665        1.13274284460745
C           -2.74549225258129        2.05621251263064        0.23826250649470
C           -3.31377583855761        0.64333417511334        0.32332515650284
C           -4.30230195924506        0.24487112428158       -0.58026167086503
C           -4.85238808050968       -1.02286499940159       -0.53363593669082
O           -5.81420026757557       -1.48606047972767       -1.36157895357670
C           -6.39655692584623       -0.60827005826649       -2.29568495601309
C           -4.39972542350640       -1.94646120241305        0.44396933240983
O           -4.98748357557592       -3.16146026488900        0.41085995818162
C           -4.66362171172287       -4.10093865802695        1.40909140816864
C           -3.42072545213514       -1.54561399150247        1.33436558640148
C           -2.88302826362110       -0.26315802838497        1.27400162590187
C           -2.19303818453636        2.30467021687947       -1.18742988123374
C           -1.26651549989641        1.17243380322503       -1.65249445018642
C            0.01082525039567        1.09745464658138       -0.89354811789923
N            0.61779399208289       -0.02034948241203       -0.57705527866251
C            2.00145228921113       -0.02376006609561       -0.15611401051620
C            2.92554961797610       -0.53865287672537       -1.27700100652360
C            4.35756883501756       -0.43050761225877       -0.83075552032494
C            5.07346182539911        0.73206415878124       -1.03980975472950
C            6.38628045899965        0.84224449235903       -0.60344828301384
C            7.00047329721665       -0.20824758267940        0.05722314949100
O            8.26703733840855       -0.21011315050632        0.52410948507466
C            9.06912311989339        0.92943609656965        0.31863060963839
C            6.27040022445068       -1.40439766990411        0.28033468609137
O            6.94830004375713       -2.38012947787858        0.92752007684741
C            6.31537376337817       -3.61583233633369        1.15217722400438
C            4.96302840674480       -1.49347485723979       -0.16064431849589
C           -0.05511211878686       -1.29906259857679       -0.62085692079872
C           -3.86758072907722        3.07992629005348        0.58498065642721
C           -4.49286201346546        2.77383518785172        1.94313307512182
C           -3.39165211343248        4.52917708609625        0.54797528556046
H           -4.66030069703099        0.94509076131725       -1.31640581036773
H           -6.85037992114187        0.25803164586058       -1.80468862056629
H           -7.17287509152171       -1.18600121846629       -2.79318183475679
H           -5.66836870040540       -0.26952968819383       -3.04040283452035
H           -4.88416765986127       -3.71589494995018        2.40913564538747
H           -5.29223619720187       -4.96637504833431        1.20969248126828
H           -3.61139846644506       -4.39919876145526        1.35529370415983
H           -3.07077825100221       -2.21868786295666        2.10002682176568
H           -2.14562774333496        0.02067850888151        2.01001363031684
H           -3.02188903413801        2.38238034416975       -1.88813562572432
H           -1.65198546223364        3.25146730843841       -1.20556295755141
H           -1.81103391047759        0.23006526775522       -1.62116316669324
H           -0.99335697743926        1.37490224954061       -2.69443281971844
H           -0.67628070635666        1.65183902374723        0.61785732877701
H            0.63525847086258        1.98466388206871       -0.92314029755375
H            2.11132572081740       -0.65949698961381        0.72532619960637
H            2.30680494458141        0.98978260887088        0.11078973822125
H            2.76694224489122        0.06750735773687       -2.17075272340394
H            2.67954606229959       -1.57455642411728       -1.51167757545099
H            4.62170041431221        1.56295626549351       -1.56123593485311
H            6.92357738865082        1.75715832247601       -0.79119604059515
H            8.65159193263071        1.81001840117181        0.81701562739969
H            9.20136256512460        1.14042868409438       -0.74698998879646
H           10.03428931104811        0.69003246578081        0.76064945022918
H            7.05567240429544       -4.23621211097668        1.65347581279537
H            5.43848051513375       -3.50813590722545        1.79970582482858
H            6.02060097762632       -4.09420535105165        0.21253284608183
H            4.40102799328555       -2.40127288651695       -0.00490198294521
H           -0.22071301762289       -1.61775598610935       -1.65116024301020
H           -1.01972267469312       -1.24102728946113       -0.10935207845464
H            0.55899959333766       -2.04486104898380       -0.12333731565713
H           -4.63991918782192        2.95501120214274       -0.18098089750912
H           -3.76095251366987        2.90314731895452        2.73380846416528
H           -4.87457659255110        1.75695657819473        1.97884621460846
H           -5.31925601899505        3.45579242388173        2.12325583951056
H           -2.60025614255587        4.69225089676674        1.27368930043085
H           -3.03987434616939        4.81897697030947       -0.43870979129779
H           -4.22191779840287        5.18069696155015        0.80616701440619
H           -0.59832439338922        2.77744720721660        2.72959009765665
72
 energy: -5.426990564936 xtb: 6.6.1 (8d0f1dd)
N           -1.48322481845460        2.76458247418577        2.24369894253923
C           -1.55906514261925        2.15047778991673        1.15679253559805
C           -2.74636317695268        2.05965526144480        0.24794395609884
C           -3.31387548345492        0.64832720311613        0.32848226798722
C           -4.29836249842871        0.24644569263096       -0.57680889294508
C           -4.85022340735772       -1.01942806093757       -0.53015688934078
O           -5.81630428520740       -1.48583639724768       -1.36214394704719
C           -6.38744094506266       -0.60746340118178       -2.29997464327966
C           -4.40575205767791       -1.93876334606255        0.44971438220953
O           -5.00319156771725       -3.15668644643632        0.41803281216132
C           -4.68227849044601       -4.08948420650775        1.42026162923244
C           -3.43054819426781       -1.53828923095461        1.34289056907182
C           -2.89005769811611       -0.25751887247194        1.28196472148011
C           -2.19199121187970        2.30010171222872       -1.18178063013814
C           -1.25735237361288        1.18699462499823       -1.68136709534766
C            0.01594306727470        1.12487214182613       -0.90678988684744
N            0.63729279309048       -0.03649171034110       -0.57145132359327
C            2.01275911713738       -0.03319993025852       -0.16353018862180
C            2.94124084779616       -0.54087706340294       -1.28438402832832
C            4.36911955160225       -0.43427374737049       -0.84549944369724
C            5.08458917595364        0.73055127883654       -1.04754514101113
C            6.39423284984565        0.84137120980989       -0.60453100026755
C            7.00603457386593       -0.20965911322503        0.05727126288856
O            8.28005245739407       -0.21351456212050        0.52732223632697
C            9.07648925888594        0.92672131541737        0.31917513922237
C            6.27600080652060       -1.40286454914569        0.27972448659679
O            6.95550987472721       -2.38279174431441        0.93112302703088
C            6.31711658823736       -3.61491534983819        1.15303629482740
C            4.97224625911510       -1.49404092941985       -0.16708182270173
C           -0.04509288616695       -1.30302209669366       -0.62083898922951
C           -3.88604693462680        3.07012528702010        0.58389767265631
C           -4.51229064882562        2.76315158919393        1.94213367774123
C           -3.41003586466283        4.51952220520179        0.55230244157599
H           -4.64655068033355        0.94301849291825       -1.32101250131091
H           -6.83658070126134        0.26414891073901       -1.81338288062880
H           -7.16555056779220       -1.18214293168292       -2.79930059313784
H           -5.65373871446842       -0.27412180982047       -3.04153139695672
H           -4.90156371293528       -3.69819613265045        2.41873608880956
H           -5.31359104985183       -4.95402762896469        1.22375681567733
H           -3.63044165906728       -4.38989541161206        1.36988270255729
H           -3.08147789132831       -2.21288997346489        2.10844269199632
H           -2.14677200409672        0.02426151528433        2.01166566505129
H           -3.02374819236658        2.38667329989425       -1.88113169690502
H           -1.64764241757124        3.24536428580432       -1.19660964946036
H           -1.79337753006748        0.23984305024815       -1.63615410640520
H           -1.01930971104575        1.39088019540343       -2.73500470419303
H           -0.68020526789216        1.65595811057695        0.64736499870332
H            0.65462179485304        1.99632663297369       -0.97127278460905
H            2.12835886883326       -0.66194238344295        0.72369289404665
H            2.30652332970488        0.98558226454090        0.09957169986259
H            2.77251146592072        0.06759844680397       -2.17437694992495
H            2.68754726419444       -1.57538664014604       -1.51667613701914
H            4.63076705526937        1.56234347681434       -1.56555239882329
H            6.93268744054168        1.75662312497458       -0.79087461377222
H            8.65665250389303        1.80803505097930        0.81537011816368
H            9.20740187252063        1.13756058841477       -0.74725490923777
H           10.04244645516482        0.68992406665922        0.76150211876007
H            7.05475432419497       -4.23819451340544        1.65564063917505
H            5.43829874123817       -3.50512705078254        1.79778128493009
H            6.02106083078831       -4.09219620615832        0.21279214155802
H            4.40633261018589       -2.39905173734338       -0.00770479868411
H           -0.21702955804624       -1.62239922251312       -1.65340484002430
H           -1.01031359517847       -1.23585241858697       -0.11060359733429
H            0.56351772896592       -2.05172255005928       -0.12106287214921
H           -4.66478258369276        2.95468338655568       -0.17964560876181
H           -3.77217373891348        2.88630360907091        2.72615334693435
H           -4.89083395828090        1.74454621012001        1.97236024739793
H           -5.34056756148027        3.44260226302535        2.13114503166916
H           -2.61238333050407        4.66916851840045        1.27350015705842
H           -3.05768402724187        4.80692828935541       -0.43507136401537
H           -4.23526471239118        5.17734863588238        0.81557561609637
H           -0.59912985948929        2.76293692937053        2.74329654451726
72
 energy: -6.700452989582 xtb: 6.6.1 (8d0f1dd)
N           -1.50241219718394        2.78452708168536        2.26841193326924
C           -1.56066329522120        2.14599709890260        1.18124151730586
C           -2.74864345492761        2.06035379915042        0.25909376924919
C           -3.30936568989912        0.64900743599624        0.33310316498068
C           -4.28850483712713        0.24627691800559       -0.57567668428470
C           -4.84879090731042       -1.01372420562537       -0.52406438004339
O           -5.81833721079397       -1.48251920211923       -1.36225380452935
C           -6.36590977444245       -0.60417195790602       -2.31074776746376
C           -4.42190125593315       -1.92517185219022        0.46430338602034
O           -5.03741283277677       -3.14243314272917        0.43734493960386
C           -4.72592424404475       -4.06372580728795        1.44855977917626
C           -3.45065721854381       -1.52840562751405        1.36209209280256
C           -2.90062825748860       -0.25339164817386        1.29626313189803
C           -2.18848949721885        2.30371192324497       -1.17190442153035
C           -1.24574884126449        1.20527750635753       -1.70496515689509
C            0.03273445431389        1.15597149285203       -0.93371221888759
N            0.66098016711112       -0.04308067336641       -0.57582110351916
C            2.03004188050310       -0.03462849363489       -0.18189227386698
C            2.96642193982264       -0.54199886966217       -1.29966061244690
C            4.39036411284535       -0.43771853526817       -0.86451500848573
C            5.10843494261902        0.72675807495221       -1.06111114147164
C            6.41503337460186        0.83790556056850       -0.60913471450994
C            7.02119306078982       -0.21332296497910        0.05524121265748
O            8.30173508771144       -0.21919304000907        0.53088137423734
C            9.09238381247734        0.92118377510202        0.31990205158909
C            6.29036109292449       -1.40186739276896        0.27626961815161
O            6.96782410618974       -2.38635588740327        0.93578649812015
C            6.32018957475765       -3.61266389462898        1.15458868540139
C            4.99011275700468       -1.49419566807143       -0.17890441439108
C           -0.03146248185719       -1.29747489560591       -0.62690535965097
C           -3.91492160827259        3.04976374001552        0.58529059917464
C           -4.54856754910206        2.73279907726540        1.93963119941682
C           -3.44624621728541        4.50109192355782        0.56189367704842
H           -4.61877707080195        0.93827126994126       -1.33260763232651
H           -6.80658270992157        0.27857998814500       -1.83525025847957
H           -7.14758046557658       -1.17168314842563       -2.81371600504748
H           -5.62007571558921       -0.28534383105597       -3.04689152466696
H           -4.94405394252007       -3.65931302090654        2.44285706186367
H           -5.36348932984987       -4.92558979930414        1.25901784370648
H           -3.67565131445719       -4.37142752334778        1.40535330927556
H           -3.10854507265879       -2.20218283001118        2.13180808220688
H           -2.15407779850801        0.02778089143687        2.02222365187973
H           -3.02599021791976        2.40157790898327       -1.86574794578365
H           -1.64064484387108        3.24761057583248       -1.17770448335496
H           -1.76445541102329        0.24813696853942       -1.65830823433663
H           -1.05505232653027        1.42338418121327       -2.77098602193962
H           -0.68818916688402        1.65015292573019        0.69582884060022
H            0.69761903992893        2.00144067218429       -1.05049729469863
H            2.16013020355625       -0.65802595629504        0.71130557008766
H            2.31623480327847        0.98748701054128        0.07837501984485
H            2.78904180961726        0.06783060845218       -2.18678246310456
H            2.70533470838411       -1.57560391785189       -1.53075473892789
H            4.65362863138842        1.55912351117185       -1.57725262908224
H            6.95422469084734        1.75432189768107       -0.79056936976865
H            8.67006034547896        1.80399162913090        0.81238656368490
H            9.22337234787135        1.13083650413857       -0.74742660902899
H           10.05943561475689        0.68918136798488        0.76324968453637
H            7.05188124590294       -4.24129256660417        1.66019724280846
H            5.43852890059773       -3.49836909470863        1.79493076215952
H            6.02363252466938       -4.08875267479983        0.21340060407732
H            4.41816074115500       -2.39489512429326       -0.01588615196796
H           -0.20933724385281       -1.62751334858908       -1.65853220436790
H           -0.99651077654787       -1.22404347698492       -0.11709352786017
H            0.57039545528312       -2.05040233046304       -0.12182797291784
H           -4.69754880624310        2.93961954458216       -0.17786468882050
H           -3.80257526513155        2.84677603707232        2.71882947368920
H           -4.92761781238241        1.71355897014092        1.95921902407279
H           -5.37881907817084        3.40846495115107        2.14019635814040
H           -2.63957289334108        4.63032623215000        1.27618627221855
H           -3.09852664327698        4.78749419893231       -0.42740849415124
H           -4.26441573171312        5.16415067710029        0.83673859454269
H           -0.60491562204419        2.72905024476695        2.75486125557055
72
 energy: -4.397257822095 xtb: 6.6.1 (8d0f1dd)
N           -1.53058143450663        2.78772125047110        2.30310083375225
C           -1.56515483513496        2.14307002496229        1.20846249892937
C           -2.75329876673759        2.05811721085107        0.27186202314798
C           -3.30008073130270        0.64527221766722        0.33732211666389
C           -4.27150107280712        0.24437987597773       -0.57825588820907
C           -4.84889073035656       -1.00536397900559       -0.51575178872889
O           -5.82208217550513       -1.47397099037995       -1.36041422004516
C           -6.33452901470786       -0.59590378033677       -2.32587595439683
C           -4.44936328435847       -1.90546472607795        0.48827789783866
O           -5.09126495007503       -3.11715915088716        0.46970812004421
C           -4.79558030199770       -4.02338767749858        1.49420825958415
C           -3.48133174122216       -1.51591879867482        1.39200983995565
C           -2.91393332526230       -0.25056632117470        1.31658646600103
C           -2.18360959778766        2.31308708999475       -1.15732636311360
C           -1.23211731289044        1.23021967969112       -1.72804576232452
C            0.06004439032731        1.19239784670780       -0.97897507235520
N            0.69132876461096       -0.04209194016854       -0.59109921119002
C            2.05612552633629       -0.02849400448342       -0.21032087466392
C            3.00192499487687       -0.54097851917790       -1.32346652516290
C            4.42214209399458       -0.44038944843325       -0.88698559507856
C            5.14598544560300        0.72183940202221       -1.07947733170045
C            6.44928763137012        0.83219785532425       -0.61719863178036
C            7.04746953689037       -0.21976460105282        0.05129620610481
O            8.33338323717311       -0.22774056682898        0.53437394583083
C            9.11921312852802        0.91184939990317        0.32007486695127
C            6.31401980449642       -1.40250273471946        0.27076824782086
O            6.98585992711367       -2.39164167135192        0.94102468016898
C            6.32607266203942       -3.61028724875055        1.15668883367164
C            5.01707388329991       -1.49447715110866       -0.19399351455267
C           -0.01178039675369       -1.28458128273583       -0.63672074931297
C           -3.95665815306589        3.01742939059494        0.58870265411038
C           -4.60381482013400        2.68121071314831        1.93467833630265
C           -3.50242820097566        4.47244916820346        0.57672189692105
H           -4.57626348360066        0.93102449282119       -1.35134558358879
H           -6.76158183079146        0.30382727242744       -1.86759804227704
H           -7.12220202202663       -1.15147050892218       -2.83372286347848
H           -5.57042907817360       -0.30138934777774       -3.05466773336504
H           -5.01143065480257       -3.59954430453530        2.48195410501005
H           -5.44342271918394       -4.88026945279298        1.31564552699077
H           -3.74831833372877       -4.34379653210599        1.46053524267218
H           -3.15376116235904       -2.18605670395257        2.17126639515686
H           -2.16758064873118        0.03129779646393        2.04215458108732
H           -3.02533944594649        2.42563042445835       -1.84563203927623
H           -1.63079145718279        3.25451219799435       -1.14820890712225
H           -1.72701374057165        0.25979396093248       -1.68735053453778
H           -1.09455223687237        1.47225249410542       -2.80403278280465
H           -0.69615456042682        1.64943140807437        0.75401024791367
H            0.75762161968496        2.00331673291754       -1.15708755563499
H            2.20359120995006       -0.64557870122267        0.68962690076720
H            2.33799949511413        0.99627082760556        0.04502054637935
H            2.82043904113183        0.06772340656313       -2.21028127188098
H            2.73392828430966       -1.57426165640342       -1.55192725032621
H            4.69251807938821        1.55432437616406       -1.59650095011243
H            6.98954426410796        1.74960881377875       -0.79209430269230
H            8.69471755690430        1.79708791488341        0.80744260883271
H            9.25160063058719        1.11889629802699       -0.74829785472789
H           10.08733690314682        0.68594283168968        0.76524311636007
H            7.04891294181825       -4.24616909399162        1.66696643113101
H            5.44091298216307       -3.48875847038211        1.79127627695371
H            6.02972456157173       -4.08494481302285        0.21425480366179
H            4.43792894567552       -2.39012598215030       -0.02835389839918
H           -0.19488237178997       -1.63180350611305       -1.66498515747110
H           -0.97663939508962       -1.20313473643132       -0.12738803699648
H            0.58219313373745       -2.04092384902714       -0.12253866308640
H           -4.73889975470677        2.90710745932854       -0.17752129751026
H           -3.85718602255374        2.78135192931884        2.71411156775516
H           -4.98742978743890        1.66270218396085        1.93578323102238
H           -5.43626305132728        3.35226048944636        2.14712784106502
H           -2.68420261406043        4.57966976093839        1.28046390126242
H           -3.16686877665341        4.76102184296763       -0.41607094234622
H           -4.31288973316844        5.13762263120002        0.86956031707581
H           -0.61489815230692        2.68428535216583        2.76368831781325
72
 energy: -0.863332630441 xtb: 6.6.1 (8d0f1dd)
N           -1.55135892059309        2.77592366736552        2.33479306295714
C           -1.57033459287443        2.13933831119258        1.22890346465451
C           -2.75724553575555        2.05376751234875        0.28233307099544
C           -3.29084021899752        0.63921873264495        0.34067702954403
C           -4.25374167519087        0.24042956945863       -0.58307596077811
C           -4.84958745855455       -0.99880296166788       -0.50942343578540
O           -5.82454998901540       -1.46490951530505       -1.35899258901706
C           -6.30400522474594       -0.58780380039149       -2.34179047124226
C           -4.47697815004630       -1.88819328890496        0.51176783698823
O           -5.14311756641292       -3.09161285240580        0.50254727958951
C           -4.86554798116637       -3.98451197030752        1.54121559472677
C           -3.51111669698288       -1.50516540588158        1.42042076207406
C           -2.92544283803072       -0.24944242107564        1.33500416601898
C           -2.17854563158813        2.32171551493202       -1.14362791476739
C           -1.22008800888156        1.25374665806239       -1.74715423617912
C            0.08554533264191        1.22196946752911       -1.02093267172544
N            0.71883537615458       -0.03569750070405       -0.61119874852486
C            2.08173176938847       -0.01898076072214       -0.23842743004577
C            3.03405337860712       -0.53811765245026       -1.34651345916314
C            4.45178791895706       -0.44142704827366       -0.90656840142174
C            5.18118366108573        0.71837339008931       -1.09633307820598
C            6.48169298435015        0.82704122604591       -0.62574109022029
C            7.07304579076512       -0.22565154453945        0.04714082311876
O            8.36147319681977       -0.23557963245728        0.53639588483029
C            9.14570042433650        0.90271875886278        0.31985293779786
C            6.33582196190623       -1.40388956171526        0.26558342001811
O            7.00154198646692       -2.39607348596541        0.94425221266791
C            6.33171937044333       -3.60854550094781        1.15848598706731
C            5.04143419341617       -1.49428326005889       -0.20687259689761
C            0.00735159125041       -1.27055737705104       -0.64659166895202
C           -3.99367596201330        2.98541013283742        0.59324278751264
C           -4.65471814075705        2.62977884374468        1.92970338149903
C           -3.55518326287220        4.44447329263234        0.59242933318936
H           -4.53528738329315        0.92226571922810       -1.37004589706383
H           -6.71754430763935        0.32795142057847       -1.90042802198872
H           -7.09711347102427       -1.13221267893421       -2.85378750639522
H           -5.52248975849247       -0.31790659373821       -3.06337422729397
H           -5.07985216019915       -3.54146767567996        2.52181539151855
H           -5.52425963532549       -4.83539493331642        1.37252648681688
H           -3.82180131926559       -4.31848102474996        1.51732163138704
H           -3.19994147728901       -2.17053630509043        2.21082558414445
H           -2.18162096178243        0.03310446866798        2.06269960659255
H           -3.02145690182263        2.44699939268230       -1.82919973217057
H           -1.62269057393951        3.26152092455736       -1.12012811455307
H           -1.69724040905300        0.27380383710393       -1.71216259462910
H           -1.12005127532703        1.51558069241044       -2.82754959443333
H           -0.69941248364698        1.65352862730186        0.79314316759429
H            0.80494142046136        2.00596030861198       -1.24500196017006
H            2.23825249820696       -0.62993127485800        0.66686956987305
H            2.36154154834058        1.00783508410449        0.01141939073414
H            2.85330866237643        0.06810415612012       -2.23492132217454
H            2.76097413542495       -1.57130391923481       -1.57137030899353
H            4.73080447605241        1.55096110916106       -1.61578839936816
H            7.02387466518227        1.74427441061676       -0.79642497878624
H            8.71988930474234        1.79020019766570        0.80273165775960
H            9.28026318796769        1.10691737422863       -0.74922156682393
H           10.11385709973944        0.68056388206995        0.76743985442574
H            7.04690579285715       -4.24991294997526        1.67337158202472
H            5.44376930420678       -3.47990064616378        1.78815263251922
H            6.03590573375545       -4.08255057775427        0.21532059667232
H            4.45684071534959       -2.38619943077695       -0.04006529088666
H           -0.17992658516532       -1.63177812663688       -1.67132356411781
H           -0.95718118269095       -1.18060697088419       -0.13738057522997
H            0.59567641588444       -2.02755078020870       -0.12420073475800
H           -4.77333312836753        2.87359261830959       -0.17724387243043
H           -3.91172487496688        2.71580606166073        2.71370564806815
H           -5.04283497604407        1.61229876507842        1.91143636710113
H           -5.48937765188015        3.29679360174440        2.15049827169897
H           -2.72763579955592        4.53823939300611        1.28643796647254
H           -3.23281532177279        4.73844724372519       -0.40325253148117
H           -4.36138890881015        5.10771483558127        0.90188802089941
H           -0.62476669843150        2.64790199894123        2.77624861758272
72
 energy: 2.670670691969 xtb: 6.6.1 (8d0f1dd)
N           -1.56588993777921        2.75543439248977        2.36325765516139
C           -1.57488887867769        2.13438752530632        1.24464099616343
C           -2.76031942721536        2.04785367862560        0.29109810351450
C           -3.28107962331394        0.63131710269503        0.34343018602716
C           -4.23512465703835        0.23457731356028       -0.58903286174187
C           -4.85043861593045       -0.99355052757244       -0.50425625605544
O           -5.82615030996383       -1.45560440528948       -1.35803424370358
C           -6.27412828345255       -0.58020270289874       -2.35780874143540
C           -4.50470074648247       -1.87215336199839        0.53475421974839
O           -5.19379634728135       -3.06559864525304        0.53529021715372
C           -4.93612479652778       -3.94590283654587        1.58870486017897
C           -3.54059284621162       -1.49522289286898        1.44776230451009
C           -2.93587150431528       -0.24951786043435        1.35231162882250
C           -2.17322737275530        2.32982514282096       -1.13115073987708
C           -1.20910422392444        1.27589881104368       -1.76339932577805
C            0.10925531680810        1.24808347785206       -1.05973402230623
N            0.74506021743682       -0.02584807213403       -0.63461709986387
C            2.10689388973027       -0.00663867349583       -0.26614151833317
C            3.06399333900901       -0.53396645603239       -1.36853749866171
C            4.47974089585268       -0.44118732390271       -0.92382859660019