25
 energy: 139.553412839184 xtb: 6.6.1 (8d0f1dd)
C            3.16522188040632        1.09381108607950        0.14865016679420
N            2.26097541568604       -0.00900969260378        0.05321082487760
C            2.59845170446416       -1.30894995452079        0.01886426465972
N            1.46837802079717       -2.05506892120622       -0.02729797137588
C            0.41051903705746       -1.21695835528794       -0.02110910863105
C            0.87397881375771        0.11776396572750        0.03710406732196
C            0.10401830047639        1.28896654059507        0.06591140890475
O           -0.90464623999917        3.99892699919353       -0.07094972440058
N           -1.28174097114478        0.89253014397754        0.04380906046680
C           -2.19850722736447        1.84980212406225        0.05561515860343
C           -1.80305521853881       -0.45617558482892       -0.00916954746487
O           -2.99577484816088       -0.66418296403175       -0.04264688507355
N           -0.91223526628716       -1.51043647054315       -0.05452417273817
C           -1.37308376413262       -2.88364824395648       -0.13399735375946
H            3.44085542581029        1.27886604528261        1.18996893136714
H            4.06248956686881        0.89928298327058       -0.43535451476414
H            2.63346633826605        1.97588219562614       -0.20869758907885
H            3.59208714176658       -1.70990563502764        0.03056666215569
H           -1.34465364894766        4.94093703333155       -0.23453156771675
H           -3.23940001162759        1.62594004880683        0.18233001111588
H           -1.69244231185178        2.91352346895721        0.04837069473270
H           -0.98224111518059       -3.47110268491217        0.70060029837072
H           -1.06307715622075       -3.35313795753814       -1.07103311681694
H           -2.46024678678634       -2.89440594368182       -0.08749484948874
H            1.46332617342615       -3.06269580340571       -0.07225563331108
