25
 energy: 108.689139037041 xtb: 6.6.1 (8d0f1dd)
C            5.56840035054653        1.15086666325592        0.20061279441936
N            1.93876951835875        0.31913502571060        0.00063655134653
C            2.33859740904778       -0.97972422106783        0.00426595876412
N            1.21978870496754       -1.76714701951472       -0.01619944306852
C            0.12727354730299       -0.96942031658781       -0.03020276008125
C            0.55463382786685        0.34939994671007       -0.01939420161974
C           -0.34464095689831        1.45281134317517       -0.03080857179064
O           -0.05328148566256        2.63946138290579       -0.01835962551413
N           -1.69442358419904        1.00953438321961       -0.05926605721058
C           -2.72945165628073        2.03263531412725       -0.07836061496683
C           -2.14775476713090       -0.27831325584719       -0.06809150228558
O           -3.32556954317389       -0.55673785597017       -0.08965262056162
N           -1.18535869468460       -1.31021603880962       -0.05124900105225
C           -1.62291019904215       -2.68837167722306       -0.05410231920697
H            6.05385784433969        1.44842647767746        1.15165501056885
H            6.28006522188081        1.34728751387404       -0.62644307856796
H            2.55075873951223        1.11592405448973        0.02751801311589
H            3.34791328487954       -1.31391584457941        0.01808582004137
H           -2.24044064996187        3.00455522617118       -0.07232775536317
H           -3.34099648265197        1.92175511927607       -0.97325576829793
H           -3.37034011951412        1.92611188674979        0.79633753182440
H           -1.28200404239527       -3.20483414555035        0.84543719842927
H           -1.25957881986447       -3.20888706603305       -0.94243314934669
H           -2.71216550739308       -2.67768095739544       -0.06798287755069
H            1.24107236512282       -2.77362715001989       -0.01938561983109
