25
 energy: -42.010839631421 gnorm: 0.151178716750 xtb: 6.6.1 (8d0f1dd)
C            3.23720193040000        1.16630930800000        0.08434470430000
N            2.29877838710000        0.07527477770000        0.03981603410000
C            2.58028234130000       -1.21425413710000        0.03006176310000
N            1.43813971430000       -1.93419289900000        0.00098261770000
C            0.39035692070000       -1.05887482460000       -0.00790371910000
C            0.93510065040000        0.21347821430000        0.01709077650000
C            0.09450144770000        1.40504316940000       -0.00410947070000
O            0.49712756140000        2.54126737940000       -0.00342325720000
N           -1.25076651640000        1.06271889340000       -0.03085478510000
C           -2.21907232570000        2.15522119830000       -0.05001257450000
C           -1.81739503910000       -0.20012727850000       -0.04692819010000
O           -2.99983914590000       -0.37846420530000       -0.07008878880000
N           -0.92618594800000       -1.30210227680000       -0.03682761920000
C           -1.46982278550000       -2.64643126740000       -0.06029821020000
H            3.71247298800000        1.21471466430000        1.06488859030000
H            4.00791534790000        1.03430818410000       -0.67357700620000
H            2.69910032210000        2.09770137690000       -0.09130155730000
H            3.56654153700000       -1.63683007790000        0.04233140460000
H           -1.67107976570000        3.09322879970000       -0.02552707170000
H           -2.82428979800000        2.09428644210000       -0.95318091790000
H           -2.87644055860000        2.07745744900000        0.81450075090000
H           -1.17062007260000       -3.19584920310000        0.83242240160000
H           -1.14560268040000       -3.17511639750000       -0.95688284700000
H           -2.55549816150000       -2.55660008040000       -0.07459040490000
H            1.38130868000000       -2.94313879340000       -0.01389874310000
25
 energy: -42.019682319951 gnorm: 0.059776272259 xtb: 6.6.1 (8d0f1dd)
C            3.24391551485633        1.17741350702634        0.08675497316126
N            2.30801689086407        0.09551715421060        0.03770899701589
C            2.59946372469282       -1.23264279986236        0.03004594119321
N            1.42733033047173       -1.94020351219852        0.00080157082497
C            0.39632269898361       -1.05603816626012       -0.00827831011899
C            0.93018745637465        0.22264514657240        0.01523594953802
C            0.10164854563191        1.39610376310494       -0.00527044375740
O            0.49829334055221        2.56196076818281       -0.00465546368985
N           -1.26038125744572        1.05073235665805       -0.03111216887519
C           -2.22056366958890        2.14690311111479       -0.04984921285023
C           -1.82367642541199       -0.20056175580481       -0.04730948511674
O           -3.02031924574016       -0.38294301037080       -0.07040864050913
N           -0.93421034062470       -1.30077298998921       -0.03705297959426
C           -1.47172283329303       -2.64286718117306       -0.06019919011796
H            3.72210536716998        1.22326598622758        1.06883816825405
H            4.01198439206012        1.04255959876675       -0.67623445685620
H            2.69719416097927        2.10207933434023       -0.08880643036896
H            3.57763535921547       -1.65903727468817        0.04268253495344
H           -1.65894479575419        3.07813996866804       -0.02535737763088
H           -2.82596636460337        2.09348887093152       -0.95424899484857
H           -2.87814139296920        2.07685997741198        0.81602104784100
H           -1.16812603510878       -3.19400400269458        0.83190732052522
H           -1.14308464670811       -3.17347841812521       -0.95598134192581
H           -2.55703427177214       -2.55217282270861       -0.07457084193318
H            1.36028852806810       -2.94391919374055       -0.01362728501368
25
 energy: -42.022298344415 gnorm: 0.017524196264 xtb: 6.6.1 (8d0f1dd)
C            3.25302143423463        1.18602261348582        0.08997183462634
N            2.31708348032627        0.10767844297017        0.03382450546091
C            2.61037181270081       -1.24869892606807        0.03003063165604
N            1.41276550705479       -1.93865893040840        0.00100583229078
C            0.39957553566194       -1.05005471140420       -0.00930189362140
C            0.92767775954456        0.23199643181700        0.01183681051666
C            0.10747683957370        1.38401345268682       -0.00833190744399
O            0.48404556223054        2.56701892559034       -0.00860808097908
N           -1.27198200047158        1.03762398924203       -0.03207465150196
C           -2.22144393530833        2.13762456047920       -0.04957711919996
C           -1.82859899046181       -0.20276154988497       -0.04793175747067
O           -3.03007858682343       -0.39174545044078       -0.07044861349148
N           -0.94104396892653       -1.29645415497453       -0.03748011022331
C           -1.47181635806957       -2.63727982862701       -0.05990593637148
H            3.74022215037120        1.23655010428247        1.07006887487480
H            4.01997756869323        1.06261700876825       -0.67841382645831
H            2.69919629670749        2.10799976505544       -0.07964363881021
H            3.58069596079447       -1.68591055042810        0.04352195171218
H           -1.63693474547651        3.05554152045439       -0.02513095579082
H           -2.82810369466682        2.09368876540728       -0.95439787672230
H           -2.87929071704072        2.07724787868471        0.81759775313312
H           -1.16498345674007       -3.18966801656333        0.83162141804275
H           -1.13983432729881       -3.16984134331404       -0.95462241848479
H           -2.55720431741442       -2.54557297992514       -0.07443937593101
H            1.33142022170499       -2.93994860128535       -0.01213756971280
25
 energy: -42.023160249291 gnorm: 0.019504047280 xtb: 6.6.1 (8d0f1dd)
C            3.26073188771269        1.19093915282388        0.09326159642169
N            2.32452271302928        0.10990019838258        0.02963105475777
C            2.61132248573385       -1.25943156176815        0.02948408422763
N            1.40196551165755       -1.93532524235349        0.00167085089732
C            0.39966300219454       -1.04450159025908       -0.01093684938015
C            0.92950621188936        0.23793668717105        0.00758882919687
C            0.10803373662386        1.37897099795606       -0.01389598450370
O            0.46354447339806        2.56857238178187       -0.01640340647182
N           -1.28110234842716        1.02883953298505       -0.03439902439956
C           -2.22123536502485        2.13204400444338       -0.04941148650128
C           -1.83332450040226       -0.20758721907510       -0.04899660944834
O           -3.03453613004395       -0.40401401865931       -0.07019442587006
N           -0.94320130347805       -1.29317319182867       -0.03821156859845
C           -1.46899804675776       -2.63390782058768       -0.05922034561321
H            3.76033874292762        1.24340333441773        1.06840748776993
H            4.02586136258221        1.08941334265857       -0.68167430263260
H            2.70224377858699        2.11383359005928       -0.06176470890756
H            3.57502193884077       -1.71149602260197        0.04466711836700
H           -1.61440541473158        3.03584919104696       -0.02540651894641
H           -2.83009554744773        2.09653837252797       -0.95330691928419
H           -2.87790652369474        2.07988863558929        0.81941871621920
H           -1.16098538463007       -3.18466830944435        0.83299706211569
H           -1.13562312333329       -3.16653244272724       -0.95348666361428
H           -2.55456723500627       -2.54064976249907       -0.07396446618575
H            1.30544010870091       -2.93581382443958       -0.00881963951576
25
 energy: -42.025488132387 gnorm: 0.042503155194 xtb: 6.6.1 (8d0f1dd)
C            3.28059933352145        1.20257360537896        0.10564023079191
N            2.34561968983838        0.11028679106277        0.01560508569591
C            2.60692433078625       -1.28646137757291        0.02563933202394
N            1.37348563980589       -1.92555695792015        0.00417209939666
C            0.39717491475279       -1.02704725996947       -0.01757376756407
C            0.93827749468406        0.25374182665941       -0.00842101286885
C            0.10538828254438        1.37119178798877       -0.03793351925841
O            0.40201416290625        2.57425789790068       -0.05061878668032
N           -1.30501867557188        1.00614752607475       -0.04559555721105
C           -2.21869076792058        2.12060602034895       -0.04936559394841
C           -1.84851538420886       -0.22377913891477       -0.05380591091223
O           -3.04688912708497       -0.44207438715025       -0.06865527251466
N           -0.94599092857559       -1.28510667215231       -0.04149124566583
C           -1.45548292841224       -2.62808321005515       -0.05574302913358
H            3.82592619522659        1.24192971479199        1.06129752487832
H            4.03188864822708        1.18144648365179       -0.69839283739866
H            2.70562755611375        2.13010140690693        0.01630705776717
H            3.54932626475806       -1.78718735036750        0.04892801474558
H           -1.55006121533328        2.98420247114693       -0.02841151288712
H           -2.83742227098036        2.11116877004192       -0.94771592049325
H           -2.86783626382340        2.09270347023122        0.82686469074211
H           -1.14418088231854       -3.16983549123254        0.84053002061953
H           -1.11803448847293       -3.16014381833413       -0.94847509189391
H           -2.54159405013983       -2.53260640875653       -0.07129279771323
H            1.22967950057751       -2.92344728415936        0.00554167958244
25
 energy: -42.029901282403 gnorm: 0.093884815514 xtb: 6.6.1 (8d0f1dd)
C            3.31287449903656        1.22235387361243        0.13308258759340
N            2.38322063632688        0.10867380199457       -0.01404321236359
C            2.59439551899756       -1.33397525737579        0.01628677314050
N            1.32165665196211       -1.90578027856534        0.00970753359333
C            0.39063346029359       -0.99212494392568       -0.03250172797343
C            0.95555873171887        0.28412942695784       -0.04361328087223
C            0.10106231631631        1.36152452593186       -0.09268927344307
O            0.28826009446785        2.58533458947374       -0.12891924189940
N           -1.34829587435296        0.96650268711238       -0.07215195681105
C           -2.21158339675250        2.10330403805716       -0.04961480212839
C           -1.87761760611069       -0.25370550575869       -0.06496044353475
O           -3.06922308250330       -0.51315104873772       -0.06478141952689
N           -0.94944586524994       -1.26986783417620       -0.04936373492843
C           -1.42445358726741       -2.61974426554926       -0.04745663422425
H            3.95583518044965        1.20993408937934        1.04585324220086
H            4.02296480092586        1.36372094388309       -0.73853059478695
H            2.70548078489433        2.16072488671597        0.19431786174309
H            3.49490232388036       -1.92747376016947        0.05836655889301
H           -1.43301655415824        2.89264611575226       -0.03666121472626
H           -2.85151547935075        2.14199558328237       -0.93466050768570
H           -2.84023276407117        2.11791487172784        0.84415434229408
H           -1.10569312858454       -3.14030416812296        0.85830656035081
H           -1.07793951215385       -3.15130132812817       -0.93613596964604
H           -2.51192927097425       -2.52472011825709       -0.06473865508790
H            1.08631615315958       -2.89758250951450        0.03778108992924
25
 energy: -42.036177223725 gnorm: 0.108595521528 xtb: 6.6.1 (8d0f1dd)
C            3.32599980844593        1.23006103349286        0.15465648022765
N            2.40375637812823        0.10147548673969       -0.03609061167731
C            2.57927412521147       -1.35837668556328        0.01131232932227
N            1.29513113104472       -1.89150185682206        0.01558521528483
C            0.38429466145229       -0.96811355429325       -0.04542904199257
C            0.96944985874888        0.30251839570036       -0.07278616748200
C            0.10419621385317        1.36551577820488       -0.13992803290258
O            0.23181634481590        2.58736245886417       -0.19651176651138
N           -1.37206408583002        0.95187120772613       -0.09552046120589
C           -2.20890358045043        2.09937333339054       -0.04757066238215
C           -1.89487974748366       -0.26907817592379       -0.07448192140964
O           -3.07817862831812       -0.55553202132195       -0.06078091057524
N           -0.94693289533893       -1.25914884361730       -0.05750362275138
C           -1.39716847234814       -2.61697461352819       -0.04130661877490
H            4.03761706407418        1.16001095040339        1.03071586363006
H            3.99315567629989        1.47488004167523       -0.76129445319047
H            2.70665155207022        2.17418160166554        0.32910780422343
H            3.45049568866022       -2.00874769218609        0.06620437497533
H           -1.38810637515264        2.85033567210185       -0.04109614613251
H           -2.86284023158038        2.16280678340327       -0.92053722924548
H           -2.81543168423354        2.12781490486826        0.86050841699288
H           -1.07388818042805       -3.11909544572574        0.87272298024136
H           -1.04503789269682       -3.14857215592780       -0.92645064746879
H           -2.48617132125937       -2.52781184079399       -0.05958416100006
H            0.99997962321483       -2.87622634693272        0.06309286990449
25
 energy: -42.050093199416 gnorm: 0.162697765407 xtb: 6.6.1 (8d0f1dd)
C            3.31210501262756        1.22706601666754        0.17571597228059
N            2.41540835518604        0.06989117638059       -0.06478004631358
C            2.54142528799230       -1.35367576287135        0.01169686896955
N            1.30444888583968       -1.87381348793200        0.02792961919667
C            0.37076883208258       -0.94359305894237       -0.06085389160359
C            0.99790935441208        0.31176022694527       -0.10843993736421
C            0.11813536228581        1.40441748261899       -0.19408184300593
O            0.21391473164034        2.57023173919847       -0.27268637763117
N           -1.37898135260970        0.96715770193083       -0.12401488063004
C           -2.20223035319937        2.11989704258070       -0.04478518424204
C           -1.90926312432074       -0.28035419464938       -0.08449659713921
O           -3.06898088463380       -0.59087600298286       -0.05598794928847
N           -0.92471428860015       -1.25305153798629       -0.06814109593988
C           -1.35603922319475       -2.62717547539682       -0.03466733508344
H            4.09695601521505        1.04243012690155        0.99610279507874
H            3.89617717233443        1.56340130966040       -0.78077771572756
H            2.70072031314304        2.16943284114559        0.48936984730018
H            3.37948607344447       -2.05303461425747        0.07739904115662
H           -1.41356512431563        2.85215668463672       -0.04883141608699
H           -2.86079119102290        2.18553529021743       -0.90174616976181
H           -2.77246500917454        2.13230888044617        0.87743433973333
H           -1.03870278328841       -3.10321802093478        0.89177899926812
H           -1.00750211380758       -3.15541202829991       -0.91757669254582
H           -2.44865199513761       -2.54891947313823       -0.05384166713971
H            0.94664707800157       -2.84353444633877        0.09531519661961
25
 energy: -42.067333254615 gnorm: 0.143368569907 xtb: 6.6.1 (8d0f1dd)
C            3.32318421323155        1.22436544859920        0.20708837142947
N            2.43381026529760        0.05999969619376       -0.09042511277626
C            2.52413603495845       -1.36797987941780        0.01000190679375
N            1.27812587589854       -1.85974984773075        0.03721375107794
C            0.36201825948662       -0.91683020279476       -0.07814029290343
C            1.01283024550233        0.32887482468401       -0.14859962030687
C            0.12674419894550        1.41097210406644       -0.25622387584386
O            0.16442546081279        2.59388091526650       -0.39382250610117
N           -1.39416906216056        0.94968440995276       -0.15419967757771
C           -2.20004887612897        2.11997049747704       -0.03546177727306
C           -1.92759559203464       -0.29364282618474       -0.09804449037480
O           -3.08239161888282       -0.62741013774654       -0.04684060394723
N           -0.92446576084696       -1.24554543927051       -0.08158390235466
C           -1.32233478036518       -2.63138251889263       -0.02944040501838
H            4.17457246507820        0.96825111120284        0.97092516196673
H            3.84438533028511        1.67272064378154       -0.78215177058938
H            2.70728291122280        2.15195870837768        0.64835388663311
H            3.32812546121965       -2.11820033586005        0.08651689631842
H           -1.38659252197732        2.82999722834485       -0.04992929232887
H           -2.88527968946575        2.22396536311156       -0.87407080442907
H           -2.73875350290110        2.14731605485620        0.90939289020746
H           -0.99473847315445       -3.08398064073134        0.90703292324308
H           -0.96061287402986       -3.16120371941539       -0.90659548902778
H           -2.41566987957846       -2.57278607782863       -0.05004780574314
H            0.86522694048662       -2.81421696444120        0.12608551902565
25
 energy: -42.091098617634 gnorm: 0.184315575361 xtb: 6.6.1 (8d0f1dd)
C            3.32555783105033        1.19214776651542        0.23732358735214
N            2.43060278106100        0.06090451203692       -0.10179013812923
C            2.53148226861090       -1.31234115556798        0.02435298423252
N            1.27134107530608       -1.87630406969849        0.04858040380831
C            0.35735053123254       -0.90552394483354       -0.09222033470008
C            1.01585243293972        0.31270665771761       -0.18593809644563
C            0.13891697306729        1.39213478793660       -0.27216752108670
O            0.21800052967984        2.70779421225172       -0.56609314141620
N           -1.34259313212484        0.90995073902811       -0.16537346603166
C           -2.20325133508213        2.11682860913602       -0.01160844029272
C           -1.93323487404849       -0.28678519562118       -0.11470272693658
O           -3.11829419935984       -0.60304266600105       -0.03380360665267
N           -0.94334190768992       -1.26845200810337       -0.10009705228565
C           -1.31248515513668       -2.65521138888535       -0.03219491927244
H            4.14689910519583        0.91326446673500        0.88641780902483
H            3.74339893325483        1.67913806414176       -0.66872407119587
H            2.74964277789643        1.98759825363877        0.72425987487993
H            3.30033436953442       -2.04257938310401        0.08268043049833
H           -1.44214787052838        2.90685291547820       -0.04226499824974
H           -2.92348086410034        2.28878307647087       -0.84001032742630
H           -2.72126804421385        2.17037716486013        0.95741637120281
H           -0.95991551110400       -3.09365020529798        0.91014321323669
H           -0.91831106681859       -3.19135528579810       -0.90445115156519
H           -2.39466220682375       -2.63653285908875       -0.05216330308290
H            0.89582158910124       -2.77767464834731        0.13946250063393
25
 energy: -42.130085717749 gnorm: 0.160118155394 xtb: 6.6.1 (8d0f1dd)
C            3.32099314592852        1.18192854268824        0.26545615289001
N            2.43075708916286        0.05502252953805       -0.12896042414325
C            2.51163744506326       -1.31742641204722        0.03326497863092
N            1.25288490391199       -1.85553582663108        0.05576261002178
C            0.34774006339874       -0.88554498981356       -0.11543166494202
C            1.01546744649214        0.33106636446269       -0.24482756112581
C            0.14010792087520        1.40917947023201       -0.37925782161544
O            0.21197979265094        2.69131786272885       -0.64985571311979
N           -1.36063761459250        0.92581449944604       -0.20461070098928
C           -2.20470841850421        2.12930802208706       -0.00152011091421
C           -1.94316190737726       -0.28243735839557       -0.12962574156970
O           -3.11601022686978       -0.61370159335771       -0.02990309590347
N           -0.94408271245950       -1.25905656490486       -0.11933273126517
C           -1.27657797880130       -2.66086151885510       -0.02452267355745
H            4.23888070386558        0.80336899013013        0.84579090871743
H            3.66183650477217        1.79143780860936       -0.68381802983098
H            2.73537905462363        1.96223780977060        0.92061792435717
H            3.26340309919942       -2.08267670481482        0.09886111223644
H           -1.42758568483778        2.90245700914050       -0.04766027899225
H           -2.94654724094138        2.31033086438704       -0.80355438619837
H           -2.68462888977640        2.16888914740893        0.98808194064530
H           -0.91233698966615       -3.07523113073036        0.92668590410768
H           -0.86763555597381       -3.20571491775618       -0.88433180974903
H           -2.36271882494855       -2.67718175017969       -0.04523619822144
H            0.82777990570374       -2.75796173754333        0.18496129063082
25
 energy: -42.165942268347 gnorm: 0.111613132336 xtb: 6.6.1 (8d0f1dd)
C            3.29690339450317        1.16610989457833        0.28025996630795
N            2.39800015373104        0.07154991677211       -0.15346705596431
C            2.49560230036888       -1.30545312218461        0.05786122070603
N            1.24914503983378       -1.83320008233000        0.04815016344410
C            0.34159206886054       -0.88617669314984       -0.14534180804261
C            0.98163956917907        0.34655434255877       -0.31886646165043
C            0.09761100443092        1.43047435454705       -0.52384907696005
O            0.24657776561636        2.62475198069836       -0.61693661191831
N           -1.38113547502231        0.98109801818510       -0.24515658094298
C           -2.20008951361114        2.15647040333399        0.00648829613665
C           -1.93810175841912       -0.25915265252377       -0.13984744416599
O           -3.09515529631097       -0.58207548199582       -0.03179228856699
N           -0.94770524863011       -1.25473963993244       -0.14535718005491
C           -1.24854290590876       -2.66621328675033       -0.01579226896634
H            4.27229249068884        0.72572447438924        0.78751450007080
H            3.58137908574747        1.84423210255102       -0.65361550353950
H            2.73850204899728        1.90438943186264        1.04526613162866
H            3.26438171363685       -2.07537817089730        0.10968110597800
H           -1.40941936507416        2.92206463681262       -0.05517145793949
H           -2.96068636435328        2.30575142985032       -0.75613485930872
H           -2.64312701958763        2.14962721084145        1.00888364571659
H           -0.87071874093191       -3.06207807779264        0.93884009256246
H           -0.82634424234035       -3.22503939942037       -0.85728777148735
H           -2.33885404908156       -2.73068697521285       -0.03206844507042
H            0.80846837457666       -2.75957619919098        0.23477357212707
25
 energy: -42.206374816563 gnorm: 0.109344693762 xtb: 6.6.1 (8d0f1dd)
C            3.28405077173546        1.14302593387692        0.31837389439905
N            2.38507546408196        0.07515486591085       -0.19301036851313
C            2.47826565897976       -1.29043046241907        0.08376814928870
N            1.23106841672691       -1.82291211660794        0.05966402041722
C            0.33102015075749       -0.87265151137435       -0.18677257701440
C            0.96911765322991        0.35254117462572       -0.39496238044494
C            0.07829011655970        1.43203296166674       -0.62794085640554
O            0.24974676920312        2.63449538633300       -0.77073731770165
N           -1.37988355325607        0.98873957211247       -0.29621975584949
C           -2.18587052816555        2.16988975246805        0.02851964073671
C           -1.94418470143390       -0.24940924921452       -0.16903763731300
O           -3.10178694182784       -0.56789593794283       -0.01997143404808
N           -0.95763320656125       -1.25331464784567       -0.18639760122492
C           -1.21449232852674       -2.67366897715976       -0.01040376754548
H            4.30307540939649        0.62690036572476        0.70997624029874
H            3.47052915180416        1.93473348906442       -0.58183948126142
H            2.76282762166084        1.79943241770253        1.23241064068932
H            3.23228355010430       -2.07237576667307        0.11508317722361
H           -1.40738837759171        2.94666680336873       -0.04483510192191
H           -2.99833913497633        2.35225812578454       -0.68794380481851
H           -2.57664567775304        2.14171300086676        1.05940604501902
H           -0.81376230134001       -3.03299336618564        0.95699962993232
H           -0.76311388907386       -3.24646807128903       -0.83256610371719
H           -2.30077983995914       -2.79524775894268       -0.02276320395006
H            0.78074477712483       -2.73118756825087        0.28823383382495
25
 energy: -42.259776029984 gnorm: 0.116209250710 xtb: 6.6.1 (8d0f1dd)
C            3.26042174199789        1.11810405944342        0.33751974871929
N            2.34509251495018        0.11172195394697       -0.22776978235636
C            2.47751765229817       -1.26181030353323        0.13692851327455
N            1.21836947218106       -1.83073250434172        0.06949327395675
C            0.33067330960290       -0.88684196124355       -0.23609378778848
C            0.92385626637516        0.33565531803295       -0.44867908802767
C            0.01244714014774        1.39969085076129       -0.66482657558332
O            0.30209921962790        2.62155921600691       -0.89612953887794
N           -1.36011483651230        1.01380527034824       -0.33864394271373
C           -2.15782109502035        2.17660090684615        0.04991553543973
C           -1.92589258392972       -0.21941324038171       -0.19773119859363
O           -3.09920058238500       -0.49937936956406       -0.00718269837448
N           -0.97973322089955       -1.25657163043351       -0.24184369104857
C           -1.20841285876178       -2.66474008995497       -0.01016510303562
H            4.24204669858727        0.60232585803647        0.59499537226823
H            3.36801046914966        1.94446448315501       -0.43051791352556
H            2.82726523501468        1.63138491002337        1.31746155084637
H            3.25096582311151       -2.00121993700819        0.09409400854613
H           -1.44098909004163        2.99701577628379       -0.02148368240625
H           -3.02064915289442        2.37456847097334       -0.60801895241360
H           -2.51174955351917        2.10281489368867        1.08595328639698
H           -0.78719972349651       -2.99692979991498        0.96258734901540
H           -0.72330816439237       -3.25570075709755       -0.80768668257351
H           -2.27571334225470       -2.85079584001147       -0.01094934554976
H            0.84423369196287       -2.71654811846158        0.32580722450496
25
 energy: -42.304974735570 gnorm: 0.105800235332 xtb: 6.6.1 (8d0f1dd)
C            3.22397814127845        1.09191798623678        0.38259816204056
N            2.31991323136894        0.11963595626920       -0.25833323408436
C            2.45737844681430       -1.23744104932316        0.17484959788543
N            1.22002870122540       -1.81959938877940        0.07427632423069
C            0.32270812667058       -0.89549750348402       -0.28705441304439
C            0.90751960916287        0.32696917579842       -0.51517039774807
C           -0.02822490805710        1.39756978902333       -0.76417779875084
O            0.28707707885816        2.59351925922479       -1.04679172673441
N           -1.35272272296476        1.03852587044463       -0.39921430140550
C           -2.12689881559804        2.19660018035356        0.07800537535027
C           -1.92108806252111       -0.20857505750007       -0.22437504565967
O           -3.08954930504425       -0.45330608713783        0.00137828584979
N           -0.98689507677892       -1.25663930764417       -0.30169961874015
C           -1.18734361560396       -2.66518174653205       -0.01103554827185
H            4.21370696273403        0.54360213080439        0.50292132324310
H            3.24685009586871        2.01228074529828       -0.29692804303949
H            2.86966709067396        1.47573537578418        1.43606051742925
H            3.24607765274058       -1.95880429744694        0.06694238843969
H           -1.44086276718433        3.02947943942922       -0.00473007484245
H           -3.04391100299777        2.41196011794500       -0.51376848862886