25
 energy: 0.000000000000 xtb: 6.6.1 (8d0f1dd)
C            3.23720163006194        1.16630919979326        0.08434469647475
N            2.29877817382611        0.07527477071623        0.03981603040599
C            2.58028210190900       -1.21425402444508        0.03006176031096
N            1.43813958087363       -1.93419271955128        0.00098261760884
C            0.39035688448383       -1.05887472636071       -0.00790371836672
C            0.93510056364412        0.21347819449412        0.01709077491437
C            0.09450143893243        1.40504303904423       -0.00410947031874
O            0.49712751527797        2.54126714362870       -0.00342325688240
N           -1.25076640035757        1.06271879480407       -0.03085478223738
C           -2.21907211982101        2.15522099834493       -0.05001256985998
C           -1.81739487048744       -0.20012725993278       -0.04692818574614
O           -2.99983886758376       -0.37846417018721       -0.07008878229737
N           -0.92618586207120       -1.30210215599479       -0.03682761578324
C           -1.46982264913417       -2.64643102187190       -0.06029820460571
H            3.71247264356769        1.21471455160235        1.06488849150277
H            4.00791497605742        1.03430808813993       -0.67357694370751
H            2.69910007168542        2.09770118228144       -0.09130154882931
H            3.56654120610678       -1.63682992603973        0.04233140067262
H           -1.67107961066214        3.09322851271934       -0.02552706933167
H           -2.82428953597071        2.09428624779827       -0.95318082946668
H           -2.87644029173232        2.07745725625962        0.81450067533302
H           -1.17061996399332       -3.19584890659852        0.83242232437030
H           -1.14560257411436       -3.17511610292205       -0.95688275822323
H           -2.55549792440841       -2.55659984320617       -0.07459039797972
H            1.38130855184625       -2.94313852034425       -0.01389874181052
25
 energy: -5.398550253643 xtb: 6.6.1 (8d0f1dd)
C            3.24391537899267        1.17741325280297        0.08675518987295
N            2.30801671812156        0.09551703970769        0.03770936430243
C            2.59946310154566       -1.23264239560037        0.03004582572319
N            1.42733042530275       -1.94020287366218        0.00080137265495
C            0.39632272082222       -1.05603808221269       -0.00827825382765
C            0.93018738111591        0.22264538938921        0.01523622773995
C            0.10164866412704        1.39610362441872       -0.00527013479497
O            0.49829346545105        2.56196096766564       -0.00465662509092
N           -1.26038122674668        1.05073215628245       -0.03111214080774
C           -2.22056347514410        2.14690286404576       -0.04984925809613
C           -1.82367641206702       -0.20056180149171       -0.04730953620887
O           -3.02031901338844       -0.38294296067860       -0.07040783155285
N           -0.93421045943579       -1.30077301245987       -0.03705306202703
C           -1.47172279615546       -2.64286712336593       -0.06019919123200
H            3.72210517902774        1.22326566437345        1.06883822930395
H            4.01198411466158        1.04255928913029       -0.67623422846450
H            2.69719408202382        2.10207900242353       -0.08880615448258
H            3.57763464770886       -1.65903683703093        0.04268226765123
H           -1.65894456266154        3.07813956168714       -0.02535741066667
H           -2.82596599802267        2.09348861577437       -0.95424905133114
H           -2.87814117009152        2.07685972079450        0.81602085736246
H           -1.16812599296641       -3.19400386772275        0.83190727606322
H           -1.14308463822499       -3.17347831940717       -0.95598134427390
H           -2.55703414647942       -2.55217276041825       -0.07457083870790
H            1.36028868041940       -2.94391851227327       -0.01362765296222
25
 energy: -6.505611802436 xtb: 6.6.1 (8d0f1dd)
C            3.25551593181597        1.18840890641614        0.09084617643321
N            2.31993942747954        0.10885902548818        0.03354552000427
C            2.61221235384943       -1.25174603160765        0.02984246665199
N            1.41032965719517       -1.93859192312218        0.00090974009846
C            0.39973509472452       -1.04834816642640       -0.00965133237402
C            0.92872910457855        0.23363077790284        0.01112773885563
C            0.10755363665909        1.38339649256168       -0.00925748525802
O            0.48148199476175        2.56911482902532       -0.00971450921901
N           -1.27358126013229        1.03498796406398       -0.03241455760552
C           -2.22184871823188        2.13481090512521       -0.04951589015219
C           -1.83114896911028       -0.20377452933589       -0.04814763031945
O           -3.03367084371957       -0.39346300544687       -0.07040369811376
N           -0.94219847200498       -1.29547811708047       -0.03766215307626
C           -1.47207198991052       -2.63606491683856       -0.05983600283906
H            3.74488474466029        1.24062633957451        1.07039843264587
H            4.02192725984095        1.06817773441160       -0.67905256971905
H            2.69934567593890        2.10953027751529       -0.07733095564655
H            3.58136626065674       -1.69353066922462        0.04371353932910
H           -1.63122671398567        3.04893409978050       -0.02507917206392
H           -2.82865852850021        2.09297624528058       -0.95454954044187
H           -2.87950297182996        2.07656788649850        0.81819463638978
H           -1.16423359818312       -3.18818959769474        0.83161997230895
H           -1.13910881342209       -3.16860052456504       -0.95431564521584
H           -2.55751995038761       -2.54369376632220       -0.07437718981265
H            1.32396435519347       -2.93951163380767       -0.01185599471279
25
 energy: -5.045032574139 xtb: 6.6.1 (8d0f1dd)
C            3.27213005583067        1.20063933000629        0.09779445630328
N            2.33639050069214        0.11508620535545        0.02738548070913
C            2.61652965071630       -1.27346421232007        0.02841133202812
N            1.38848447876430       -1.93326243334862        0.00150856500414
C            0.39994498583367       -1.03603847265343       -0.01299994358093
C            0.93332255887959        0.24568792040217        0.00335054390962
C            0.10750411141835        1.37326485785934       -0.02018862224450
O            0.44564278525522        2.57415526702100       -0.02484902584569
N           -1.28998346372757        1.01564690363695       -0.03703208979163
C           -2.22160382808821        2.12042021711016       -0.04914411003833
C           -1.84269335778520       -0.21337128968785       -0.05031785288202
O           -3.04663518944123       -0.41530204105475       -0.06974316882062
N           -0.94758233415755       -1.28874318442398       -0.03936684066449
C           -1.46825534256304       -2.62849655430142       -0.05862631595597
H            3.78593275395744        1.25944132602639        1.06787652591500
H            4.03452587762843        1.12172912047016       -0.68539998752239
H            2.70413419383566        2.12123640705559       -0.04387038840699
H            3.57200179505893       -1.74697988309455        0.04605088156231
H           -1.58476688977804        3.00555629556652       -0.02550642804804
H           -2.83248876511120        2.09536191782300       -0.95283634317888
H           -2.87676202670227        2.07856991166285        0.82231159982053
H           -1.15688918779448       -3.17732584403187        0.83400689043237
H           -1.13162003205545       -3.16111741673427       -0.95206629812894
H           -2.55393572294743       -2.53195342458305       -0.07341712762336
H            1.26888706021717       -2.93171232159000       -0.00629783680442
25
 energy: 12.551230491248 xtb: 6.6.1 (8d0f1dd)
C            3.30905750438124        1.23563685911809        0.12140436730718
N            2.37812593335695        0.13528372313912        0.00671501454523
C            2.62498652639848       -1.32971658410297        0.02369161300889
N            1.32638883780650       -1.91134143375085        0.00461189246121
C            0.39874735081443       -0.99610672608540       -0.02481551546635
C            0.94476137495938        0.28503847754111       -0.02345215840442
C            0.10890593472474        1.35032040834904       -0.06006320310125
O            0.33431614421414        2.59226619241368       -0.08065908581597
N           -1.33561236422214        0.95984281963882       -0.05475714387014
C           -2.21251976024745        2.07871416550240       -0.04811618723601
C           -1.87545938113406       -0.24151580700972       -0.05828398185806
O           -3.08150172146877       -0.47853590809734       -0.06652258363597
N           -0.96142684431266       -1.26760322884150       -0.04611333919322
C           -1.45228102831952       -2.60619920261020       -0.05423821637364
H            3.90046340447939        1.27831014393484        1.06150957500068
H            4.04039980311454        1.26666173959132       -0.71601834852120
H            2.71240042807387        2.16328169662606        0.07913448803990
H            3.54178104499670       -1.89091580081840        0.05478400277147
H           -1.43823450175231        2.87565872246588       -0.02814490625914
H           -2.83366472110242        2.09507274198540       -0.94727016641659
H           -2.85165652064737        2.07518920980091        0.83884605245295
H           -1.12945040184839       -3.14045564581682        0.84381297281802
H           -1.10417484350753       -3.13854145108655       -0.94404589761721
H           -2.53912122795737       -2.49949953521593       -0.06976240570380
H            1.10698369713577       -2.90181697449893        0.01478705721471
25
 energy: 34.185944448309 xtb: 6.6.1 (8d0f1dd)
C            3.34793044219355        1.25775581458534        0.14058952901908
N            2.41328019975588        0.13924252456182       -0.00625983918213
C            2.62780020213317       -1.37917729784679        0.01714617439279
N            1.28318621273601       -1.90891485172114        0.00616497641136
C            0.39739779710871       -0.97326637562981       -0.03509146561820
C            0.95910679703806        0.30287784088888       -0.04414885586061
C            0.10511403909442        1.33561683988655       -0.09682258078604
O            0.27898827390845        2.59574058875540       -0.13065160102704
N           -1.36918866004486        0.92960253666558       -0.07317714719042
C           -2.21908243355078        2.05922473971727       -0.04692535197466
C           -1.90157033363038       -0.26119163066399       -0.06612875237250
O           -3.10878116748695       -0.52623396093652       -0.06434498640646
N           -0.96883335462101       -1.25666964793269       -0.05251421624580
C           -1.43842520449736       -2.59618339792585       -0.04936225041067
H            4.00738468410590        1.30712208552963        1.04893745444386
H            4.06443177320536        1.41165355268140       -0.72964930257878
H            2.72320514470353        2.18140891374794        0.18345603558890
H            3.51041275131795       -2.01243499239059        0.06002002199234
H           -1.37265155903132        2.80265451671388       -0.03067853292148
H           -2.85495980348839        2.11351229586090       -0.93765035412823
H           -2.84714989865039        2.08731332968951        0.85060715028872
H           -1.10858653023434       -3.11852116275029        0.85406876076687
H           -1.08347820811402       -3.12948252679445       -0.93652943533233
H           -2.52544323109384       -2.48238864281400       -0.06508615912559
H            0.99212673507877       -2.89023248970596        0.03106462440426
25
 energy: 54.376040776126 xtb: 6.6.1 (8d0f1dd)
C            3.38894166212528        1.27488534862917        0.15897192320941
N            2.44604576603144        0.13095901030910       -0.01776859107353
C            2.62258594781445       -1.42902470032786        0.00963005888619
N            1.24868787896198       -1.91752458684276        0.00906369596505
C            0.39397097958345       -0.95628644776909       -0.04647505125350
C            0.97921146607152        0.30903357758168       -0.06505518450045
C            0.09575421282474        1.33175374533774       -0.13855811539559
O            0.25103486328809        2.58794780840480       -0.18528219183580
N           -1.39964891260519        0.91428987664420       -0.09560318364596
C           -2.23291645660730        2.05392617735064       -0.04515386810136
C           -1.92868745026228       -0.28048854569286       -0.07479861503723
O           -3.13346212269769       -0.57514859534211       -0.06208966202687
N           -0.96956745998585       -1.25159429482601       -0.06034649527592
C           -1.42032248518697       -2.59383974465513       -0.04391704653158
H            4.12268553869315        1.33643095287145        1.02599575831992
H            4.09004460315253        1.57693609036238       -0.73722206598523
H            2.73798980318012        2.18862885924748        0.29872692849560
H            3.46745136968027       -2.13408014122711        0.06572435195197
H           -1.34819573519406        2.75234356206321       -0.03367469120348
H           -2.88403000173534        2.14485291027693       -0.92454639391310
H           -2.84736614790840        2.10857155060448        0.86202341116879
H           -1.08716788828533       -3.10150653987601        0.86700140122479
H           -1.06199414177302       -3.12660324783535       -0.92975315230293
H           -2.50709872830989       -2.47148732998967       -0.05964776983484
H            0.88826810708039       -2.88394669312727        0.04978844484292
25
 energy: 55.792460461097 xtb: 6.6.1 (8d0f1dd)
C            3.39932407247223        1.26879255497818        0.15840049275093
N            2.43313286927350        0.06774914846153       -0.01955103963346
C            2.56170206808306       -1.42263137692562        0.00564688169611
N            1.29399987209589       -1.95720891517516        0.01924037483847
C            0.36944813526170       -0.95689104788033       -0.05723839237698
C            1.02737567504706        0.26051958573907       -0.07615745544978
C            0.03796797737208        1.42047974219461       -0.17286090937322
O            0.31786115367782        2.53419479496819       -0.22224649303739
N           -1.39054479860139        0.96858572025142       -0.11856290259862
C           -2.23996692596243        2.11050185529257       -0.04134404695768
C           -1.96110034626066       -0.30714421132421       -0.07765876130707
O           -3.13509898497374       -0.61795627444873       -0.05964775856125
N           -0.92236616632288       -1.28094414640781       -0.07005068116418
C           -1.38943618139142       -2.62736061500618       -0.04074698302418
H            4.17775934913548        1.32121943008863        0.96095653487277
H            4.05812729082894        1.70106431072235       -0.71417703516058
H            2.77310468806047        2.15306962545143        0.39721517416581
H            3.37493521769785       -2.15484590443302        0.07316592711193
H           -1.44479011233453        2.76533474863931       -0.03973234139965
H           -2.88017880223042        2.19081976974642       -0.90840200352304
H           -2.82505073211426        2.14065192126113        0.86676296548563
H           -1.07676008152090       -3.10274995450179        0.88614938184155
H           -1.04958809248352       -3.13755260717402       -0.93609924051459
H           -2.47615912804362       -2.47946965665074       -0.05601689605927
H            0.87851665116972       -2.86919989569519        0.06998910352497
25
 energy: 62.846136976474 xtb: 6.6.1 (8d0f1dd)
C            3.42054410414414        1.28640583707449        0.18210439015728
N            2.46326190327324        0.07946824474652       -0.03401584883476
C            2.56787015188174       -1.45388455856247       -0.00223841443679
N            1.25092859446062       -1.94159567506825        0.02039830225840
C            0.37426472152006       -0.93628924079993       -0.06786495942771
C            1.03055026121155        0.28188430133111       -0.10121550114085
C            0.05035868660425        1.38161433097418       -0.21104910001834
O            0.26643145812835        2.56303596693966       -0.30273173323907
N           -1.41158662617504        0.93057524637591       -0.14112166503443
C           -2.24309177919469        2.09541376280878       -0.04004403138161
C           -1.96677409239070       -0.31763271374527       -0.09220488159558
O           -3.14318769851825       -0.64554442347394       -0.05851180696895
N           -0.93737213266736       -1.26631235351211       -0.07917490920749
C           -1.37101485264567       -2.62307897406964       -0.03519223796547
H            4.27846103273499        1.28304838403540        0.94795019483611
H            4.03013731714913        1.81295896070969       -0.74175565546868
H            2.76330796226524        2.16818082373439        0.53603964516645
H            3.34662471870938       -2.24143209727765        0.08237101911965
H           -1.38944846138526        2.74599778846983       -0.04220512516053
H           -2.90922658672507        2.21778086717699       -0.89608088858408
H           -2.81465102893983        2.15048626901938        0.88546133360201
H           -1.04906420610846       -3.08939420061483        0.89775760363577
H           -1.02164846978445       -3.14546834504284       -0.92408464212945
H           -2.45697645929601       -2.49113514019794       -0.05089827564221
H            0.78351614968406       -2.85605445885940        0.09534108360757
25
 energy: 73.172403569139 xtb: 6.6.1 (8d0f1dd)
C            3.42053161307043        1.29738110134193        0.21742053291436
N            2.47078502925463        0.08491968759020       -0.05177969808258
C            2.55004479171349       -1.45605400724929       -0.00893524380483
N            1.21984916325958       -1.91358885969916        0.02109829795770
C            0.36990151357084       -0.91194445835073       -0.08569956433227
C            1.03014529009324        0.30241529017209       -0.14457183047393
C            0.05869225960437        1.35712456111871       -0.27190738602004
O            0.21988244895917        2.57570807654101       -0.42609869853359
N           -1.41609542908726        0.90297669213258       -0.17276416968746
C           -2.23063203179521        2.08996664981715       -0.03098559518429
C           -1.96663426155062       -0.32436758437602       -0.11319705908741
O           -3.13887991757528       -0.66316020356832       -0.05622791970662
N           -0.94699793947158       -1.25385956703107       -0.09672666566433
C           -1.34116384151489       -2.62652142135880       -0.02865992437978
H            4.35946805529457        1.19142371175305        0.91672199234782
H            3.94214209181582        1.89724749043407       -0.74547959721344
H            2.77610119382363        2.16297097220480        0.70386642532751
H            3.29130516201038       -2.28494314609382        0.09691771066710
H           -1.34886391099258        2.74015858379000       -0.04072404592898
H           -2.92721840646159        2.25038427498163       -0.86628705251316
H           -2.77238565261827        2.14982507315715        0.91848602144102
H           -1.00718867687374       -3.07250623035622        0.91415903934093
H           -0.97949473494799       -3.16318755062084       -0.90757580879457
H           -2.42757942330528       -2.52770809855387       -0.04375780838744
H            0.70650028166004       -2.81563243560424        0.12974194394548
25
 energy: 67.479288918183 xtb: 6.6.1 (8d0f1dd)
C            3.39549728015490        1.28992428642058        0.25906744879372
N            2.45713998257475        0.08362630446455       -0.06688676361304
C            2.51742642718506       -1.40991199545789       -0.00715407016119
N            1.20754149466454       -1.87151787084758        0.02093936375891
C            0.36485228095777       -0.89621058519686       -0.10834942734348
C            1.01549106476610        0.31939844871415       -0.20678636956079
C            0.07170307949105        1.31884910772141       -0.35469922091882
O            0.20623471086575        2.58987554911599       -0.58848150969216
N           -1.39082788234354        0.88711348143480       -0.20796749983478
C           -2.21456424614996        2.09073160750811       -0.00856101017345
C           -1.94238627975210       -0.31429313035208       -0.13976779854762
O           -3.11069392794320       -0.64773375269239       -0.05231525711704
N           -0.96032820649519       -1.24424651801353       -0.12448692083662
C           -1.30944938442600       -2.63766773429459       -0.02421699938604
H            4.37682268949959        1.06454201991216        0.86245053928757
H            3.80565514300795        1.91051075988128       -0.69306829581170
H            2.80608151509920        2.10114314623720        0.85306313865600
H            3.22360565162309       -2.24848093656493        0.11338257605222
H           -1.34190937254746        2.80123463619432       -0.02653007701100
H           -2.94852676243260        2.29289163618130       -0.81396495793776
H           -2.72109184888011        2.13403522472804        0.96825189605411
H           -0.96122291588357       -3.06290357497334        0.92895635702037
H           -0.93251542031575       -3.19905639801400       -0.88836723035242
H           -2.39547342518951       -2.60039048261009       -0.03578898478531
H            0.69315302040508       -2.76243462732453        0.16831496960753
25
 energy: 71.128308279917 xtb: 6.6.1 (8d0f1dd)
C            3.39181904503934        1.28583143961732        0.29665213344835
N            2.45709370214523        0.06814475578669       -0.08435805689178
C            2.48441794250640       -1.38246710112445        0.00071277888940
N            1.20240435012621       -1.85144494790036        0.03141424565848
C            0.35666158351212       -0.87756544279384       -0.13762745212787
C            1.01889291037400        0.33143831490999       -0.27358926909103
C            0.05893331828102        1.31402092135313       -0.47491946352477
O            0.20594231158823        2.58183004982554       -0.73277297990167
N           -1.38352491848329        0.89737360985397       -0.25704519946632
C           -2.20900518269906        2.10169459802756        0.01341901144011
C           -1.94323956305252       -0.30988646600620       -0.16390950725206
O           -3.10267930876355       -0.65269981390225       -0.04480665664592
N           -0.95978509350603       -1.24112696645199       -0.15819709479565
C           -1.27177708621553       -2.64747154846862       -0.01860421234935
H            4.43002678987528        0.96259033525757        0.77742496575190
H            3.67400899958537        1.99213960092616       -0.63683918574781
H            2.84310056973627        2.02060799338991        1.04952170198249
H            3.14423973191073       -2.25495603441584        0.12888351230051
H           -1.34684607099407        2.83715326178909       -0.01444650685134
H           -2.96994706626869        2.33726634346189       -0.75590572974509
H           -2.67131379397629        2.11708550839556        1.01420199590034
H           -0.91215799865582       -3.04207475340802        0.94744080916642
H           -0.88279106487817       -3.22537159195404       -0.86851381890654
H           -2.35821404018365       -2.65687897561258       -0.02487155598175
H            0.65595460093222       -2.71620448838414        0.21376943088814
25
 energy: 50.368994889774 xtb: 6.6.1 (8d0f1dd)
C            3.37643953215556        1.27236016921904        0.31629488964083
N            2.44628528593860        0.05174946516363       -0.09907547922884
C            2.46130273684094       -1.31278332583830        0.03157136160445
N            1.23586617087604       -1.84129831554616        0.04724847710489
C            0.35009204618643       -0.87424175632885       -0.16414152740675
C            1.01494468063132        0.33853813087655       -0.32581870602577
C            0.02166221321991        1.33240475667878       -0.59228912570804
O            0.23583675353069        2.54868430009186       -0.81980729043893
N           -1.36219080900913        0.94929384526646       -0.29015811093963
C           -2.19456134957044        2.12086465582307        0.03728921308069
C           -1.93790747561516       -0.28782955454840       -0.17306460522703
O           -3.08768451593650       -0.62097705834365       -0.03527934377072
N           -0.94954498874797       -1.25234685610097       -0.19475862054367
C           -1.24982637409893       -2.65563288832915       -0.01939967720976
H            4.36674174429187        0.89324695582942        0.65865694656630
H            3.51690732117897        1.96276612339446       -0.50304519093767
H            2.91518024646157        1.86600808756364        1.13999020621648
H            3.09354228948662       -2.17765843669392        0.12857775669099
H           -1.39266034987614        2.91059866328202        0.00629120628204
H           -2.96306116193552        2.35628234793097       -0.68857048182024
H           -2.62090098208372        2.07441413640352        1.04419242901372
H           -0.88472779483848       -3.02801807170642        0.95153747196667
H           -0.85205553179225       -3.24580817377524       -0.85365462955936
H           -2.33543508916876       -2.71498033530582       -0.01595503160359
H            0.70797006981026       -2.67660826283450        0.24040175840016
25
 energy: 52.246160175088 xtb: 6.6.1 (8d0f1dd)
C            3.36579917492443        1.24267132032798        0.35629569261200
N            2.43607807493829        0.05430552458120       -0.13579005903422
C            2.45968334474785       -1.30631831030225        0.07136123647344
N            1.22143434101020       -1.83321205882795        0.06378653120778
C            0.33837500975474       -0.86266982887822       -0.20069448325002
C            1.00028711638345        0.35413764140948       -0.38075170314069
C            0.01122561494719        1.35771990142253       -0.70154130447752
O            0.22646321981484        2.52340538631254       -0.97496668422131
N           -1.36881065234855        0.97795030695404       -0.33167378479357
C           -2.16646722945184        2.13003334317698        0.05908528105599
C           -1.94511366654318       -0.27348592900984       -0.19845994311502
O           -3.09528913963239       -0.60362300684488       -0.02638959671440
N           -0.95287434462007       -1.25281483256702       -0.23992405383170
C           -1.22771443473480       -2.65385742081630       -0.01988733938178
H            4.39481198648313        0.81037514439686        0.56679795115644
H            3.37045580074839        2.06574814652342       -0.46441776764457
H            2.95835443453749        1.75263214805892        1.33003531564437
H            3.08679333789644       -2.16602372107720        0.14850454056446
H           -1.40456716598929        2.91612786710226        0.03490118981006
H           -2.96920754419012        2.38104086820144       -0.62249737980675
H           -2.54924569489811        2.02880575296780        1.08033428838598
H           -0.84572522837857       -2.99102755333620        0.96125287027169
H           -0.80701098429363       -3.25763282765134       -0.83300270615168
H           -2.31234713730077       -2.75450624387449       -0.01141915589932
H            0.68682643413057       -2.65075301607768        0.29609496042753
25
 energy: 40.378984991438 xtb: 6.6.1 (8d0f1dd)
C            3.31944844014660        1.19387832115023        0.39075430087121
N            2.40270503433687        0.08026198316797       -0.17421710068229
C            2.46736477115762       -1.27680361777672        0.13166115355084
N            1.20855153130149       -1.81031299717869        0.06727467098205
C            0.33125083611761       -0.86193224102043       -0.23893312414379
C            0.96261350360263        0.36562592829089       -0.42744639942506
C            0.01594553373158        1.37149935976194       -0.77569063224443
O            0.21015498539415        2.52590517935135       -1.16915603183275
N           -1.36226692252403        0.99697495513530       -0.36467897872444
C           -2.12958600539112        2.13785805392696        0.09576545500437
C           -1.93072124832677       -0.24999669986673       -0.22966286316810
O           -3.09055700280963       -0.55257616176066       -0.01919654983104
N           -0.96588109572521       -1.25297075411448       -0.29256544895798
C           -1.21630914223207       -2.65398830274991       -0.02904069446391
H            4.35627464279585        0.73946306521498        0.48602355870114
H            3.24196785381971        2.05658039376833       -0.37260925253588
H            2.99584624813484        1.62599738080823        1.42675774082409
H            3.12855716674680       -2.09822714377033        0.16679442206377
H           -1.41288754859872        2.95234455092142        0.08187751457847
H           -2.98862298699978        2.40879857910590       -0.54070653954646
H           -2.47552230075567        1.97510963813538        1.13138032340435
H           -0.81535172606593       -2.96133414654701        0.95925679455924
H           -0.76584098993815       -3.27637855436243       -0.81737751200028
H           -2.29587896930485       -2.80697056741180       -0.01626882826939
H            0.72096005932179       -2.63977760000758        0.35703791743347
25