25
 energy: 0.000000000000 xtb: 6.6.1 (8d0f1dd)
C            3.23720163006194        1.16630919979326        0.08434469647475
N            2.29877817382611        0.07527477071623        0.03981603040599
C            2.58028210190900       -1.21425402444508        0.03006176031096
N            1.43813958087363       -1.93419271955128        0.00098261760884
C            0.39035688448383       -1.05887472636071       -0.00790371836672
C            0.93510056364412        0.21347819449412        0.01709077491437
C            0.09450143893243        1.40504303904423       -0.00410947031874
O            0.49712751527797        2.54126714362870       -0.00342325688240
N           -1.25076640035757        1.06271879480407       -0.03085478223738
C           -2.21907211982101        2.15522099834493       -0.05001256985998
C           -1.81739487048744       -0.20012725993278       -0.04692818574614
O           -2.99983886758376       -0.37846417018721       -0.07008878229737
N           -0.92618586207120       -1.30210215599479       -0.03682761578324
C           -1.46982264913417       -2.64643102187190       -0.06029820460571
H            3.71247264356769        1.21471455160235        1.06488849150277
H            4.00791497605742        1.03430808813993       -0.67357694370751
H            2.69910007168542        2.09770118228144       -0.09130154882931
H            3.56654120610678       -1.63682992603973        0.04233140067262
H           -1.67107961066214        3.09322851271934       -0.02552706933167
H           -2.82428953597071        2.09428624779827       -0.95318082946668
H           -2.87644029173232        2.07745725625962        0.81450067533302
H           -1.17061996399332       -3.19584890659852        0.83242232437030
H           -1.14560257411436       -3.17511610292205       -0.95688275822323
H           -2.55549792440841       -2.55659984320617       -0.07459039797972
H            1.38130855184625       -2.94313852034425       -0.01389874181052
25
 energy: -5.398555153588 xtb: 6.6.1 (8d0f1dd)
C            3.24391540001858        1.17741337983912        0.08675497326010
N            2.30801668175103        0.09551715850368        0.03770878940429
C            2.59946331543595       -1.23264252904003        0.03004579183481
N            1.42733017665834       -1.94020311885820        0.00080140378519
C            0.39632260969888       -1.05603800979326       -0.00827829018130
C            0.93018733654587        0.22264526193840        0.01523589740938
C            0.10164851358877        1.39610359300787       -0.00527055234102
O            0.49829320257830        2.56196063961741       -0.00465473439403
N           -1.26038118280424        1.05073217902774       -0.03111218878498
C           -2.22056346265635        2.14690287392262       -0.04984929696948
C           -1.82367626108553       -0.20056175732996       -0.04730942185550
O           -3.02031891974237       -0.38294295882307       -0.07040909579571
N           -0.93421036612794       -1.30077292137894       -0.03705288316166
C           -1.47172272534327       -2.64286704554643       -0.06019898880463
H            3.72210507446583        1.22326575848010        1.06883818027431
H            4.01198423511072        1.04255944687123       -0.67623426510236
H            2.69719413775954        2.10207915707044       -0.08880642921507
H            3.57763485640144       -1.65903693354724        0.04268231640872
H           -1.65894453173129        3.07813952803118       -0.02535746615221
H           -2.82596600756728        2.09348855876899       -0.95424900519511
H           -2.87814108737874        2.07685972935091        0.81602086981612
H           -1.16812592388222       -3.19400373049237        0.83190748184522
H           -1.14308467833763       -3.17347825177087       -0.95598108185937
H           -2.55703407024119       -2.55217267643871       -0.07457062749203
H            1.36028834482099       -2.94391872923859       -0.01362748058635
25
 energy: -6.571109133707 xtb: 6.6.1 (8d0f1dd)
C            3.25262276168851        1.18564823870271        0.08983180894063
N            2.31663022176170        0.10751192715971        0.03386697773200
C            2.61009825268562       -1.24822530041988        0.03006099697213
N            1.41315038985749       -1.93867741572579        0.00102073151567
C            0.39955762710211       -1.05032947819335       -0.00924489230448
C            0.92750063354986        0.23174202560581        0.01195080513831
C            0.10747526368959        1.38410441060397       -0.00817974265505
O            0.48446830889664        2.56670471871906       -0.00842479579290
N           -1.27173285535134        1.03803948610438       -0.03201824268679
C           -2.22138048814531        2.13807284569970       -0.04958722850844
C           -1.82819205484504       -0.20259609968879       -0.04789670849633
O           -3.02952001181146       -0.39146910991889       -0.07045715393028
N           -0.94086629559690       -1.29661140924578       -0.03745005481298
C           -1.47177754771370       -2.63747367699926       -0.05991688894579
H            3.73946921020615        1.23589703518744        1.07002207773363
H            4.01966511844833        1.06171416528659       -0.67831160664396
H            2.69916865853850        2.10775550123350       -0.08002403989643
H            3.58060481124671       -1.68469553515644        0.04348968014934
H           -1.63785424416884        3.05660165396012       -0.02513910857757
H           -2.82801470392647        2.09380330326605       -0.95437561524022
H           -2.87926032478878        2.07735781387260        0.81750085814333
H           -1.16510268395327       -3.18990810455462        0.83162055021927
H           -1.13994982882284       -3.17004243964129       -0.95467059346024
H           -2.55715536628108       -2.54587477888018       -0.07444912167005
H            1.33260981567009       -2.94002117480537       -0.01218479677550
25
 energy: -6.491623564916 xtb: 6.6.1 (8d0f1dd)
C            3.25933851869343        1.18977462563147        0.09269574628219
N            2.32307801676475        0.10937359409908        0.02990466213578
C            2.61079966734600       -1.25778913776732        0.02963322118947
N            1.40358798178663       -1.93560853246534        0.00168744797776
C            0.39967550481535       -1.04555916925693       -0.01067147872128
C            0.92897983334065        0.23702013392245        0.00812748113722
C            0.10819189506682        1.37960454946882       -0.01307618834734
O            0.46581775811403        2.56794956248425       -0.01529399106993
N           -1.28004933471207        1.03043762120884       -0.03405219085559
C           -2.22121433734574        2.13344154240540       -0.04944383624402
C           -1.83215564460351       -0.20683114110888       -0.04882638243168
O           -3.03309732883945       -0.40258705635733       -0.07025722717208
N           -0.94271243156507       -1.29370561823465       -0.03806289101620
C           -1.46912699288016       -2.63454254783535       -0.05929882928787
H            3.75713675108999        1.24151857264913        1.06850680095573
H            4.02482978138367        1.08533196849194       -0.68118974920828
H            2.70200866714221        2.11291411244590       -0.06411089267214
H            3.57550034883766       -1.70713678246883        0.04448584963536
H           -1.61809729626732        3.03956268312496       -0.02538551675183
H           -2.82980264004122        2.09663726597319       -0.95338508103563
H           -2.87809138303060        2.08000985348232        0.81905349551621
H           -1.16151101707073       -3.18557452256156        0.83285410402062
H           -1.13613896056731       -3.16718548986981       -0.95366405921394
H           -2.55468287080916       -2.54169521541696       -0.07403601090364
H            1.30995018128736       -2.93633226987277       -0.00916058777164
25
 energy: -5.003391935041 xtb: 6.6.1 (8d0f1dd)
C            3.27412612503706        1.19778195394324        0.10227077010196
N            2.33896647206756        0.10876968569196        0.01810214375099
C            2.60649594860326       -1.27827859249834        0.02666085480350
N            1.38209936915693       -1.92778236444729        0.00393129155749
C            0.39759247058658       -1.03241771085984       -0.01585276102236
C            0.93571178478267        0.24910746991741       -0.00471607267533
C            0.10646214099722        1.37433093999560       -0.03202963854969
O            0.41705149451044        2.57240656294899       -0.04224793653134
N           -1.29882046991297        1.01374367547170       -0.04288504350459
C           -2.21926858183655        2.12584139998812       -0.04946114531817
C           -1.84353314188999       -0.21931277704754       -0.05261236580779
O           -3.04179765743444       -0.43262857110227       -0.06910829549307
N           -0.94442428140015       -1.28759147986153       -0.04052670123431
C           -1.45787474510834       -2.63056016010269       -0.05646434485165
H            3.80749429805648        1.23707143370008        1.06287080838157
H            4.02848685389428        1.15657681561843       -0.69463580658755
H            2.70452167547139        2.12518802352316       -0.00192783493302
H            3.55499079154584       -1.76471852684952        0.04769084543302
H           -1.56938660585400        3.00145618833154       -0.02786213706689
H           -2.83570664411036        2.10934066413534       -0.94890878725085
H           -2.87024050884853        2.09126271999907        0.82475705223241
H           -1.14789076779884       -3.17440637915189        0.83894947584873
H           -1.12177116084025       -3.16267608512763       -0.94963961959485
H           -2.54391050957604       -2.53671633379325       -0.07191917945768
H            1.25284031783691       -2.92675995025080        0.00259832391677
25
 energy: 4.904938800361 xtb: 6.6.1 (8d0f1dd)
C            3.30366607856902        1.21312657991929        0.12834377426964
N            2.37325834586846        0.10397346607288       -0.01148646026136
C            2.59251908005253       -1.32112981445961        0.01691495981658
N            1.33592756098588       -1.91058433002159        0.00939012253186
C            0.39081711325387       -1.00146847154773       -0.03007840820544
C            0.95218933841434        0.27556816553822       -0.03883023085199
C            0.10207235917061        1.36717258357905       -0.08472297019626
O            0.31325063993774        2.58252589735099       -0.11766410064649
N           -1.33849966328174        0.97993925961779       -0.06871085086297
C           -2.21397392810261        2.11412599266019       -0.05010224620899
C           -1.87010890546624       -0.24650467991453       -0.06340318774019
O           -3.06143359846099       -0.49840317917646       -0.06556757087110
N           -0.94667119534722       -1.27453249706399       -0.04771616503550
C           -1.42698185464234       -2.62542286946630       -0.04794977354185
H            3.93014536201034        1.19821176704262        1.04770755417459
H            4.01890732446480        1.33148929098948       -0.73340043846284
H            2.70226306387458        2.15046762194346        0.17168188199315
H            3.50240390419615       -1.89339821874571        0.05599561515413
H           -1.46781575562070        2.92467045259773       -0.03668819440950
H           -2.85225530232280        2.14411342521801       -0.93586722585401
H           -2.84600013738523        2.12078383345816        0.84051061844247
H           -1.10996088743282       -3.14892101056859        0.85662354485038
H           -1.08197291785955       -3.15720456080969       -0.93705856217773
H           -2.51434090183176       -2.53509470161487       -0.06525748772732
H            1.12480954489182       -2.90447540042683        0.03436969796799
25
 energy: 17.154114208211 xtb: 6.6.1 (8d0f1dd)
C            3.32261946421455        1.22095239706861        0.15277129573032
N            2.39739858820404        0.09586759974113       -0.03612574472885
C            2.57722644402635       -1.35035259580981        0.00854105630150
N            1.30449707521139       -1.89801865052551        0.01442035530557
C            0.38388791198948       -0.97696321031112       -0.04412903675233
C            0.96654036119450        0.29412887109063       -0.07075938046475
C            0.10170502366439        1.36777747345520       -0.13622741263102
O            0.24995333278213        2.58621326586682       -0.19195500507753
N           -1.36603252330839        0.96223027479767       -0.09455521614006
C           -2.21306405482607        2.11119142956338       -0.04912822435634
C           -1.89030036234689       -0.26379074089091       -0.07394573339599
O           -3.07436773510871       -0.54505039139838       -0.06149772641677
N           -0.94605943900191       -1.26417350949612       -0.05583550302831
C           -1.39773836528515       -2.62418531991218       -0.04009656516519
H            4.02839514108945        1.14663559344441        1.03109594363214
H            3.99496079176433        1.46844068543207       -0.75913075398493
H            2.70140592457308        2.16220545670945        0.32595568837446
H            3.45488181804559       -1.98750920144422        0.06313877073699
H           -1.41514268749165        2.88001319620611       -0.04392093488864
H           -2.87074513312843        2.17474274180814       -0.92048109015107
H           -2.82352853125443        2.14184313884928        0.85705572734109
H           -1.07403831410944       -3.12815355778735        0.87313040427996
H           -1.04465951863858       -3.15674915151609       -0.92474894660002
H           -2.48649392397940       -2.54285458437454       -0.05868629113598
H            1.03091337965581       -2.88541260839459        0.06214821936302
25
 energy: 22.022493061510 xtb: 6.6.1 (8d0f1dd)
C            3.32396168928994        1.21753071372466        0.17535166965539
N            2.41051837731823        0.07421298075779       -0.05879784096595
C            2.55167962757391       -1.35551849779608        0.00350573094665
N            1.30014014183984       -1.89019863777742        0.02196152170929
C            0.37366462145197       -0.95802714198582       -0.05898120508615
C            0.98574361677270        0.30073240079872       -0.10368098320752
C            0.10651016226848        1.38823754132257       -0.18941270406370
O            0.24061019860767        2.57811689429689       -0.26995248859569
N           -1.37499354120907        0.96950237941689       -0.12237638202865
C           -2.21581071121521        2.12582910845091       -0.04607726822626
C           -1.90487715680072       -0.27122063711320       -0.08450581883410
O           -3.07638690358329       -0.57186261959975       -0.05674127408782
N           -0.93550899934468       -1.25919338948225       -0.06584262596026
C           -1.36464850340691       -2.63283584732213       -0.03285984954995
H            4.09935895637768        1.06097632197854        1.00307276172018
H            3.93583635283846        1.57034123265833       -0.76978771762825
H            2.69836848649499        2.14949677380497        0.47301220028084
H            3.39977482640920       -2.03922480479869        0.07119180974214
H           -1.43483922164576        2.88329627918821       -0.05063388901192
H           -2.88841334516735        2.20706951160838       -0.90054743001372
H           -2.79828720100873        2.15727075614146        0.87461597065407
H           -1.03843060051867       -3.11542247173452        0.89011082479572
H           -1.00710727643862       -3.16579063446301       -0.91326117887073
H           -2.45527262157948       -2.56794805154786       -0.05231342200242
H            0.98062369261142       -2.86634155835556        0.08998348477603
25
 energy: 19.835002542145 xtb: 6.6.1 (8d0f1dd)
C            3.31072850798881        1.20118005247553        0.20308181025561
N            2.40812560382327        0.05518222041989       -0.07796638219597
C            2.52552956094910       -1.32937777913278        0.00437102691815
N            1.31200264587122       -1.88427020497963        0.03032133197935
C            0.36077067499378       -0.94255618389068       -0.07648099042997
C            0.99851423028540        0.30006361815197       -0.14256935538174
C            0.10976412233679        1.41538649251575       -0.24819078386626
O            0.26496269876747        2.58611823551310       -0.38675123535632
N           -1.36465506145615        0.98227672093746       -0.15152173264971
C           -2.21593716024392        2.14733630150780       -0.03380476723686
C           -1.91634529244840       -0.26974638199862       -0.09625236023836
O           -3.07912530372100       -0.57240042838769       -0.04741452310216
N           -0.92739777013411       -1.26153543663663       -0.08106835630047
C           -1.33289314788913       -2.65009331958398       -0.02856518026687
H            4.12316464398591        0.95511468451835        0.96512179142441
H            3.84542622877631        1.60821514659369       -0.73447771729610
H            2.70910333990964        2.09299461284112        0.59550775531104
H            3.34885038335922       -2.02808359531339        0.07703393118899
H           -1.48583123445922        2.92338199825566       -0.05164537806693
H           -2.91007765547703        2.24572020325663       -0.86647492862378
H           -2.76209368376147        2.16558520832368        0.90733463466306
H           -0.99723809127397       -3.10843976214634        0.90383821481213
H           -0.96304829839719       -3.18432631074169       -0.90255684127971
H           -2.42418617530687       -2.61816878313618       -0.04796964007256
H            0.97410090145748       -2.84052870719099        0.11413357195825
25
 energy: 22.081494782144 xtb: 6.6.1 (8d0f1dd)
C            3.30387942222124        1.18336506593748        0.24287406934805
N            2.40730085471294        0.04827730622636       -0.10679827358162
C            2.50673928096696       -1.30622393210660        0.00895651932894
N            1.30603532580896       -1.87588254101074        0.03943980995725
C            0.34728551890662       -0.91978724806702       -0.09956310729608
C            1.00382698130375        0.30732476429508       -0.19728085459384
C            0.10851685970715        1.43343201749059       -0.32783030647044
O            0.28380853994262        2.60286320774446       -0.56452794451361
N           -1.35902221959634        0.98764231777699       -0.18681815694401
C           -2.21586516681610        2.16231095897546       -0.01504401213811
C           -1.93146313313290       -0.26519392624434       -0.11200925559123
O           -3.09105349415987       -0.57081264707728       -0.03419696574857
N           -0.93070227466507       -1.26150661317913       -0.10279040807562
C           -1.29709333255338       -2.66478019919802       -0.02407598508753
H            4.16393333182932        0.83043282854852        0.91308298542059
H            3.73593980779481        1.67886478537908       -0.68970574075897
H            2.72420383627103        2.01491523060151        0.77669681238444
H            3.30208185938256       -2.02417698904356        0.08566412781717
H           -1.50923523502759        2.95666367863480       -0.05381808265729
H           -2.94384834553731        2.28703506999209       -0.81712797981605
H           -2.71469783315764        2.16896917471552        0.95527740801309
H           -0.94145745409975       -3.09276812569919        0.91878121330948
H           -0.90222499014132       -3.20363972751835       -0.88679065096982
H           -2.38751658412227       -2.67936859288986       -0.04364090751866
H            0.94284311209740       -2.80892726211181        0.14827958232965
25
 energy: 16.109496253461 xtb: 6.6.1 (8d0f1dd)
C            3.29173439421873        1.15902104898646        0.27684487122370
N            2.38498814913145        0.07876802781943       -0.13199657658205
C            2.51793758810723       -1.25996648079385        0.03569025534276
N            1.29649308787622       -1.87854508313888        0.04070604514296
C            0.34295809182357       -0.90749297442960       -0.12111547654004
C            0.97818044582030        0.31004635348270       -0.25494280791803
C            0.08579078867252        1.42849451080661       -0.39049409015977
O            0.35592292440000        2.61667983954481       -0.73316754438520
N           -1.33449669161445        0.99533964280556       -0.20571833510430
C           -2.21395269181096        2.16724950547923        0.01162641616473
C           -1.93058348572276       -0.23890492100719       -0.12772225890638
O           -3.10559984029901       -0.52220850097418       -0.02184264257856
N           -0.95456714192031       -1.27018884649244       -0.13032977602354
C           -1.28203718346175       -2.67363804582783       -0.02494100080421
H            4.12974892708532        0.74674565662973        0.82463159767645
H            3.60737031149890        1.68483114870072       -0.58214271723403
H            2.76723334311009        1.86364217335017        0.89784028520821
H            3.30595812056194       -1.94926488730303        0.08900769662118
H           -1.53434526208644        3.02201909856408       -0.05325857042842
H           -2.97327266622773        2.30356702551691       -0.75807967873909
H           -2.67024304619671        2.14693755326889        1.00516637595896
H           -0.89694499328109       -3.08050688430047        0.92144636671638
H           -0.85056692793850       -3.22276099475701       -0.87285865122788
H           -2.36361290711328       -2.74553961660759       -0.04144106385993
H            0.95812133330251       -2.78529574715116        0.17412517658333
25
 energy: 22.257094018700 xtb: 6.6.1 (8d0f1dd)
C            3.29193013670762        1.14238694684571        0.31392091793203
N            2.38118488382697        0.09125028092251       -0.16895939651520
C            2.51448463941205       -1.25950650906871        0.05075559469946
N            1.26973140165896       -1.87061549496140        0.04125784026113
C            0.33992879313597       -0.89065828148392       -0.14612814021772
C            0.96653881718117        0.32207151390988       -0.31727825950296
C            0.07742912068838        1.42194823762061       -0.48704349464737
O            0.36290489440260        2.61461883049961       -0.84645756240342
N           -1.33778066801972        0.99662216336693       -0.24452827980589
C           -2.21224907178107        2.17111338615541        0.01999616067367
C           -1.93382108568805       -0.22672721575555       -0.14649328087131
O           -3.11203192762871       -0.51289577899626       -0.01366325883166
N           -0.96710546167856       -1.26473300540463       -0.15492838729137
C           -1.25305757887695       -2.67311775923822       -0.01443417988234
H            4.20855907773913        0.62355022283522        0.73846913015188
H            3.48981258719551        1.83475973721298       -0.56763599966849
H            2.78105943921932        1.77416386908569        1.13679542174687
H            3.28345824541906       -1.97023958252402        0.09629643431625
H           -1.53618234404110        3.03949689393900       -0.06713554513625
H           -3.00710787180146        2.32421861424683       -0.71603442870741
H           -2.62616290080990        2.14658000379538        1.03761933259317
H           -0.85626406491637       -3.05080348867540        0.94509732268802
H           -0.79020393077951       -3.23765355402146       -0.84283032728469
H           -2.33048066915956       -2.79076064110414       -0.03893006554002
H            0.90764020652995       -2.76604078703000        0.21930634739088
25
 energy: 20.835689159430 xtb: 6.6.1 (8d0f1dd)
C            3.26340944990914        1.11433117754214        0.34103327229254
N            2.34721953771761        0.10866333588963       -0.19771099337918
C            2.50836275704385       -1.25051893460422        0.07774375327624
N            1.25789636499012       -1.85667372641454        0.02381990362643
C            0.34079845317237       -0.90043240594853       -0.17996472484174
C            0.93471984526587        0.32375779771049       -0.38479109714596
C            0.05831848187920        1.41224105089174       -0.62261944739321
O            0.36087480794252        2.59270538048155       -0.86352539698459
N           -1.33334048432267        1.02025256000075       -0.29311300451660
C           -2.19695884506936        2.18551402292524        0.03043646739768
C           -1.91627907531924       -0.20158360721240       -0.16433899636026
O           -3.09621298104944       -0.46248081157761       -0.00945462857580
N           -0.97628751246302       -1.25821776001723       -0.18989357720162
C           -1.23446238444069       -2.66836592147467       -0.00573998645612
H            4.21765626515840        0.55136235749564        0.65605374088815
H            3.40192441824049        1.91505642782064       -0.50343486251523
H            2.80167339179983        1.67068441016202        1.27388193092145
H            3.30194746806242       -1.94920189131682        0.09642159691765
H           -1.54090470329838        3.06688906647125       -0.06706079759605
H           -3.04169383152546        2.32379746632825       -0.66011162895583
H           -2.56533109162842        2.13287563597279        1.07061806701065
H           -0.83054847461076       -3.02015361752024        0.96353384238112
H           -0.75032686839144       -3.25026378269294       -0.81121692696738
H           -2.30829268389376       -2.84072145274502       -0.03284706918721
H            0.90805236276646       -2.77048817599581        0.27931445951203
25
 energy: 21.211333596526 xtb: 6.6.1 (8d0f1dd)
C            3.22403544016002        1.08370455001780        0.38145877626364
N            2.31563319314069        0.10914537038452       -0.22879354991421
C            2.48232568254278       -1.23065209024433        0.10496653974772
N            1.25740876021071       -1.84504668780810        0.02342941848642
C            0.32878428715222       -0.90988141099370       -0.22287586461280
C            0.91561339760607        0.31760253468382       -0.44744147027021
C            0.03632996784888        1.41807775020351       -0.73376541106815
O            0.34875577462875        2.57940228887738       -1.01720406776996
N           -1.32744559201667        1.04943806297234       -0.33967167284438
C           -2.17386451684661        2.20725367702436        0.05609603517990
C           -1.91102514459657       -0.18450123509572       -0.18272757283323
O           -3.08600338352570       -0.41494687676700        0.00340836922541
N           -0.98121274083899       -1.25351521505825       -0.23820891374080
C           -1.21087531536742       -2.67009122894792       -0.00469302530147
H            4.19225697019254        0.49166512479837        0.57976864274419
H            3.31304750970396        1.95724691658612       -0.37553903671023
H            2.83094674778955        1.54764215021142        1.39876292629934
H            3.30166216494862       -1.91320956945003        0.07706864649180
H           -1.54490036700089        3.09372273849675       -0.05125641699933
H           -3.07473959164880        2.33746307010954       -0.57463049469114
H           -2.48150778776162        2.11304182051125        1.12024946183005
H           -0.79178437529980       -2.97987064599712        0.97624602536524
H           -0.70513953290924       -3.25821572826353       -0.78895499083046
H           -2.27774746393288       -2.89965345404604       -0.02400012177388
H            0.93166058375606       -2.75679331003332        0.33534166387374
25
 energy: 15.582510413213 xtb: 6.6.1 (8d0f1dd)
C            3.16775658508797        1.05279042381578        0.40142507314201
N            2.26657599969177        0.12915567078730       -0.23908946444053
C            2.45712187636553       -1.23640886897527        0.16364583505776
N            1.25222851762774       -1.83066777149149        0.01637542818597
C            0.32628951414966       -0.96084102942904       -0.26947227888867
C            0.87552137738853        0.29837536978039       -0.46824777539167
C            0.00008328748418        1.38969016253609       -0.79186753169531
O            0.28484092677844        2.52208736615303       -1.05802836951951
N           -1.33232072373862        1.09537836379885       -0.36306757976712
C           -2.12904125556677        2.21758066998491        0.07239344717150
C           -1.87780956638860       -0.16235705584566       -0.19305815941382
O           -3.04926914929520       -0.33094643989460        0.01697546378717
N           -0.99079458974037       -1.24142069187637       -0.29896535687714
C           -1.22153746115802       -2.64632462391394       -0.00978235245468
H            4.11830171735434        0.56146858705223        0.48152603946624
H            3.28389567709487        1.96682638283722       -0.21616138235718
H            2.86308382883763        1.39555491354047        1.39976710753399
H            3.37364710030960       -1.85452751735952        0.01299725295778
H           -1.52517200043924        3.08531833764932       -0.02552759706448
H           -3.06188596923989        2.29486187730874       -0.48888122354783
H           -2.40482087030432        2.07613568944795        1.11443996680651
H           -0.81343383926464       -2.92015822959832        0.97464538873054
H           -0.70275754867036       -3.23598138958102       -0.76590703832418
H           -2.26651931286378       -2.91004931539295       -0.01839625717031
H            1.01823054643522       -2.76651227916200        0.37929526022019
25