25
 energy: -43.368649544128 gnorm: 4.236780413163 xtb: 6.6.1 (8d0f1dd)
C            3.21786164340000        1.13591514650000        0.01837059260000
N            2.27034809790000        0.05199982890000        0.00038279530000
C            2.54167221030000       -1.23971668410000       -0.00834188300000
N            1.39367826450000       -1.95088267900000       -0.00850347120000
C            0.35269634020000       -1.06748964300000        0.00059917290000
C            0.90759959010000        0.20069750900000        0.00663590170000
C            0.07590235260000        1.39864294500000       -0.00284827040000
O            0.48715076820000        2.53168346660000       -0.01725767220000
N           -1.27221500230000        1.06666939660000        0.00165480230000
C           -2.23229981500000        2.16656245330000       -0.00245172030000
C           -1.84872931540000       -0.19179276200000        0.00496135950000
O           -3.03273030250000       -0.36103538130000        0.00858583760000
N           -0.96599111670000       -1.30060631840000        0.00174701630000
C           -1.52030655580000       -2.64076660390000       -0.00239033190000
H            3.71480285180000        1.18589984860000        0.98803183970000
H            3.97079415090000        0.99383197990000       -0.75543416370000
H            2.68321036910000        2.07051068580000       -0.15067179540000
H            3.52469367910000       -1.66989040330000       -0.01523639120000
H           -1.67672429040000        3.10039111610000        0.00486339690000
H           -2.85755792270000        2.10547813320000       -0.89185337000000
H           -2.87119733260000        2.09858159720000        0.87661144540000
H           -1.20589108080000       -3.18768007210000        0.88663215920000
H           -1.21982032550000       -3.17678505510000       -0.90288069810000
H           -2.60531402170000       -2.54255916880000        0.00649952960000
H            1.32879827740000       -2.95942079410000       -0.01653446370000
25
 energy: -51.375652119828 gnorm: 11.814908518332 xtb: 6.6.1 (8d0f1dd)
C            3.21754507818344        1.13563061864678        0.01832286606498
N            2.25837373983732        0.05601683885548        0.00100045324780
C            2.54041994063410       -1.23897691069593       -0.00832420581150
N            1.39360199193637       -1.94968788769062       -0.00847824516857
C            0.34814213642488       -1.06485486269462        0.00105839148472
C            0.59200906204845        0.35801713032817        0.08411398279738
C            0.06866096353899        1.40454461866825       -0.00244961075702
O            0.48759979806146        2.53222594186245       -0.01733425035861
N           -1.27278618633613        1.06734065038999        0.00098992796947
C           -2.22714736492994        2.16608327985915       -0.00762065404710
C           -1.84855792395429       -0.19190035924324        0.00501229114680
O           -3.03282985890950       -0.36104602755253        0.00857687570064
N           -0.96638785803730       -1.30162486366281        0.00167993645084
C           -1.52030604208716       -2.64081980867174       -0.00241634132120
H            3.71480645544905        1.18587045330942        0.98802097946774
H            3.97075042584825        0.99380824738862       -0.75545282083209
H            2.68325748982730        2.07052580789139       -0.15064755791785
H            3.52461605461411       -1.66976091828326       -0.01526724232128
H           -1.67671755739454        3.10049559548856        0.00497675722743
H           -2.85800552047420        2.10542014467695       -0.89162261707834
H           -2.53447239751484        1.92728561737974        0.80335834615919
H           -1.20588420164691       -3.18768422143692        0.88663081056375
H           -1.21981102300905       -3.17679065939464       -0.90288302130558
H           -2.60531379870132       -2.54256816552840        0.00649666382396
H            1.32886811069144       -2.95931171829025       -0.01657009728556
25
 energy: -66.975836336537 gnorm: 19.488953627978 xtb: 6.6.1 (8d0f1dd)
C            3.21720457014809        1.13536996200060        0.01833092718477
N            2.25092862912400        0.05868491519034        0.00158601506645
C            2.53904056275205       -1.23739542329608       -0.00828199517780
N            1.39330661164608       -1.94852141117435       -0.00845104062318
C            0.34454325579032       -1.06224966468954        0.00155762544983
C            0.27301251226111        0.50969190319460        0.16273728410366
C            0.06053173546227        1.41631987441218       -0.00282203320492
O            0.48789345853768        2.53357473190534       -0.01747588570824
N           -1.27423125033346        1.06746015958016       -0.00015682288623
C           -2.22183373119852        2.16710316674707       -0.01597337293305
C           -1.84847106583842       -0.19175324126079        0.00496138875952
O           -3.03292923878878       -0.36109822948989        0.00854833358320
N           -0.96665473315681       -1.30275578695687        0.00163339582213
C           -1.52037339617002       -2.64085817702518       -0.00245954954242
H            3.71478361221536        1.18589721586461        0.98805600728864
H            3.97071931794566        0.99381577249022       -0.75544420715256
H            2.68327126506871        2.07055457173823       -0.15061566652116
H            3.52459662237843       -1.66962059994640       -0.01527377251964
H           -1.67663427180058        3.10064547253683        0.00492300246497
H           -2.85842503105251        2.10538487050985       -0.89140141793703
H           -2.19773319820508        1.75428392110674        0.73357547429188
H           -1.20585910782734       -3.18768734882937        0.88661789497997
H           -1.21977363638841       -3.17680413565463       -0.90288819956605
H           -2.60531515855061       -2.54261543541294        0.00647380331025
H            1.32883318008079       -2.95918854194071       -0.01658557063302
25
 energy: -90.483426766976 gnorm: 27.695924015848 xtb: 6.6.1 (8d0f1dd)
C            3.21687285927927        1.13521672719691        0.01831197421811
N            2.24715379648063        0.05990979792534        0.00196481495857
C            2.53848214725885       -1.23541770626565       -0.00834239659437
N            1.39284527244893       -1.94742849564419       -0.00849910661670
C            0.34189151790270       -1.05999784909864        0.00200888963593
C           -0.04909244003558        0.64325113502924        0.24631286063932
C            0.05281768344767        1.44853823224295       -0.00781813777842
O            0.48786751161782        2.53531588416125       -0.01760768402289
N           -1.27608756034803        1.06615261529393       -0.00151682462000
C           -2.21987029768457        2.16978840600467       -0.02324631737709
C           -1.84854974945593       -0.19204277468450        0.00486676841089
O           -3.03313485558412       -0.36129904399853        0.00856674881432
N           -0.96693147368333       -1.30372523086194        0.00154876792491
C           -1.52032001681360       -2.64099402159862       -0.00259313127290
H            3.71470761035180        1.18607677766064        0.98807421253982
H            3.97065365132812        0.99409167489909       -0.75545640505887
H            2.68313512998859        2.07070282118567       -0.15053983536861
H            3.52467585079735       -1.66939994855766       -0.01540826614559
H           -1.67673696625016        3.10076338410951        0.00500362221708
H           -2.85893123588363        2.10520169587266       -0.89107241699624
H           -1.85955681398006        1.58001239446555        0.66346316681373
H           -1.20563957952360       -3.18779765328544        0.88649146318777
H           -1.21958151530620       -3.17685254801475       -0.90299922102032
H           -2.60518125832646       -2.54281941538648        0.00639512494591
H            1.32894224607354       -2.95900831705101       -0.01673705353435
25
 energy: -122.031678840797 gnorm: 35.202809029440 xtb: 6.6.1 (8d0f1dd)
C            3.21653914501926        1.13521741081192        0.01820343851569
N            2.24458409151407        0.06057555316132        0.00202076946257
C            2.53830266466861       -1.23372742487030       -0.00860461829673
N            1.39255027784404       -1.94649337938233       -0.00870662827272
C            0.34006975399689       -1.05836547136303        0.00231253766003
C           -0.37796580499054        0.77042475401263        0.33532688946885
C            0.05869140772394        1.48958702466455       -0.01942428767305
O            0.48792703428073        2.53708154847964       -0.01774921006842
N           -1.27926305577739        1.06417613128532       -0.00308793040528
C           -2.21946661791180        2.17105567867366       -0.02564064243216
C           -1.84893550381432       -0.19307412492775        0.00471961346584
O           -3.03352875355728       -0.36160595523161        0.00873382941457
N           -0.96727783705196       -1.30442056861321        0.00143033099211
C           -1.52016980374416       -2.64120035938938       -0.00279065493065
H            3.71463926052660        1.18632251683511        0.98796411792809
H            3.97050934893422        0.99455156655059       -0.75561789562166
H            2.68292251294709        2.07094087100684       -0.15048378671681
H            3.52481992399908       -1.66909307469233       -0.01580708299820
H           -1.67698940690675        3.10077239496139        0.00540037617550
H           -2.85947624814336        2.10492327392084       -0.89051822928071
H           -1.52768089608983        1.40742987449039        0.59122724704657
H           -1.20525766838102       -3.18800465398697        0.88625955634673
H           -1.21932926943527       -3.17689911215902       -0.90321447837561
H           -2.60495325829182       -2.54312255939307        0.00632523478932
H            1.32917021674098       -2.95881337324521       -0.01710687829389
25
 energy: -159.859535561844 gnorm: 39.562154514200 xtb: 6.6.1 (8d0f1dd)
C            3.21651489453448        1.13460305395632        0.01811715831193
N            2.24235605086008        0.06068577640644        0.00216841921323
C            2.53785083660135       -1.23289978072548       -0.00849131812516
N            1.39183521711109       -1.94610137163881       -0.00852483111966
C            0.33867595114716       -1.05766723029852        0.00271148498338
C           -0.70073558111701        0.92653351699180        0.42243459804055
C            0.07090368875549        1.50901691413653       -0.02776976868536
O            0.48919755474173        2.53928879479272       -0.01845654330150
N           -1.29060799432719        1.06234258642573       -0.01526651338926
C           -2.21831327448201        2.17179957207578       -0.02737965786945
C           -1.84996530450080       -0.19420627781068        0.00415561009494
O           -3.03414042979604       -0.36126141597602        0.00874679535522
N           -0.96765812811534       -1.30459204351010        0.00142495100787
C           -1.52060781056827       -2.64105308028669       -0.00265859908749
H            3.71478678182299        1.18592842809917        0.98789240130765
H            3.97065788101779        0.99400532728116       -0.75568176847612
H            2.68322820647947        2.07057617633610       -0.15061910493691
H            3.52460555493717       -1.66954112902867       -0.01567940396817
H           -1.67657101750164        3.10110698727587        0.00520543429088
H           -2.85941508235545        2.10516662204996       -0.89058448420438
H           -1.20033786408329        1.23080611585947        0.52635969920271
H           -1.20564067228410       -3.18775463747024        0.88647065189970
H           -1.21970783417115       -3.17679802193357       -0.90299141393519
H           -2.60528135448846       -2.54280802378108        0.00648394564366
H            1.32880124388191       -2.95893831762720       -0.01689612435306
25
 energy: -174.655594703899 gnorm: 51.990561801622 xtb: 6.6.1 (8d0f1dd)
C            3.21696966410932        1.13288460232657        0.01764560047492
N            2.24045546754826        0.06007757628733        0.00218399039405
C            2.53693443783018       -1.23306493052752       -0.00827110337058
N            1.39038248541934       -1.94634750373954       -0.00807777945140
C            0.33732194626654       -1.05742232437018        0.00320338907920
C           -0.98390394460805        1.10589921792785        0.52878427386005
C            0.07854367493906        1.51342475805272       -0.03101725873183
O            0.49181932326878        2.54204872395900       -0.01958755014392
N           -1.34311061484350        1.06499170260206       -0.07536742984727
C           -2.21637386164182        2.17276748424165       -0.02936101717812
C           -1.85109988074824       -0.19531792019954        0.00332623107426
O           -3.03505792561590       -0.35976264618766        0.00912097438352
N           -0.96816806512781       -1.30422328669432        0.00174119302130
C           -1.52201824132895       -2.64032937871422       -0.00191669901972
H            3.71544791322985        1.18442803884193        0.98739567268233
H            3.97116179202902        0.99191404545983       -0.75614203815665
H            2.68431271089499        2.06925655923951       -0.15130833362139
H            3.52380943690826       -1.67121784099818       -0.01539861295918
H           -1.67499681436865        3.10200859455620        0.00450529588721
H           -2.85859118830080        2.10638955432634       -0.89097706595248
H           -0.86596927353766        1.04408834191054        0.48434708410642
H           -1.20710854082149       -3.18684519787363        0.88735959176201
H           -1.22124957361940       -3.17637669502696       -0.90209128683908
H           -2.60650311793010       -2.54150730407620        0.00726058835877
H            1.32742370414876       -2.95952562972361       -0.01618609191241
25
 energy: -145.766018025001 gnorm: 39.979297850533 xtb: 6.6.1 (8d0f1dd)
C            3.21716001583474        1.13199603673432        0.01311917135799
N            2.23905308918165        0.05990858234331       -0.00163140806385
C            2.53638063411765       -1.23278717973125       -0.01418761834082
N            1.38948912560482       -1.94634401438359       -0.01261412643170
C            0.33651096152642       -1.05721446693557        0.00176607820574
C           -1.26649635755814        1.27089424619132        0.69186073715320
C            0.08125606698073        1.51341273760462       -0.03013116495971
O            0.49316353363393        2.54443641357703       -0.01748117128271
N           -1.37887729537194        1.06279501928572       -0.12621109694142
C           -2.21578943710113        2.17366173525432       -0.02363044693948
C           -1.85167737274644       -0.19672269505233        0.00623362136061
O           -3.03565584851180       -0.35906168510618        0.01496093655756
N           -0.96829802166935       -1.30401441774741        0.00245285562253
C           -1.52273929553317       -2.64002927012920       -0.00166456922802
H            3.71761538128439        1.18249010178624        0.98198462344538
H            3.96996382231150        0.99190195674833       -0.76226527150153
H            2.68453899612226        2.06882709192353       -0.15374240445367
H            3.52340153492833       -1.67197291398531       -0.02369010506582
H           -1.67423118942173        3.10242987903617        0.01159069859065
H           -2.86001608507607        2.10811645713057       -0.88273723974530
H           -0.54425505805725        0.87879180662281        0.38588519540664
H           -1.20610864562423       -3.18753671796512        0.88638266053370
H           -1.22366445537961       -3.17503598101225       -0.90301924463085
H           -2.60706234524392       -2.54092917805493        0.00969244186115
H            1.32676975986838       -2.95977500253514       -0.02175153461029
25
 energy: -161.662008359563 gnorm: 41.007702430715 xtb: 6.6.1 (8d0f1dd)
C            3.21727547989657        1.13134372630875        0.01108912903634
N            2.24670780125882        0.05687340761412       -0.00362428291384
C            2.53683416667276       -1.23169412044257       -0.01666479202972
N            1.38784317525752       -1.94692959748889       -0.01445285829981
C            0.33917655698614       -1.05908772692515        0.00101339766103
C           -1.11162774525794        1.21860673455112        0.74042261618285
C            0.09206200196057        1.50678496122244       -0.03204272449227
O            0.49516786395003        2.55062518162287       -0.01701663851025
N           -1.42871258120507        1.05061567401598       -0.23052878320339
C           -2.22013640698535        2.17590459397729       -0.01896766925627
C           -1.85299532972006       -0.20090818302437        0.00611926122632
O           -3.03694079993152       -0.35869190139919        0.01768301904224
N           -0.96779331975922       -1.30295911657129        0.00295929605062
C           -1.52346171211009       -2.63993990964934       -0.00130893388224
H            3.71859086596568        1.18159979783692        0.97954983058946
H            3.96953183468879        0.99170601509676       -0.76501239892415
H            2.68475257585767        2.06845569480211       -0.15498833129321
H            3.52317593284678       -1.67256245068918       -0.02714394318143
H           -1.67361902013222        3.10279350927580        0.01412030364395
H           -2.86077501841740        2.10896852017011       -0.87922415381514
H           -0.66296909878816        0.94952003394779        0.44913678884309
H           -1.20577872738546       -3.18768942706245        0.88619577204188
H           -1.22481177706469       -3.17444433118917       -0.90316256301752
H           -2.60743786069081       -2.54064060080570        0.01094446233645
H            1.32637265620667       -2.96001194359476       -0.02392418593500
25
 energy: -177.781688872662 gnorm: 28.960740691943 xtb: 6.6.1 (8d0f1dd)
C            3.21668526790246        1.13175771622441        0.01593415970436
N            2.24303797458580        0.05826730671972        0.00094501324496
C            2.53650280298404       -1.22961001293919       -0.01006333091355
N            1.38750823059488       -1.94597109890678       -0.00932439392564
C            0.33783294494258       -1.05832506089225        0.00298561824340
C           -0.80666073828719        1.05577019549209        0.61984155222575
C            0.09153363665070        1.50675251660821       -0.03518662006900
O            0.49588187996831        2.55455386770432       -0.01999099347570
N           -1.43788157488341        1.04333697127961       -0.27327085970136
C           -2.21973578107396        2.17619416650387       -0.02915518504016
C           -1.85366899842508       -0.20366731451556        0.00135825727142
O           -3.03753176394784       -0.35954007047333        0.01153062938127
N           -0.96723573622354       -1.30339295002336        0.00229209567250
C           -1.52305653212789       -2.64046366003698       -0.00137463602942
H            3.71620936448038        1.18373220525878        0.98538972829812
H            3.97086151953212        0.99160517393695       -0.75839993203992
H            2.68461525265982        2.06882142828393       -0.15247339972460
H            3.52354199751106       -1.67177827285246       -0.01794094296729
H           -1.67424636159244        3.10256158785133        0.00595332557800
H           -2.86003024583981        2.10709301165358       -0.88803870264449
H           -0.95490206368682        1.11436113809380        0.60372338815129
H           -1.20689269886220       -3.18681964477684        0.88749451837668
H           -1.22217165934969       -3.17594023715676       -0.90189662454554
H           -2.60689761052837       -2.54132423256490        0.00846298169434
H            1.32713240711610       -2.95973618887219       -0.01762402886542
25
 energy: -150.197996868334 gnorm: 41.138196923868 xtb: 6.6.1 (8d0f1dd)
C            3.21691005853730        1.12978144197308        0.01028101091233
N            2.23875999223555        0.05829206767234       -0.00361039010247
C            2.53511142116712       -1.22846278787983       -0.01732088918446
N            1.38532428358465       -1.94558376359725       -0.01488130446165
C            0.33522779077991       -1.05791221161624        0.00132509842807
C           -0.49246155064038        0.92433028525809        0.64232455039134
C            0.09523268392859        1.51005229422813       -0.03498683495618
O            0.49984899784297        2.55886107098554       -0.01907653604619
N           -1.45756760545115        1.05164843420663       -0.27898036333634
C           -2.21674659058805        2.17641898275464       -0.02469445721220
C           -1.85539372955248       -0.20498415218312        0.00460167872070
O           -3.03874033460050       -0.35873319262058        0.01923207841990
N           -0.96697248715607       -1.30340481770841        0.00306206232789
C           -1.52450106642757       -2.63981918215780       -0.00098686015143
H            3.71911415224278        1.18067917968636        0.97866348715780
H            3.96959168937412        0.99083080671478       -0.76603293234311
H            2.68534285593704        2.06778651261997       -0.15555084721543
H            3.52269790370144       -1.67335074817503       -0.02815152603683
H           -1.67262311975723        3.10335685633761        0.01486348011377
H           -2.86242164620108        2.11025033218921       -0.87771270035492
H           -1.24103792075275        1.23001928411865        0.60820799222062
H           -1.20623622271444       -3.18738490700158        0.88638822174631
H           -1.22573888693603       -3.17406557475258       -0.90293965759189
H           -2.60809093891022       -2.54009889043772        0.01155622626837
H            1.32580178445647       -2.96026877901492       -0.02440896981400
25
 energy: -167.512599356294 gnorm: 39.672559486714 xtb: 6.6.1 (8d0f1dd)
C            3.21633539846931        1.13035463433641        0.01276887065600
N            2.23959783600117        0.05829858746260       -0.00150369752268
C            2.53531282516160       -1.22631749020878       -0.01423955712653
N            1.38478976898976       -1.94491548595793       -0.01261110301670
C            0.33554015302292       -1.05842319144303        0.00218336825180
C           -0.63884462134830        0.97884356188927        0.65395631370086
C            0.10203597686064        1.51405768912442       -0.04041574595776
O            0.50111147294141        2.56242872462442       -0.02159142142175
N           -1.46561336709812        1.05043604757873       -0.29654190301447
C           -2.21818291405366        2.17594263310850       -0.02962313296878
C           -1.85657373471955       -0.20741121048361        0.00155930811502
O           -3.03954289573532       -0.36008676545513        0.01654394423987
N           -0.96613801161644       -1.30380259253881        0.00247115438942
C           -1.52398101575925       -2.64036214863605       -0.00131894660238
H            3.71774028045066        1.18217660650007        0.98163589936847
H            3.97008090516344        0.99148058746437       -0.76271847617926
H            2.68496376175005        2.06836093766530       -0.15409812064940
H            3.52310817765429       -1.67246057608782       -0.02385998980965
H           -1.67341952908114        3.10286738554055        0.01149040778941
H           -2.86282356220960        2.10930550284013       -0.88181205084866
H           -1.09399663379430        1.17048279148460        0.61646399403480
H           -1.20626866140245       -3.18725966490059        0.88667015054496
H           -1.22396353887302       -3.17491495295009       -0.90265970443756
H           -2.60746279056543       -2.54088620135928        0.01008584746259
H            1.32662623389133       -2.95995686799824       -0.02166379109763
25
 energy: -178.423225299064 gnorm: 8.330411959432 xtb: 6.6.1 (8d0f1dd)
C            3.21591493914053        1.13081995854398        0.01953320483544
N            2.24099499659941        0.05815562013316        0.00449006317896
C            2.53552169626552       -1.22491714111618       -0.00497513004037
N            1.38443195578866       -1.94458611109439       -0.00540200365591
C            0.33612336641459       -1.05911651806443        0.00463299225503
C           -0.96348268939519        1.13157446933250        0.63215957357310
C            0.10407546039474        1.51172170259662       -0.04190613409352
O            0.50231885210156        2.56451417453502       -0.02663579581082
N           -1.46974298808514        1.05121912436325       -0.30905635123557
C           -2.21945471804024        2.17518823019468       -0.04188766169991
C           -1.85741847853807       -0.20877219341028       -0.00488085823186
O           -3.04014103667948       -0.36113809530547        0.00819415687896
N           -0.96531290608341       -1.30404221254852        0.00145147386272
C           -1.52359162264124       -2.64074990396422       -0.00132751924030
H            3.71457535623572        1.18474506658368        0.98976254640574
H            3.97209905031432        0.99081555662685       -0.75348812631240
H            2.68502955797450        2.06855201958763       -0.15067148444845
H            3.52342348324642       -1.67183177737899       -0.01090263164997
H           -1.67403386059294        3.10242275550925        0.00039888269024
H           -2.86126714950668        2.10738393059626       -0.89466539481442
H           -0.77094304875061        1.02021452683024        0.63453152388280
H           -1.20824050583598       -3.18584259943395        0.88860440394953
H           -1.22069036516604       -3.17688828655279       -0.90077714939025
H           -2.60702737445200       -2.54144445891571        0.00670680991478
H            1.32726954339104       -2.95975929604817       -0.01271777290356
25
 energy: -174.572053751016 gnorm: 98.219488291901 xtb: 6.6.1 (8d0f1dd)
C            3.21393873773803        1.13090122625965        0.01821579737076
N            2.23264207615077        0.06083583148363        0.00400350340636
C            2.53395646019302       -1.21571504652182       -0.00731685284633
N            1.38069042000042       -1.94123782235116       -0.00751315910202
C            0.33235242197184       -1.05826559244478        0.00444076319881
C           -0.88121924706272        1.07474802238134        0.73642464584634
C            0.11482493686069        1.51225212801919       -0.04719343476549
O            0.50885977306089        2.58411919037725       -0.02911187987345
N           -1.54436769850120        1.03629675599842       -0.47024804255172
C           -2.22032767589223        2.17650797188196       -0.04928733819649
C           -1.86249576966453       -0.22123820627164       -0.00901691987146
O           -3.04438410799512       -0.36475911097488        0.01180073514009
N           -0.96233672210691       -1.30520391573741        0.00117522386773
C           -1.52319526131028       -2.64232106749557       -0.00189457336031
H            3.71440447246175        1.18606905130952        0.98819874834961
H            3.97098888923505        0.99350746647114       -0.75542554767175
H            2.68398656393405        2.06989441014178       -0.15093513804190
H            3.52400950960916       -1.66988092438214       -0.01429289555976
H           -1.67522905665188        3.10178508098039        0.00372380461248
H           -2.86727642025384        2.10760244108618       -0.89011743110295
H           -0.76744647076520        1.06869502180621        0.71866502084666
H           -1.20579558932285       -3.18711552657232        0.88738141380119
H           -1.21945162445561       -3.17699605045836       -0.90190248467126
H           -2.60581087927448       -2.54325689495273        0.00690087391432
H            1.32911377614117       -2.95898589843383       -0.01550321483944
25
 energy: -178.014549095020 gnorm: 18.574949438038 xtb: 6.6.1 (8d0f1dd)
C            3.21145667152488        1.13594154973011        0.01834024846854
N            2.23360189211630        0.06401778802235        0.00333985468537
C            2.53571634058443       -1.20925651320503       -0.00974150321447
N            1.38245156332469       -1.93852523171991       -0.01030278361442
C            0.33413060127967       -1.05848237786120        0.00315155956443
C           -0.91923133383437        0.99448850298443        0.77878375425370
C            0.11628933645920        1.50911505166315       -0.04592218285825
O            0.50659583200337        2.59036013692242       -0.02749114385035
N           -1.56235554809792        1.03343407904334       -0.49846187993365
C           -2.22549456751503        2.17288555162789       -0.04743884217570
C           -1.86398665617344       -0.22779469653369       -0.00993221689012
O           -3.04532972069127       -0.37116872438004        0.01353008077920
N           -0.95921354594858       -1.30704511592937        0.00012682408780
C           -1.51896622684013       -2.64542074797015       -0.00421572735592
H            3.71251985662494        1.19127260309113        0.98816779484662
H            3.96874447984926        1.00127199977216       -0.75581489159200
H            2.68015303888323        2.07455720644031       -0.14946462760582
H            3.52671791835425       -1.66382595682851       -0.01766813375881
H           -1.68069037354470        3.09862609292320        0.00832542135793
H           -2.87307054352936        2.10397923053840       -0.88590792877097