25
 energy: 0.000000000000 xtb: 6.6.1 (8d0f1dd)
C            3.23720132972391        1.16630909158653        0.08434468864950
N            2.29877796055224        0.07527476373246        0.03981602671198
C            2.58028186251803       -1.21425391179017        0.03006175752192
N            1.43813944744728       -1.93419254010258        0.00098261751768
C            0.39035684826767       -1.05887462812143       -0.00790371763344
C            0.93510047688824        0.21347817468824        0.01709077332874
C            0.09450143016486        1.40504290868848       -0.00410946993748
O            0.49712746915594        2.54126690785742       -0.00342325656480
N           -1.25076628431515        1.06271869620815       -0.03085477937476
C           -2.21907191394203        2.15522079838987       -0.05001256521996
C           -1.81739470187490       -0.20012724136556       -0.04692818139228
O           -2.99983858926755       -0.37846413507442       -0.07008877579474
N           -0.92618577614240       -1.30210203518959       -0.03682761236648
C           -1.46982251276835       -2.64643077634382       -0.06029819901142
H            3.71247229913541        1.21471443890471        1.06488839270555
H            4.00791460421487        1.03430799217987       -0.67357688121503
H            2.69909982127087        2.09770098766290       -0.09130154035862
H            3.56654087521359       -1.63682977417947        0.04233139674524
H           -1.67107945562430        3.09322822573871       -0.02552706696334
H           -2.82428927394145        2.09428605349656       -0.95318074103337
H           -2.87644002486466        2.07745706351925        0.81450059976605
H           -1.17061985538665       -3.19584861009707        0.83242224714061
H           -1.14560246782873       -3.17511580834413       -0.95688266944647
H           -2.55549768731684       -2.55659960601237       -0.07459039105944
H            1.38130842369251       -2.94313824728853       -0.01389874052104
25
 energy: -5.796488247597 xtb: 6.6.1 (8d0f1dd)
C            3.24367352705147        1.19733320983386        0.07265719135087
N            2.30402436319602        0.11794971428427        0.02124287847482
C            2.60248303486624       -1.23435392507054        0.03711119043173
N            1.41971883823501       -1.93837998244255        0.00276556338422
C            0.39742861602695       -1.06276814954403       -0.01081692499704
C            0.91674908131480        0.22544582361300        0.00830800370605
C            0.11304675066909        1.38516935574237       -0.00302370785714
O            0.49206769866312        2.55915038043949        0.00401044068974
N           -1.26982121158007        1.04670122597544       -0.02893360440771
C           -2.22017576279721        2.14588111379648       -0.04399571591584
C           -1.81901887644043       -0.19965097747670       -0.04720330848149
O           -3.01797307721067       -0.38577119509241       -0.07156572517250
N           -0.94111436195935       -1.30355686992897       -0.03789163660191
C           -1.47764777535589       -2.64501200066504       -0.06342879264838
H            3.65968445048484        1.29484467973182        1.07386387381498
H            4.06202323489207        0.99537845470630       -0.61962059867615
H            2.78408125834921        2.16384194538631       -0.15513364148186
H            3.57484283310853       -1.65888326804423        0.04613601975263
H           -1.65964078454024        3.07866016466790       -0.01908279295033
H           -2.82628703905626        2.09470898457802       -0.94716860167673
H           -2.87670383615573        2.07367043631379        0.82236402575277
H           -1.17579195218719       -3.20188782053176        0.82685683400742
H           -1.15180574198493       -3.17756703992727       -0.96040074781478
H           -2.56342077367876       -2.55510917545385       -0.07745357006332
H            1.36349764905080       -2.94344969055081       -0.01201600148325
25
 energy: -4.154265401866 xtb: 6.6.1 (8d0f1dd)
C            3.24993904241219        1.22026040300044        0.05794564153620
N            2.30416093200454        0.13305621848750        0.00062773754672
C            2.60361513598379       -1.23128229277750        0.04381019908993
N            1.41657642358005       -1.93811781963509        0.00401814257210
C            0.39430310137347       -1.06462623199238       -0.01565140038745
C            0.91327220135114        0.22463391925681       -0.00229362822201
C            0.10900422225180        1.38094164788782       -0.00321024715503
O            0.48461350731326        2.55463540938695        0.01178606708599
N           -1.27348936210483        1.04041321841129       -0.02709513233055
C           -2.22020061167309        2.14133847484434       -0.03789875945661
C           -1.82398042464506       -0.20486287100870       -0.04700972592341
O           -3.02340613459595       -0.38886555532021       -0.07078926627423
N           -0.94533222715557       -1.30717620050463       -0.03930020230659
C           -1.48418964941226       -2.64827664477254       -0.06646799651519
H            3.59067311522422        1.37057097468374        1.08022458533020
H            4.11338947026361        0.95132392491811       -0.55567905647636
H            2.87475853211688        2.21665459981488       -0.22832018146712
H            3.57117919907002       -1.67017331711656        0.04884410233174
H           -1.65351124161193        3.07067204567256       -0.01421438843557
H           -2.82796497219813        2.09412697066177       -0.93944634215472
H           -2.87432420648767        2.07036205557706        0.83034811873920
H           -1.18270591005442       -3.20801623442616        0.82223643026681
H           -1.16024323587430       -3.18072139660425       -0.96438367052921
H           -2.57043931581399       -2.55693761738518       -0.07990843159839
H            1.35309557037825       -2.94388465428431       -0.01061183595941
25
 energy: -1.627324106293 xtb: 6.6.1 (8d0f1dd)
C            3.25845259894548        1.24225147829937        0.04028129547544
N            2.30649052371752        0.14543941984704       -0.02658676920153
C            2.60418823451227       -1.23027002296531        0.02820300000031
N            1.41281304912163       -1.93853454322867        0.00462898202085
C            0.39157258358754       -1.06661399126972       -0.02022168771909
C            0.91188484687995        0.22296871193983       -0.01524297442576
C            0.10525651301412        1.37536953297827       -0.00281744989263
O            0.47661992134223        2.54901661554309        0.02053148474222
N           -1.27725760761168        1.03360168118079       -0.02477122104894
C           -2.21998489190702        2.13709146954232       -0.03137157012115
C           -1.82881864642382       -0.21077595899066       -0.04720394675058
O           -3.02865457840340       -0.39311485504225       -0.07056505217834
N           -0.94923976444746       -1.31091235883276       -0.04075503838741
C           -1.49042801715820       -2.65147519814581       -0.06981516288186
H            3.51664865652272        1.44554488724148        1.07934715970790
H            4.16015595001631        0.91010035221141       -0.48733657282564
H            2.96910592649397        2.26057496964532       -0.30751660070708
H            3.56603306971491       -1.68285229754166        0.05498914717496
H           -1.64704147968505        3.06279072687111       -0.00657423423356
H           -2.82809649167706        2.09635259025688       -0.93243567797943
H           -2.87348457492757        2.06665881484041        0.83733052836529
H           -1.18917246826615       -3.21352508949146        0.81758086744952
H           -1.16904698470661       -3.18406150839578       -0.96874126915427
H           -2.57705872903276       -2.55759272949365       -0.08235718245041
H            1.34211986801388       -2.94456275231728       -0.00960605292927
25
 energy: 1.355343834060 xtb: 6.6.1 (8d0f1dd)
C            3.27041371783808        1.26260174288396        0.02281478675619
N            2.31140370984578        0.15491383171239       -0.05686078189217
C            2.60406681696726       -1.22974555641446        0.00280192844474
N            1.41000847463600       -1.94105662556563        0.00568953105198
C            0.38975018103048       -1.06995394362465       -0.02301201523961
C            0.91291485700846        0.21952990592677       -0.02811670458557
C            0.10323983618362        1.36840958123421       -0.00187470002624
O            0.47050808637978        2.54214464607909        0.02915214168477
N           -1.28019563756166        1.02654240438993       -0.02172090309601
C           -2.21888916789612        2.13300802825100       -0.02473857515508
C           -1.83304225794188       -0.21677121820761       -0.04685899972010
O           -3.03322551441807       -0.39775761623720       -0.07080336551150
N           -0.95259022119557       -1.31505444894375       -0.04139077296401
C           -1.49675304651137       -2.65493760729882       -0.07353106401065
H            3.44118362833071        1.52078387094709        1.07190014788437
H            4.20297524305250        0.87370134520109       -0.41340566010826
H            3.06475217297091        2.29211392696664       -0.39136771715046
H            3.56000339766840       -1.69548668474202        0.05826209027777
H           -1.64045845259205        3.05550184623993        0.00110898622989
H           -2.82739886018022        2.09855497817186       -0.92539623556654
H           -2.87187448012462        2.06341635810112        0.84433449610685
H           -1.19652535280117       -3.22033188455377        0.81214624938644
H           -1.17772704461771       -3.18715250157635       -0.97365350669629
H           -2.58378577303082       -2.55811728597074       -0.08543806339552
H            1.33188879379506       -2.94711262582115       -0.00606162806516
25
 energy: 5.020080690437 xtb: 6.6.1 (8d0f1dd)
C            3.28372183589311        1.28528374740276        0.00735147065904
N            2.31976950014453        0.16206596541008       -0.08951189384833
C            2.60624486042764       -1.23023037302037       -0.02327882971936
N            1.41267963751553       -1.94506308839533        0.00417937984724
C            0.39069083959039       -1.07514178935892       -0.02544572243657
C            0.91702216360932        0.21423301497655       -0.04018006173995
C            0.10324775691986        1.35992418572122       -0.00117640960082
O            0.46737545247900        2.53362367191830        0.03583091880089
N           -1.28192381643548        1.01942358420631       -0.01814311084654
C           -2.21730536786497        2.12877280806697       -0.01776681495065
C           -1.83584893771623       -0.22283923756335       -0.04586811426756
O           -3.03639163079349       -0.40298474681160       -0.06967036396779
N           -0.95415660015200       -1.31960562514289       -0.04181229126369
C           -1.50266484633843       -2.65827267053325       -0.07692387863692
H            3.36387364220212        1.59203703086437        1.05786761419592
H            4.23822809754048        0.85074178144797       -0.33103819627509
H            3.16356886095597        2.32160264482115       -0.46697691560554
H            3.55475343454693       -1.70996136971738        0.05939819125730
H           -1.63465576030416        3.04873084917625        0.00960195355538
H           -2.82606737848852        2.10056614693597       -0.91819258488510
H           -2.87058071439054        2.05964519543631        0.85110391219420
H           -1.20329920585476       -3.22686951315636        0.80699324582974
H           -1.18628104738105       -3.19002200412993       -0.97830824951957
H           -2.59020465369390       -2.55837189831106       -0.08801591396147
H            1.32497214384404       -2.95146737843096        0.00323533688800
25
 energy: 9.160537116113 xtb: 6.6.1 (8d0f1dd)
C            3.29121154138294        1.29259178946046       -0.00342539556381
N            2.32674949796090        0.16125519168533       -0.11904551484398
C            2.60800333770016       -1.23466734420561       -0.04817460847509
N            1.41454702561957       -1.95068054402074       -0.00602017080618
C            0.39076504345770       -1.08152934064176       -0.02754518525823
C            0.92128126392856        0.20715897303004       -0.04824325808029
C            0.10353124697480        1.35057889585403        0.00097907835841
O            0.46510316963980        2.52413655504534        0.04275644466555
N           -1.28383205214765        1.01235439050217       -0.01413216471689
C           -2.21625201724542        2.12443361709947       -0.01069040484075
C           -1.83877095261522       -0.22882859269564       -0.04511788562871
O           -3.03960850333617       -0.40825468009786       -0.07058567362499
N           -0.95625430236245       -1.32450036454664       -0.04217248581152
C           -1.50893544358663       -2.66164074629504       -0.07985009214960
H            3.28458339019946        1.66115504331019        1.03147746110191
H            4.26555025719219        0.83366562523958       -0.23979535576088
H            3.26801815303299        2.34137499749996       -0.52687395731195
H            3.54990350872640       -1.72492327974406        0.05896006071344
H           -1.62964281462481        3.04197551934963        0.01689715506164
H           -2.82626278116418        2.10136678084187       -0.91030294449347
H           -2.86866523427099        2.05599354954628        0.85894301507914
H           -1.21095166314213       -3.23295282400067        0.80277141877497
H           -1.19399996382724       -3.19251752101144       -0.98215188220102
H           -2.59689772800687       -2.55879041945101       -0.09062949945756
H            1.32346593020901       -2.95791849543829        0.01219543031450
25
 energy: 14.002122437895 xtb: 6.6.1 (8d0f1dd)
C            3.28877616840500        1.29277674750549       -0.00590451454438
N            2.32899661588836        0.15768828498456       -0.14922307336415
C            2.60866180072753       -1.23761699554663       -0.07024358695038
N            1.41772910843112       -1.95575531979472       -0.01793630414066
C            0.39020588258347       -1.08899239299065       -0.03300102821383
C            0.92267774440685        0.19936356490355       -0.06003739885534
C            0.10322033737362        1.34104536131585        0.00182937650223
O            0.46404915127720        2.51402188484534        0.04780017308355
N           -1.28613853010786        1.00493840592747       -0.01025981574291
C           -2.21479734248377        2.12011775807010       -0.00291980690044
C           -1.84157788227522       -0.23549585020476       -0.04466100116147
O           -3.04266065303651       -0.41447593958637       -0.07173161085720
N           -0.95859800417342       -1.33070436183504       -0.04267022843937
C           -1.51620179018061       -2.66585919768113       -0.08182505043398
H            3.20170738880452        1.71870868671963        0.99896093686523
H            4.26900561432771        0.82266061860461       -0.14494572181374
H            3.38716847572956        2.35580660371416       -0.56711669542329
H            3.54502652260668       -1.73627286954803        0.05795343103025
H           -1.62336563681332        3.03473939114440        0.02340879320965
H           -2.82736776956010        2.10194957605746       -0.90092045968544
H           -2.86420509802316        2.05279740170866        0.86899227445481
H           -1.22020400839393       -3.23945899257151        0.79989052775100
H           -1.20341763374871       -3.19672695881638       -0.98472166545949
H           -2.60438732622192       -2.55892973320692       -0.09184544808013
H            1.33082661980815       -2.96430514461307        0.00731587041787
25
 energy: 20.168101846928 xtb: 6.6.1 (8d0f1dd)
C            3.28394918636995        1.28769047399878       -0.01763754786773
N            2.33022874674900        0.14775934351322       -0.15859638616382
C            2.60558328371138       -1.24522207858122       -0.08855267685767
N            1.41523900559691       -1.96306607435632       -0.02476731945793
C            0.38711442258569       -1.09632784228205       -0.03027419583077
C            0.92381311209455        0.19065546997151       -0.06176125112001
C            0.10366510173722        1.33141379157022        0.00942254589385
O            0.46383465059009        2.50385077308193        0.05792721346178
N           -1.28791890287350        0.99726594087972       -0.00345524481764
C           -2.21245217089493        2.11609822497899        0.00496411459478
C           -1.84435803528874       -0.24220873317003       -0.04279561553106
O           -3.04561488884110       -0.42085577016926       -0.07360309783839
N           -0.96199306609179       -1.33744551729872       -0.04154138678023
C           -1.52426670186888       -2.67039350219889       -0.08541156143526
H            3.11748690137413        1.77682412890016        0.94232450485461
H            4.26418735558478        0.81537885434517       -0.05416225156050
H            3.49632882981309        2.37064901573271       -0.62578433998555
H            3.53711538178075       -1.74992368841679        0.06027400246965
H           -1.61599874868613        3.02748537494279        0.03278265566215
H           -2.82383781146671        2.10409286544626       -0.89391222257701
H           -2.86240576822638        2.05033187896005        0.87649443874400
H           -1.23121769672604       -3.24765234474926        0.79471116228200
H           -1.21262086452742       -3.19975358972800       -0.98948378780107
H           -2.61257500440839       -2.55897806473223       -0.09606573225471
H            1.33586399682856       -2.97149561447308       -0.00639232467890
25
 energy: 28.208477004618 xtb: 6.6.1 (8d0f1dd)
C            3.28076201952588        1.27096554575377       -0.00470834196613
N            2.33430790270065        0.13112245634797       -0.15221994834002
C            2.60221215414573       -1.26066525214636       -0.10717005540845
N            1.41146224228254       -1.97361398455606       -0.03485108000647
C            0.38587616090762       -1.10508304457718       -0.03454893837061
C            0.92731065072308        0.18114735955866       -0.05851917026360
C            0.10791167652757        1.32378797849197        0.01064712301126
O            0.46761932203785        2.49552139575311        0.06193902835560
N           -1.28739902080533        0.99094029572383        0.00116431977549
C           -2.20918431115716        2.11283645668212        0.01057149522063
C           -1.84511502499905       -0.24778313084013       -0.04025772119264
O           -3.04638175543612       -0.42687248169318       -0.07030939119612
N           -0.96356712094541       -1.34387389999076       -0.04155847598840
C           -1.53174095600145       -2.67419733709329       -0.08417258250375
H            3.02572699607597        1.81676558118489        0.90673520465639
H            4.26165208838013        0.80201897105621        0.04601982835501
H            3.61151898816283        2.39885163312432       -0.64860908890432
H            3.53105356775707       -1.76621582770400        0.05375301243383
H           -1.60887059068066        3.02167325417098        0.03833540308627
H           -2.82006752438174        2.10615020031043       -0.88863281532472
H           -2.85951095697107        2.04929123502519        0.88212448110357
H           -1.23797648958952       -3.25174597399191        0.79540705285254
H           -1.22414799551304       -3.20470978604814       -0.98882569761237
H           -2.62027949194346       -2.55736166747379       -0.09108951292193
H            1.33997239826866       -2.98050443727211       -0.02282046074420
25
 energy: 48.013279438321 xtb: 6.6.1 (8d0f1dd)
C            3.25209304771392        1.19816026400179        0.03224266827780
N            2.33728805574621        0.09630529085437       -0.10798301525653
C            2.59150150664956       -1.28000817111694       -0.09729862086633
N            1.40214297469768       -1.99018100023946       -0.04206743159108
C            0.38279377970091       -1.11487601130022       -0.03964810572743
C            0.93127030468247        0.16664234664837       -0.04958888524975
C            0.11414819108159        1.32035921409701        0.00898577610082
O            0.47474495320970        2.48498675022238        0.06721700056557
N           -1.28094626541706        0.98778440897422        0.00620927946264
C           -2.20467863877087        2.11007581196082        0.01822256857258
C           -1.84338332966992       -0.25234095221075       -0.03700264015325
O           -3.04361737018353       -0.42990005922083       -0.07085831620495
N           -0.96492125929341       -1.34969025452607       -0.04059297821454
C           -1.53893863678598       -2.67804267772403       -0.08594972717361
H            2.93261158335766        1.85249298543791        0.84425414716168
H            4.25149481410051        0.78189072319133        0.13338229776279
H            3.79077221755454        2.54313502237357       -0.68300394254074
H            3.52406856558769       -1.78292567469743        0.03740460689541
H           -1.60341622012307        3.01760691909879        0.04755639035708
H           -2.81542473823395        2.10852080553235       -0.88118867405601
H           -2.85538462553190        2.04596765558124        0.88959381190560
H           -1.24637046275830       -3.25716160172774        0.79246746089780
H           -1.23318239399124       -3.20733865261632       -0.99164166606551
H           -2.62709552917070       -2.55658459268553       -0.09078042584190
H            1.33155656314715       -2.99534665279204       -0.03528732942469
25
 energy: 58.945742233931 xtb: 6.6.1 (8d0f1dd)
C            3.21121333387985        1.11580092202731        0.06358826920632
N            2.33206565504617        0.05356736893890       -0.06492866190010
C            2.57890179796670       -1.29593284520536       -0.07682581173441
N            1.39144802425143       -2.00844446919992       -0.04421003019070
C            0.37810613989526       -1.12633737096294       -0.03977382508436
C            0.93247381289245        0.14966005590021       -0.03412435844587
C            0.11828424299831        1.31772907309859        0.01276140345252
O            0.48215638299722        2.47332489930639        0.07414902418950
N           -1.27180540932062        0.98667174409874        0.00846221076863
C           -2.19925803463852        2.10804814080435        0.02501049819044
C           -1.83904887976650       -0.25639784652017       -0.03478062035726
O           -3.03771170916929       -0.43027005850990       -0.07169218630493
N           -0.96609781369731       -1.35533930824191       -0.03767752389767
C           -1.54543213685116       -2.68216627677073       -0.08558801496312
H            2.85517533632871        1.87850025627208        0.74733223487168
H            4.23052165592592        0.77499911316258        0.20009547876443
H            3.98155301404538        2.73560627304489       -0.70173309538976
H            3.52051473608777       -1.78184818786643        0.02976342493507
H           -1.59767515530988        3.01440849784249        0.05588212740396
H           -2.81175334521290        2.10909653642297       -0.87320124793127
H           -2.84926462922007        2.04291788946585        0.89687200467858
H           -1.25386720633961       -3.26312638350161        0.79099940466059
H           -1.24366521401705       -3.20974722063035       -0.99332094904640
H           -2.63159587752816       -2.55617874570169       -0.08371213219891
H            1.32059759197855       -3.01184921750907       -0.04484306607031
25
 energy: 61.307114350842 xtb: 6.6.1 (8d0f1dd)
C            3.17636034386309        1.07295686750849        0.07487256233491
N            2.32460680511039        0.02645392251283       -0.04242289733070
C            2.57363153035159       -1.31244035292529       -0.05961100720801
N            1.38213563212680       -2.02326802217696       -0.04201498316380
C            0.37460503552492       -1.13710386861556       -0.04011536869622
C            0.92783057389154        0.13852288776940       -0.03599542313821
C            0.12066661188820        1.31244488791811        0.01619411060104
O            0.49186289393501        2.46375708557334        0.08155921294123
N           -1.26490680812793        0.98669342593635        0.00837827997025
C           -2.19420846129377        2.10700904607845        0.03202983473241
C           -1.83468535493311       -0.25746167804030       -0.03392376917865
O           -3.03354991086315       -0.42639272295595       -0.06776638733682
N           -0.96706771055306       -1.35921565030929       -0.03535078978550
C           -1.54957007781230       -2.68511862380314       -0.08517612523564
H            2.79102603372920        1.90157778138792        0.64869573957334
H            4.19068306994885        0.77224048499520        0.26930340674671
H            4.12555638670896        2.87253541720087       -0.67934045657953
H            3.52395290254845       -1.78389706575553        0.03540896361131
H           -1.59156697946713        3.01170116595088        0.06318564271897
H           -2.81054078335627        2.11033666157344       -0.86309845459341
H           -2.84278551448831        2.04038160428493        0.90505011598060
H           -1.26177846171135       -3.26767254456784        0.79066641141310
H           -1.25243365203432       -3.21289946601056       -0.99422052421578
H           -2.63248527314196       -2.55542465197852       -0.07934114715443
H            1.30883171971707       -3.02524048126896       -0.04867687762908
25
 energy: 61.987195008075 xtb: 6.6.1 (8d0f1dd)
C            3.15313070038131        1.05147412219643        0.08807574238285
N            2.31826355687575        0.00799286421380       -0.02045419322890
C            2.57048163251990       -1.32741656205452       -0.04319577407125
N            1.37389156219247       -2.03477555693387       -0.03961485499759
C            0.37000796465119       -1.14662493904433       -0.03854338298034
C            0.92229761941589        0.12849688388552       -0.03267833228232
C            0.12081874786480        1.30640429102664        0.02028954856264
O            0.49783795954576        2.45635842539932        0.08411749780561
N           -1.26064480658849        0.98569964584498        0.00880559668857
C           -2.19064983553508        2.10499947243495        0.03773273590465
C           -1.83242932969381       -0.25777000531583       -0.03417669209116
O           -3.03185434165634       -0.42202567534283       -0.06476396972973
N           -0.97105309138600       -1.36386743393053       -0.03284201001720
C           -1.55382652362090       -2.68939538397732       -0.08194351652593
H            2.73149916112603        1.92845137447334        0.56097300457158
H            4.15807692756847        0.77631329482631        0.34974179181952
H            4.21986170247931        2.99959213667066       -0.64029666135412
H            3.53121304896139       -1.78486412867483        0.04270054413215
H           -1.58444697325133        3.00654196511847        0.07012136415988
H           -2.80743790729928        2.10705378074127       -0.85825580873920
H           -2.83763476703046        2.03785278942167        0.91232721363730
H           -1.27079311282804       -3.27414624012178        0.79261052105459
H           -1.26092327549409       -3.21693119984501       -0.99285770714584
H           -2.63578472831490       -2.56243162869470       -0.07712016113341
H            1.29636570696370       -3.03563594701698       -0.04944448839400
25
 energy: 62.660657919843 xtb: 6.6.1 (8d0f1dd)
C            3.12892070548946        1.03906405373155        0.09878908271945
N            2.31042156683137       -0.00763048271139        0.00046497041388
C            2.56481893194163       -1.34175061984611       -0.02541248166564
N            1.36469752492899       -2.04618079011842       -0.03593637561263
C            0.36387565287552       -1.15610068223362       -0.03671845755896
C            0.91595079517443        0.11733243509187       -0.02709081332814
C            0.12061800369342        1.30030511753167        0.02142577158270
O            0.49821676349499        2.45220903039098        0.07115694932466
N           -1.25671620698057        0.98289134791253        0.01076321385364
C           -2.18478950313441        2.10327006415294        0.04127165783375
C           -1.83212781096783       -0.25894125190615       -0.03507597922328
O           -3.03193710149524       -0.41711209098164       -0.06356459428417
N           -0.97707952785982       -1.36818859716813       -0.03616658974315
C           -1.55692141585202       -2.69393503590136       -0.08052833598354
H            2.67546209886663        1.95229220585681        0.47821261582925
H            4.12138356169116        0.78654047235012        0.42296297221573
H            4.26038466709858        3.14432950393572       -0.58530361158691
H            3.52795114514879       -1.79483307524042        0.05683505512572
H           -1.57507114022442        3.00170087897109        0.07717580132667
H           -2.80140542910231        2.10350132897931       -0.85500264214564
H           -2.83091401833501        2.03538148825909        0.91549113662572
H           -1.27593949380970       -3.27964036240218        0.79435384562450
H           -1.26947149818199       -3.22060109521158       -0.99301707062826
H           -2.63865109243520       -2.56922846794886       -0.07962301817803
H            1.28390764859833       -3.04617728356783       -0.04367264528824
25