72
 energy: -103.311607195779 gnorm: 0.095551425760 xtb: 6.6.1 (8d0f1dd)
N           -1.48363482375251        2.75803610080181        2.22972093198648
C           -1.56055507225624        2.16405591346547        1.14413764167649
C           -2.74615572386831        2.05805219494861        0.24306475707388
C           -3.31449954901747        0.64548955191295        0.32652648837372
C           -4.30100509282329        0.24575490521745       -0.57783408307052
C           -4.85044755512471       -1.02209120980406       -0.53219952168165
O           -5.81194717712875       -1.48655446438326       -1.36276819906545
C           -6.39254149918439       -0.60761629364468       -2.29630642494878
C           -4.39951607584479       -1.94447016757359        0.44599078438441
O           -4.98912783438312       -3.16243935646805        0.41203029068760
C           -4.66457270185696       -4.10076482377821        1.40983844539501
C           -3.42309189688945       -1.54338734749674        1.33811689646919
C           -2.88589602385576       -0.26085489869926        1.27839417618668
C           -2.19176178882662        2.30576859043557       -1.18072067286722
C           -1.26692157473992        1.17462259211036       -1.65645476123216
C            0.00934079642307        1.10731975949279       -0.89812890733876
N            0.62295800264933       -0.02715987312773       -0.57799407611383
C            2.00365276912681       -0.02714663667074       -0.16052676179207
C            2.93039407135788       -0.53598120378605       -1.28153963549581
C            4.35992334875354       -0.42815232696674       -0.83533369510619
C            5.07591804429660        0.73580100047569       -1.04252904133204
C            6.38806013107358        0.84646677191033       -0.60498919259736
C            7.00265877373952       -0.20407115915818        0.05339765326409
O            8.27174897369306       -0.20651141088129        0.52194404327782
C            9.07195383061853        0.93382441196110        0.31631043384523
C            6.27311165766123       -1.40286960429429        0.27135167478821
O            6.95109585606272       -2.39035680763378        0.90815283474053
C            6.32598247023147       -3.63016794062602        1.15547719560487
C            4.96579852347947       -1.49003290504205       -0.16598337306865
C           -0.05172968639060       -1.30271093531438       -0.62791842228839
C           -3.87146804576181        3.07901960242824        0.58411227447416
C           -4.50138484547660        2.77455301175862        1.94111033655148
C           -3.39843150957913        4.52917252993131        0.54800756471837
H           -4.65593931676391        0.94514488523289       -1.31608667300563
H           -6.84648583165264        0.25921191379949       -1.80563068486159
H           -7.16883884106890       -1.18475632938933       -2.79498624393677
H           -5.66353151086212       -0.26861948881048       -3.03990080971584
H           -4.88575576936193       -3.71721260458401        2.41019687188392
H           -5.29168270533279       -4.96702557294347        1.20885369743238
H           -3.61130377716930       -4.39743776672755        1.35687804189842
H           -3.07406850122478       -2.21683974161049        2.10480770129258
H           -2.14932868591556        0.02370813992685        2.01547888388384
H           -3.02057993037354        2.39265081377838       -1.88138885590217
H           -1.64583522997862        3.24967340831585       -1.19539321029793
H           -1.81094935723982        0.23404053457536       -1.62114567438770
H           -1.00301796578152        1.37769645397529       -2.70276839954714
H           -0.68037798438703        1.65108774110851        0.64117966393156
H            0.63653906598191        1.98756558710268       -0.93035874800910
H            2.11501604519171       -0.66264363607185        0.72019197830274
H            2.30438246456756        0.98826256797827        0.10812950753184
H            2.77009690002787        0.07413103782034       -2.17439491749502
H            2.68444891811324       -1.57038340119936       -1.51934152684123
H            4.62393369486362        1.56811946149232       -1.56326540657875
H            6.92526914571842        1.76184798729866       -0.79247369812226
H            8.65450923687664        1.81423072529370        0.81521350901440
H            9.20369358826327        1.14584609060969       -0.74931495746020
H           10.03812393672913        0.69533674021762        0.75722226667479
H            7.06879321796080       -4.22277457167839        1.68085502643066
H            5.43593463646592       -3.52001732124816        1.77519667847994
H            6.02659970254236       -4.17435039954726        0.24691630998392
H            4.40400673781139       -2.39701348318824       -0.01090370833575
H           -0.22009105573115       -1.61834055262405       -1.66062910208595
H           -1.01628722382098       -1.24307293062169       -0.11675661928944
H            0.56149283485988       -2.04987041461137       -0.13236173104224
H           -4.64304559625896        2.95389013929413       -0.18378853225646
H           -3.77205056609918        2.90522815286409        2.73175648426868
H           -4.88123417400058        1.75638437304757        1.97631627573731
H           -5.33027653688714        3.45540401658811        2.11845371242203
H           -2.61008303886043        4.69229526968601        1.27579286202013
H           -3.04296561650226        4.81727885419885       -0.43773839669549
H           -4.23119102184072        5.18065538501306        0.80244465024796
H           -0.61208075524733        2.78774702071431        2.74249802627098
72
 energy: -103.314836209111 gnorm: 0.034022553881 xtb: 6.6.1 (8d0f1dd)
N           -1.50132378400966        2.79130609107507        2.24437525015485
C           -1.56708508076216        2.15656220757590        1.16671690929826
C           -2.74811833789592        2.06156035675148        0.25058410466612
C           -3.31930461978326        0.65113406676388        0.33145367204726
C           -4.30343155930598        0.24759379247311       -0.57359767070908
C           -4.84972619567308       -1.02133080003138       -0.53041921248948
O           -5.81522294599756       -1.48871745421981       -1.36411506679016
C           -6.39175805494801       -0.60792974964073       -2.29644803494813
C           -4.40017669407661       -1.94227965786695        0.44578976971217
O           -4.99190294314997       -3.16529403197238        0.41115493323402
C           -4.66393528920358       -4.10038317604952        1.40895934909922
C           -3.42681898821143       -1.53985581446724        1.33984638285447
C           -2.89287464058234       -0.25607068296414        1.28272905648739
C           -2.19370058324652        2.30221143311955       -1.17797419902683
C           -1.26226467507783        1.18530107497199       -1.67692019752408
C            0.01070407274039        1.12500140440483       -0.90370092040827
N            0.63352875016625       -0.04319787206831       -0.56828979075688
C            2.00831463786661       -0.03924791973014       -0.16235003920864
C            2.93894455119470       -0.53981051270318       -1.28497534659453
C            4.36603581464685       -0.43316431609136       -0.84615630975572
C            5.08080965550489        0.73260071601382       -1.04615308896650
C            6.39041087007908        0.84331685206755       -0.60269835706755
C            7.00422915259028       -0.20908275789946        0.05469421792801
O            8.27961733876641       -0.21043167457022        0.52491057699612
C            9.07274183082218        0.93230897043198        0.31706230896539
C            6.27623157038569       -1.40583637761968        0.27031761668572
O            6.95662547532732       -2.39546886535735        0.90989794677680
C            6.32374254936984       -3.62682697460735        1.15700966135363
C            4.97124106675571       -1.49395326931003       -0.17212664153613
C           -0.04806938895708       -1.30916448084091       -0.62574007406485
C           -3.87808266803892        3.07787495854170        0.58134809217837
C           -4.50557546557834        2.77628405841330        1.94032319232457
C           -3.40227008009790        4.52800259130538        0.54834999703579
H           -4.65382890095642        0.94499231864887       -1.31632053659128
H           -6.84409364288350        0.25979541605424       -1.80524168834984
H           -7.16881979604764       -1.18324533998820       -2.79701358623092
H           -5.66131077854594       -0.26763840878186       -3.03831068428008
H           -4.88419808476229       -3.71572039164777        2.40985843705296
H           -5.28995043327095       -4.96859488799310        1.21031518055350
H           -3.61016885308916       -4.39509720115401        1.35663814877805
H           -3.07307748762510       -2.21602948575106        2.10239343767753
H           -2.14924560147986        0.02677326233235        2.01184486682181
H           -3.02524341325140        2.39570893949866       -1.87752656853421
H           -1.64470822224318        3.24481634316843       -1.19052872989779
H           -1.79933321572660        0.23972134366542       -1.62795447237626
H           -1.03079520227060        1.38690537282396       -2.73362584131577
H           -0.69052034199645        1.64498317750482        0.67630005534530
H            0.65181594888355        1.99268649256545       -0.96708743111961
H            2.12754672012349       -0.67148517838129        0.72225381738063
H            2.29953975530695        0.97926728947600        0.10524318622812
H            2.76857965470125        0.07299914431757       -2.17237941806532
H            2.68705976559806       -1.57337492016256       -1.52268002472840
H            4.62625274994204        1.56557692967269       -1.56238337035175
H            6.92732833886303        1.76027545753070       -0.78684557897317
H            8.65241305889729        1.81262489066350        0.81481182099481
H            9.20205547420623        1.14535444026305       -0.74923812584334
H           10.04042766521181        0.69787137552047        0.75727298203033
H            7.06476536962961       -4.22487355873172        1.68347773888799
H            5.43466857286481       -3.51065022085622        1.78386650607986
H            6.03583243752639       -4.15031284261881        0.23524185660848
H            4.40658734471149       -2.39966749400611       -0.01411864132312
H           -0.21969557835202       -1.62511356642405       -1.66016889192179
H           -1.01370111160644       -1.24518024438283       -0.11627798086959
H            0.56018674050189       -2.06035179626567       -0.12889103811263
H           -4.65114972136929        2.95682039333798       -0.18666830269448
H           -3.76733197778608        2.90456288131053        2.72501495993280
H           -4.88241552044988        1.75690035070294        1.97570863662813
H           -5.33458205278377        3.45721187756924        2.12178521600223
H           -2.61036709139546        4.68307546432520        1.27490605127630
H           -3.04298763269887        4.81324331439071       -0.43718775559664
H           -4.23266781270507        5.18358503568562        0.80306556613840
H           -0.62265455927304        2.79024849679501        2.75280402214816
72
 energy: -103.315492856191 gnorm: 0.020227705174 xtb: 6.6.1 (8d0f1dd)
N           -1.48645411740326        2.78288971036746        2.23384355608059
C           -1.55025587204185        2.14848590793489        1.14928524000879
C           -2.74418144814451        2.06088284259357        0.24569475064833
C           -3.31066895955189        0.64808868097234        0.32424840167356
C           -4.29903199263610        0.24494018162125       -0.57632922549954
C           -4.84553075538314       -1.02299275373306       -0.53131492388400
O           -5.81703161200629       -1.49060977238373       -1.36473868206594
C           -6.39276423094262       -0.60935250294345       -2.29551259513329
C           -4.39677231908879       -1.94298107598543        0.44330381868122
O           -4.99354950585681       -3.16782336506686        0.41092714936974
C           -4.66548510277638       -4.10100654814082        1.40865021698965
C           -3.42275792583893       -1.54247883666906        1.33671007782074
C           -2.88601214071078       -0.26047907089190        1.27643399520429
C           -2.19524356549049        2.30522943111893       -1.18415130063999
C           -1.26505678778737        1.18209755788054       -1.66820816318798
C            0.00129435588764        1.13532509870718       -0.88862583272194
N            0.63420764331735       -0.04909828247126       -0.55442422847632
C            2.00334669600405       -0.03154062841104       -0.15746059958355
C            2.93504998443867       -0.53284167825693       -1.28004691922463
C            4.35747929723883       -0.42589232206037       -0.83878724083038
C            5.07420873360350        0.73793967275067       -1.04210017270999
C            6.38507350752917        0.84592125459428       -0.60327560686108
C            6.99669077110479       -0.20803418516551        0.05386449720223
O            8.27707734439225       -0.20933221441188        0.52338768969314
C            9.06985390339204        0.93211478615549        0.31587232737807
C            6.26896054536675       -1.40304339637509        0.27113062334246
O            6.95292561488854       -2.39933588072005        0.90398035951772
C            6.32283111416835       -3.63103294253243        1.15437030861283
C            4.96245652285302       -1.48765869029234       -0.16538924411447
C           -0.04982836927192       -1.30664101341941       -0.62757565747503
C           -3.86967847367941        3.07624787474196        0.58372403319365
C           -4.50151219597480        2.77483993757147        1.94163061153564
C           -3.39940309947635        4.52988036967594        0.54912871428710
H           -4.65306051565576        0.94365228893842       -1.31663999438633
H           -6.84554640433369        0.25882433502434       -1.80481338141626
H           -7.17042132173512       -1.18513778698886       -2.79495427600900
H           -5.66409843336964       -0.26878292537757       -3.03927946035302
H           -4.88574689308217       -3.71673239483458        2.41029231602263
H           -5.29292237513670       -4.96843442443847        1.20995388914521
H           -3.61228343557393       -4.39801536716796        1.35722017129962
H           -3.07320673756003       -2.21739922130728        2.10278610751141
H           -2.14764817251642        0.02368720399334        2.00981697751963
H           -3.02583766835615        2.39613662646245       -1.88593575130738
H           -1.64451610228987        3.24791239075852       -1.19776173858020
H           -1.80229846073963        0.23395349903349       -1.61638912547583
H           -1.01965971081233        1.37691034079559       -2.72027940066550
H           -0.68213968256018        1.65250290366417        0.65174843381620
H            0.64146917057855        1.99995068918062       -0.93352636612451
H            2.12401497967409       -0.66179225342682        0.72930523988929
H            2.29308079473362        0.98880522951518        0.10945457062996
H            2.76500300015736        0.07723808982547       -2.16863557660678
H            2.68038686873392       -1.56691873924648       -1.51559459987723
H            4.62012787440294        1.56864788373944       -1.56173615500105
H            6.92401508294533        1.76119057197441       -0.79283603898682
H            8.65297698186947        1.81424989285216        0.81417091128116
H            9.20171098382380        1.14641151764311       -0.75024907859236
H           10.03681839897140        0.69504756148885        0.75654584870307
H            7.06823227735309       -4.22360269983701        1.68367007718916
H            5.43491837698404       -3.51812620265217        1.78532551446535
H            6.03598621775297       -4.16247049193029        0.23931521908810
H            4.39713175261157       -2.39354632163660       -0.00793248968142
H           -0.22132098127010       -1.61752780392858       -1.66492433823057
H           -1.01665835638024       -1.24603219910260       -0.11892444818959
H            0.55980678867086       -2.05797856244201       -0.13312026449317
H           -4.64267269008519        2.95481815644864       -0.18400242777424
H           -3.76785663070045        2.90437523218163        2.73098273244758
H           -4.87833413895787        1.75529918400062        1.97631193477802
H           -5.33164541034470        3.45542073841883        2.11785055874188
H           -2.60796727970543        4.69088190028841        1.27516531297627
H           -3.04161975885356        4.81637399997159       -0.43697954474054
H           -4.23301385364070        5.18152974919454        0.80271423145964
H           -0.59169418970756        2.76764591874562        2.71985033803674
72
 energy: -103.315971182960 gnorm: 0.011272565236 xtb: 6.6.1 (8d0f1dd)
N           -1.51073274301396        2.77876366258744        2.24231334157728
C           -1.55721185394872        2.15581286525574        1.15189901639341
C           -2.74834371956092        2.06094677094561        0.24645271840294
C           -3.31504167001090        0.64868524905050        0.32759030456506
C           -4.30241257639122        0.24648937592667       -0.57433892869128
C           -4.84816105995207       -1.02122324594541       -0.52880602981016
O           -5.81702212276428       -1.48868173638254       -1.36461544750668
C           -6.39126693897005       -0.60763537828588       -2.29622578572417
C           -4.39913924432162       -1.94094213944064        0.44608975181754
O           -4.99291105076690       -3.16652860960886        0.41217358713473
C           -4.66342755837632       -4.09989095423707        1.40885295711790
C           -3.42546157210173       -1.54139360148642        1.34041578616150
C           -2.89015182106001       -0.25914364119945        1.28105724113570
C           -2.19293063145281        2.30562839538304       -1.17990268511072
C           -1.26617389420265        1.17886247857483       -1.66245037194201
C            0.00330998995196        1.12948511180179       -0.89435905889597
N            0.63551547553728       -0.04917545161266       -0.56649971180678
C            2.00499707765608       -0.03229750583451       -0.16805829191723
C            2.93997479238791       -0.53821973137062       -1.28674502747119
C            4.36225396491611       -0.42965391089569       -0.84105354899578
C            5.07913750007678        0.73458130948031       -1.04463071430297
C            6.38977020046440        0.84523128036852       -0.60490555054746
C            7.00084255754694       -0.20715191352758        0.05370661789394
O            8.27980870831749       -0.20683285655037        0.52502886654017
C            9.07297023740627        0.93382786704049        0.31740033643336
C            6.27422816801829       -1.40255790649068        0.27037463128556
O            6.95590570958476       -2.39775640919786        0.90601736032194
C            6.32422258322534       -3.63013274595132        1.15412945132201
C            4.96899014871580       -1.49083045084123       -0.16919408437085
C           -0.05075181988744       -1.30471111211208       -0.62895612875104
C           -3.87290430813752        3.07703715500381        0.58346508732540
C           -4.50472578390781        2.77551743574032        1.94134447875439
C           -3.40041690516024        4.52980013990946        0.54802519507143
H           -4.65670858825715        0.94548360234272       -1.31449245425237
H           -6.84599297712205        0.26019905480367       -1.80661874757971
H           -7.16776874395709       -1.18373732510972       -2.79690483858894
H           -5.66177535794433       -0.26720572992522       -3.03930532667916
H           -4.88483898776031       -3.71736646363747        2.41085125708720
H           -5.28957366634662       -4.96787607329774        1.20904530775057
H           -3.60979909909541       -4.39563013045223        1.35711113743255
H           -3.07553690715319       -2.21637887240756        2.10614571569201
H           -2.15320211503756        0.02554984854368        2.01645228436707
H           -3.02245898899515        2.39554998264558       -1.88147248594800
H           -1.64407347191073        3.24934282994991       -1.19205634006436
H           -1.80740999362548        0.23299661383062       -1.62025628437871
H           -1.01009420797632        1.37874747510049       -2.70954559210855
H           -0.68722602045448        1.65561894159925        0.65718138169805
H            0.64687000252877        1.98971599666990       -0.94143008402436
H            2.12217872666198       -0.66541540224010        0.71716570259921
H            2.30291855167440        0.98502653206728        0.10208678012659
H            2.77395141220641        0.07055333228988       -2.17742328664116
H            2.68727450886001       -1.57281249211843       -1.52308536411128
H            4.62539367563059        1.56500728132219       -1.56513699208084
H            6.92700504100985        1.76188843063724       -0.79159597172902
H            8.65575228546759        1.81589853428274        0.81531876553647
H            9.20561237232796        1.14693677462084       -0.74878826232740
H           10.03989209222694        0.69706093077153        0.75850304674358
H            7.06725734667035       -4.22377761072364        1.68466967096480
H            5.43445483927379       -3.51665165178225        1.77986170710454
H            6.03131407993203       -4.16803742726303        0.24465547858639
H            4.40742287822138       -2.39942644047472       -0.01519600992328
H           -0.22347629978106       -1.62372689150935       -1.66285542802841
H           -1.01569190014594       -1.24151791668038       -0.11697217969480
H            0.56061378254548       -2.05236036860986       -0.13093964796245
H           -4.64533226953818        2.95459968162658       -0.18459351897016
H           -3.77193837474556        2.90487222748237        2.73092881806373
H           -4.88389144977411        1.75689885134637        1.97648889272859
H           -5.33304381063340        3.45727200069060        2.11850242916855
H           -2.61012575680779        4.69041172876204        1.27507638791345
H           -3.04304981182665        4.81641470572363       -0.43814709402290
H           -4.23296195129092        5.18182837030096        0.80196079291881
H           -0.62093277885733        2.77981392930148        2.73542689656449
72
 energy: -103.316042088208 gnorm: 0.009849874839 xtb: 6.6.1 (8d0f1dd)
N           -1.49875512835867        2.78276794485491        2.24090632104014
C           -1.55189603342949        2.15712010919558        1.15439683896796
C           -2.74510120118280        2.06071174449986        0.24906894183686
C           -3.31545861046570        0.64958419888377        0.32910419272745
C           -4.30111865816713        0.24710798250190       -0.57510686696618
C           -4.84675963556600       -1.02110636534484       -0.53000957794520
O           -5.81515921121048       -1.48866127541213       -1.36512514905275
C           -6.39180137433223       -0.60819949218182       -2.29551747752477
C           -4.39771834099232       -1.94114896946501        0.44473570708319
O           -4.99161125106542       -3.16600913911870        0.41112503528408
C           -4.66453755844067       -4.09957069836353        1.40846103198029
C           -3.42292624618311       -1.54196273942784        1.33831494701520
C           -2.88838377232459       -0.25923454579827        1.28016487127642
C           -2.19336861761913        2.30281221440299       -1.17990615178700
C           -1.26556425558213        1.18035844667675       -1.67175678693141
C            0.00509593113049        1.12715011970300       -0.90503760753820
N            0.63317046563926       -0.04560974153159       -0.56918523922612
C            2.00113831634584       -0.03142081721130       -0.15995552987775
C            2.93540300183294       -0.53592540175921       -1.27985294995795
C            4.36013934199538       -0.42947762482721       -0.83866014268962
C            5.07733110713752        0.73475906643467       -1.04236502999623
C            6.38825926336738        0.84530507634596       -0.60305039914638
C            6.99941456076477       -0.20743410368944        0.05413666108096
O            8.27778061226235       -0.20864968027519        0.52392819915635
C            9.07043799569160        0.93186730486319        0.31573438275546
C            6.27260299198103       -1.40187968504469        0.27184553461598
O            6.95424646075474       -2.39414625201900        0.91011236706577
C            6.32363706537556       -3.62714260739757        1.15431775955511
C            4.96702441224762       -1.49089212204897       -0.16779679700288
C           -0.04981664271238       -1.30422608809255       -0.62769803437650
C           -3.87201262571487        3.07650035941301        0.58296148313041
C           -4.50223086613495        2.77459728476384        1.94101386939358
C           -3.39932455013106        4.52848762919017        0.54869002657959
H           -4.65302569192386        0.94518214276614       -1.31713153058622
H           -6.84520363459018        0.25948612861241       -1.80459230179153
H           -7.16949906250195       -1.18407333284091       -2.79479907793234
H           -5.66343757401994       -0.26795468967025       -3.03966534203321
H           -4.88523402244161       -3.71563396441080        2.40993455921789
H           -5.29205357394890       -4.96695142591764        1.20987064934144
H           -3.61142627945139       -4.39712503767283        1.35703202753303
H           -3.07047901099835       -2.21793613360142        2.10159586244095
H           -2.14599997355225        0.02370952302922        2.01110410040401
H           -3.02548080241151        2.39342322939406       -1.87800294477569
H           -1.64592256052117        3.24667999258681       -1.19410450272856
H           -1.80580249325282        0.23566635081538       -1.62874405479222
H           -1.02016112906713        1.38338446745573       -2.72222250029956
H           -0.68637781498442        1.64312939294550        0.66196587637618
H            0.64953874133076        1.98723132435475       -0.95627227377094
H            2.11914300157561       -0.66626286042805        0.72485558541085
H            2.29932041976640        0.98486613127185        0.11176523582421
H            2.76619391130653        0.07551887607500       -2.16856338325650
H            2.68239058554368       -1.56990642281601       -1.51791182420110
H            4.62295831929224        1.56708976392366       -1.55974560089522
H            6.92537504294271        1.76190796825224       -0.78827622549989
H            8.65212549633548        1.81276537604779        0.81449470834667
H            9.20049235902169        1.14521284313815       -0.75062972491162
H           10.03833110629039        0.69606514122412        0.75534359978860
H            7.06636979979730       -4.22382751853040        1.68108301325557
H            5.43407660701054       -3.51514315699743        1.78000309531898
H            6.03083772333767       -4.15823876361069        0.23992961601797
H            4.40356769181486       -2.39741232696947       -0.00932319094555
H           -0.21830546327342       -1.62418267371591       -1.66134433322997
H           -1.01623389191299       -1.24420651213491       -0.11856450916730
H            0.55986538641775       -2.05379864711226       -0.12884396965946
H           -4.64530896759801        2.95461509868853       -0.18475399112112
H           -3.76743623969103        2.90446828462334        2.72816889988446
H           -4.87960038266844        1.75544231768172        1.97611712894341
H           -5.33100931561492        3.45525121368684        2.12057274706308
H           -2.60892527532887        4.68633581723903        1.27595281384405
H           -3.04187277266746        4.81482045343437       -0.43728449601129
H           -4.23094258213175        5.18134705877700        0.80360811529052
H           -0.60923671812573        2.78429909426210        2.73559562012235
72
 energy: -103.316193607755 gnorm: 0.004936296056 xtb: 6.6.1 (8d0f1dd)
N           -1.49895290638793        2.78228211709537        2.24116266987953
C           -1.55410066904512        2.15412634612521        1.15574387167326
C           -2.74707587285429        2.06139455535877        0.24855775866027
C           -3.31605291497947        0.64946641225885        0.32737384756239
C           -4.30194011410567        0.24609435079186       -0.57604161399128
C           -4.84771402220842       -1.02219133181956       -0.53031431810402
O           -5.81671152283261       -1.48985122554171       -1.36536415792910
C           -6.39203194837289       -0.60905289336478       -2.29608176983440
C           -4.39917793397282       -1.94170132656916        0.44477988553893
O           -4.99283796854894       -3.16722631124580        0.41158356503282
C           -4.66452476062977       -4.10054163973726        1.40861581068465
C           -3.42549901252757       -1.54122826798965        1.33900602074438
C           -2.89033869002141       -0.25866606386636        1.27959134322595
C           -2.19398092163068        2.30427186192287       -1.18025140109382
C           -1.26374884085217        1.18169319492301       -1.66717510982708
C            0.00510524218495        1.12954084413122       -0.89650776015653
N            0.63484575818519       -0.04631894838976       -0.56337543044799
C            2.00419594365971       -0.03272269736751       -0.16126797241201
C            2.93706710366987       -0.53614235071772       -1.28355811893570