72
 energy: 0.000000000000 xtb: 6.6.1 (8d0f1dd)
N           -1.47310921155849        2.74401293103706        2.22063921685122
C           -1.55658879776851        2.16490285539332        1.13274273951491
C           -2.74549199786261        2.05621232186130        0.23826248438941
C           -3.31377553111525        0.64333411542669        0.32332512650568
C           -4.30230156009016        0.24487110156316       -0.58026161703006
C           -4.85238763031941       -1.02286490450319       -0.53363588718165
O           -5.81419972815119       -1.48606034185536       -1.36157882725342
C           -6.39655633239252       -0.60827000183299       -2.29568474302620
C           -4.39972501531283       -1.94646102182611        0.44396929121966
O           -4.98748311285188       -3.16145997157803        0.41085992006324
C           -4.66362127904578       -4.10093827755394        1.40909127743729
C           -3.42072513477031       -1.54561384810496        1.33436546260297
C           -2.88302799614223       -0.26315800396994        1.27400150770375
C           -2.19303798107274        2.30467000305896       -1.18742977106749
C           -1.26651538239283        1.17243369445008       -1.65249429687285
C            0.01082524939134        1.09745454476277       -0.89354803499847
N            0.61779393476578       -0.02034948052406       -0.57705522512502
C            2.00145210352228       -0.02376006389122       -0.15611399603240
C            2.92554934655222       -0.53865282675074       -1.27700088804721
C            4.35756843073516       -0.43050757231754       -0.83075544324989
C            5.07346135469827        0.73206409086248       -1.03980965825901
C            6.38627986649936        0.84224441421807       -0.60344822702769
C            7.00047264773336       -0.20824756335880        0.05722314418200
O            8.26703657141718       -0.21011313101264        0.52410943644933
C            9.06912227848686        0.92943601033931        0.31863058007678
C            6.27039964270142       -1.40439753960823        0.28033466008274
O            6.94829939911432       -2.38012925705718        0.92751999079483
C            6.31537317745639       -3.61583200086742        1.15217711710877
C            4.96302794628964       -1.49347471867959       -0.16064430359178
C           -0.05511211367372       -1.29906247805359       -0.62085686319744
C           -3.86758037025447        3.07992600430699        0.58498060215443
C           -4.49286159663096        2.77383493050346        1.94313289484366
C           -3.39165179876499        4.52917666589254        0.54797523472093
H           -4.66030026466202        0.94509067363451       -1.31640568823548
H           -6.85037928558380        0.25803162192116       -1.80468845313260
H           -7.17287442604349       -1.18600110843259       -2.79318157561361
H           -5.66836817451085       -0.26952966318766       -3.04040255244073
H           -4.88416720672258       -3.71589460520039        2.40913542187496
H           -5.29223570620378       -4.96637458756866        1.20969236903657
H           -3.61139813139015       -4.39919835331056        1.35529357841967
H           -3.07077796610445       -2.21868765711333        2.10002662693138
H           -2.14562754426994        0.02067850696302        2.01001344383370
H           -3.02188875377605        2.38238012313952       -1.88813545054866
H           -1.65198530896729        3.25146700677685       -1.20556284570283
H           -1.81103374245520        0.23006524641044       -1.62116301628650
H           -0.99335688527853        1.37490212198123       -2.69443256973690
H           -0.67628064361333        1.65183887049447        0.61785727145403
H            0.63525841192517        1.98466369793744       -0.92314021190751
H            2.11132552493482       -0.65949692842762        0.72532613231274
H            2.30680473056284        0.98978251704176        0.11078972794250
H            2.76694198818247        0.06750735147374       -2.17075252200790
H            2.67954581369920       -1.57455627803457       -1.51167743520200
H            4.62169998552446        1.56295612048703       -1.56123579000624
H            6.92357674630170        1.75715815945204       -0.79119596719031
H            8.65159112996149        1.81001823324363        0.81701555159939
H            9.20136171144928        1.14042857828877       -0.74698991949293
H           10.03428838009630        0.69003240176163        0.76064937965836
H            7.05567174969094       -4.23621171795340        1.65347565939075
H            5.43848001056755       -3.50813558175093        1.79970565785717
H            6.02060041905269       -4.09420497120334        0.21253282636366
H            4.40102758497114       -2.40127266373392       -0.00490198249042
H           -0.22071299714579       -1.61775583601871       -1.65116008982042
H           -1.01972258008625       -1.24102717432227       -0.10935206830928
H            0.55899954147532       -2.04486085926761       -0.12333730421426
H           -4.63991875734388        2.95501092798550       -0.18098088071825
H           -3.76095216473977        2.90314704960906        2.73380821053058
H           -4.87457614030224        1.75695641518947        1.97884603101694
H           -5.31925552549014        3.45579210326349        2.12325564252114
H           -2.60025590131176        4.69225046143352        1.27368918226171
H           -3.03987406413880        4.81897652321898       -0.43870975059559
H           -4.22191740670577        5.18069648090034        0.80616693961239
H           -0.59832433787845        2.77744694953323        2.72958984441332
72
 energy: -5.739159908354 xtb: 6.6.1 (8d0f1dd)
N           -1.50203671386447        2.78214155056293        2.23973232780235
C           -1.55357519643512        2.15442240245147        1.15337083656254
C           -2.74713301307107        2.06091777668686        0.24741352121734
C           -3.31498615302213        0.64905541858546        0.32745994789266
C           -4.30149402771088        0.24649106986759       -0.57539370373312
C           -4.84736419694854       -1.02154938791941       -0.52967955846116
O           -5.81668668587961       -1.48899928297829       -1.36500281211153
C           -6.39235777314819       -0.60850756386145       -2.29562469207384
C           -4.39860716961685       -1.94105643488182        0.44501663244489
O           -4.99252140556741       -3.16660522641549        0.41175595659938
C           -4.66380990465994       -4.09971061017030        1.40849010747661
C           -3.42446923036718       -1.54145304186617        1.33916863577343
C           -2.88921278828226       -0.25912711113257        1.27989107050059
C           -2.19394272156246        2.30447300089400       -1.18061435123149
C           -1.26504142622205        1.18028689292766       -1.66685217602151
C            0.00417958818365        1.12914639723773       -0.89813941485142
N            0.63447140713263       -0.04710843855749       -0.56566254059226
C            2.00279936212849       -0.03250169853736       -0.16281867957594
C            2.93738570592024       -0.53642853693115       -1.28350192548569
C            4.36079122556429       -0.42939759840853       -0.84061771827371
C            5.07767525171780        0.73499635442133       -1.04397171116319
C            6.38829103883003        0.84539840168701       -0.60401838567147
C            6.99914477692033       -0.20764955111362        0.05395149965785
O            8.27812917841996       -0.20807811933218        0.52491437508289
C            9.07106872826153        0.93211458604182        0.31723265553630
C            6.27270367355629       -1.40244672464226        0.27091550659859
O            6.95468074596246       -2.39645207293071        0.90765060590257
C            6.32443077263205       -3.62880096095027        1.15505431646181
C            4.96695904545781       -1.49055213045954       -0.16841407673205
C           -0.04929142196994       -1.30461659905908       -0.62878374886307
C           -3.87237014005390        3.07698143077554        0.58338690619066
C           -4.50280898437525        2.77523001939229        1.94168967608534
C           -3.40016281668905        4.52958643751292        0.54854423817468
H           -4.65412654746206        0.94483410664888       -1.31663242332010
H           -6.84607692756036        0.25955771558824       -1.80546482401289
H           -7.16987764596705       -1.18438539057313       -2.79530192351375
H           -5.66393870563568       -0.26801886492002       -3.03977886584834
H           -4.88429366581795       -3.71662108541176        2.41049133614938
H           -5.29053133938845       -4.96766917514889        1.20964692156792
H           -3.61034943609810       -4.39628880395985        1.35666778890214
H           -3.07357223336673       -2.21666905908829        2.10389782358110
H           -2.14951421080324        0.02509746254648        2.01280210633608
H           -3.02478592530890        2.39476427651793       -1.88074749397010
H           -1.64553681720567        3.24815212761797       -1.19334020508050
H           -1.80501520688068        0.23474273750879       -1.62242653472383
H           -1.01638556835612        1.38062860965382       -2.71696664186413
H           -0.68694550682395        1.65019807641279        0.65875172091256
H            0.64711619416690        1.99078235054894       -0.94665820310682
H            2.12173519568759       -0.66681178267065        0.72206791092125
H            2.29976948024528        0.98451090838753        0.10777060052047
H            2.76908945125730        0.07443957326914       -2.17253011783566
H            2.68372709845711       -1.57045712356566       -1.52063262577273
H            4.62346172985665        1.56633978866632       -1.56311370815279
H            6.92549689001982        1.76180374606254       -0.79039574257906
H            8.65364412713569        1.81416525388982        0.81512727449066
H            9.20305332749099        1.14542614290686       -0.74905632301701
H           10.03834562817459        0.69573927458440        0.75804671336585
H            7.06799303422183       -4.22294842817847        1.68407392635360
H            5.43507526799978       -3.51617455805536        1.78190726851537
H            6.03360025888178       -4.16291551043309        0.24199339161356
H            4.40400208712257       -2.39782544393352       -0.01238949949378
H           -0.22144153999404       -1.62228675915422       -1.66331325157938
H           -1.01479444890514       -1.24442240790531       -0.11759044212945
H            0.56160596208796       -2.05490508027004       -0.13248553831579
H           -4.64562628635209        2.95500616574951       -0.18426083780402
H           -3.76839469527583        2.90446706049640        2.72966970635287
H           -4.88080455648608        1.75624208929074        1.97673953441376
H           -5.33150963797262        3.45639798165679        2.12011157949173
H           -2.60915959766154        4.68891483921838        1.27499313488412
H           -3.04306494277719        4.81619258522124       -0.43756353611335
H           -4.23239840078732        5.18189161743176        0.80329433617627
H           -0.61066271514142        2.77958099107360        2.73226424990652
72
 energy: -5.730144402160 xtb: 6.6.1 (8d0f1dd)
N           -1.51196052908450        2.79346339513364        2.24658951784623
C           -1.55808813866016        2.15627956136520        1.16505236254362
C           -2.74750558690315        2.06199236727417        0.25229470418720
C           -3.31521531099622        0.65028871097674        0.33110348756788
C           -4.29990842285204        0.24714143760704       -0.57326736423372
C           -4.84572976948579       -1.02101022482104       -0.52844697851017
O           -5.81359089873683       -1.48870323502395       -1.36554046645014
C           -6.38782638854549       -0.60771381262127       -2.29647220872703
C           -4.39877618273491       -1.94032107945457        0.44708209298931
O           -4.99328524492409       -3.16607353658564        0.41300411930876
C           -4.66497152912439       -4.09965196480028        1.40929806047617
C           -3.42640943589361       -1.54013482437123        1.34299461714891
C           -2.89151644825311       -0.25757165119380        1.28462680704961
C           -2.19189215481780        2.30658721702220       -1.17510277159353
C           -1.26558873905044        1.18310485038371       -1.66945105363474
C            0.00529089474154        1.13112331021876       -0.90297456891723
N            0.63536650811248       -0.04738407218882       -0.56852284166545
C            2.00427483264152       -0.03353356299598       -0.16667863823864
C            2.94049866783753       -0.53302215908232       -1.28808626746250
C            4.36312975879667       -0.42571284668055       -0.84413443072497
C            5.08022693678113        0.73877924206078       -1.04610273909746
C            6.39056890072876        0.84784892169778       -0.60478806892569
C            7.00237527304244       -0.20741790262935        0.05039781289609
O            8.28202845393755       -0.20488323369443        0.52152888579759
C            9.07385670066030        0.93677057343599        0.31426098723362
C            6.27631471124028       -1.40552513301976        0.26125168516079
O            6.95614878506155       -2.41146234390800        0.88435119725991
C            6.33125286928228       -3.64415707198310        1.15687863747043
C            4.96924463523977       -1.48786351260627       -0.17436181894026
C           -0.04706870731457       -1.30614346990798       -0.63536118366767
C           -3.87654800780991        3.07627938162196        0.58278398396971
C           -4.51229435776116        2.77560800023192        1.93891931828735
C           -3.40701480624901        4.52952121510840        0.54831470028239
H           -4.65040833356775        0.94523824374500       -1.31557128147299
H           -6.84178466340468        0.26052508588512       -1.80672842119395
H           -7.16480385849218       -1.18306949782717       -2.79768287766948
H           -5.65798545327754       -0.26711205832772       -3.03910996837065
H           -4.88688885847507       -3.71775271721772        2.41139663498919
H           -5.29040736670497       -4.96830545362993        1.20888827659711
H           -3.61099153596632       -4.39477156379547        1.35859650630492
H           -3.07680520660721       -2.21521333630435        2.10853159500191
H           -2.15345946081589        0.02744884994415        2.01892421506171
H           -3.02240279338041        2.40536135508913       -1.87483322103079
H           -1.63864426059015        3.24724256888444       -1.18364337441181
H           -1.80464852205502        0.23781628488452       -1.62193157692610
H           -1.02666806113715        1.38347368417659       -2.72320938220913
H           -0.68975425673594        1.64856719907628        0.68117966892112
H            0.64750184111029        1.99346945225622       -0.95080426129983
H            2.12590817006758       -0.66854694220419        0.71755986578856
H            2.29773379111579        0.98404790724792        0.10478275254609
H            2.77241445817567        0.08000547187310       -2.17595109319286
H            2.68917095328319       -1.56683135975563       -1.52785720494239
H            4.62639016759022        1.57093431577884       -1.56486076793267
H            6.92764507556504        1.76466162908854       -0.79163836686123
H            8.65692914136113        1.81862546381100        0.81305157899283
H            9.20534394657041        1.15168328632242       -0.75177773518684
H           10.04215137847016        0.70159715394098        0.75377035218494
H            7.07735088075332       -4.21047469525507        1.71272547006086
H            5.43099351488308       -3.52393941146347        1.76386290349983
H            6.04684569579391       -4.23083721317851        0.27112686309344
H            4.40640947554251       -2.39507547111904       -0.01889734720004
H           -0.21904959938202       -1.62208611521396       -1.67079025523180
H           -1.01307116313127       -1.24665476742862       -0.12528627196233
H            0.56244651435890       -2.05857697747173       -0.13990876226670
H           -4.64729971752002        2.95307136907864       -0.18745698213399
H           -3.78073503575495        2.90710631590540        2.72881602733297
H           -4.88827056313140        1.75585482191444        1.97393450351705
H           -5.34308211344430        3.45553811163279        2.11364169427858
H           -2.61919226846583        4.68966755548722        1.27773688047790
H           -3.04575902063746        4.81444796303997       -0.43666877020630
H           -4.24134166381755        5.18128463086462        0.79852226296659
H           -0.62436133737087        2.78985534011164        2.74582676735249
72
 energy: -5.402788338800 xtb: 6.6.1 (8d0f1dd)
N           -1.52254884045030        2.80473733078466        2.25242090126929
C           -1.56245795014972        2.15872711153142        1.17540984312270
C           -2.74818756781167        2.06319348789405        0.25691048497096
C           -3.31557084434714        0.65160333486695        0.33445008335167
C           -4.29841165576864        0.24777311756034       -0.57152337919365
C           -4.84427277435556       -1.02040795763449       -0.52727549957196
O           -5.81073955474188       -1.48838656149938       -1.36605968991659
C           -6.38383661267166       -0.60689795852482       -2.29713760403708
C           -4.39923051500018       -1.93929512062479        0.44937856640986
O           -4.99406660544656       -3.16534903553060        0.41468348188695
C           -4.66538833667525       -4.09948421320587        1.41024339243500
C           -3.42863161886218       -1.53851927452667        1.34699168102488
C           -2.89405469292458       -0.25582389850099        1.28926234376690
C           -2.19007208558548        2.30923039351345       -1.16945231562145
C           -1.26682662559795        1.18565833300081       -1.67100965339581
C            0.00645837011486        1.13289104864409       -0.90865334119695
N            0.63628946479090       -0.04769832720756       -0.57236368937479
C            2.00548047570893       -0.03414726367427       -0.17120176124427
C            2.94346425109913       -0.52947930013373       -1.29303733420150
C            4.36548840550301       -0.42233934936103       -0.84796947824190
C            5.08303175488274        0.74220714486807       -1.04844718701667
C            6.39310893868589        0.84985750324031       -0.60566192413033
C            7.00566643455829       -0.20779441861812        0.04669645574233
O            8.28561655463259       -0.20211624534573        0.51871870338250
C            9.07629313869659        0.94076025082913        0.31169325173775
C            6.27973534278195       -1.40885607046681        0.25216586560610
O            6.95725216440657       -2.42629935815285        0.86232912668266
C            6.33800970447084       -3.65951438219080        1.15944858683532
C            4.97157784503296       -1.48549087375125       -0.18047498803176
C           -0.04520330640330       -1.30703731430766       -0.64332968742172
C           -3.88072809553368        3.07569358562526        0.58232234145230
C           -4.52090468636557        2.77572817952831        1.93657493086612
C           -3.41381854910332        4.52964218238626        0.54805421806198
H           -4.64627630105818        0.94518467867622       -1.31562434758021
H           -6.83776728548395        0.26152125467308       -1.80758420826016
H           -7.16065457156614       -1.18163713029655       -2.79936363567949
H           -5.65304999366643       -0.26629879010259       -3.03882231589727
H           -4.88856300426001       -3.71911353055906        2.41258759165183
H           -5.28956966862251       -4.96877810161251        1.20826354920322
H           -3.61093944041235       -4.39320732749106        1.36026182223085
H           -3.08015006434082       -2.21337590559644        2.11333243652026
H           -2.15714471688316        0.02960510189848        2.02456900311156
H           -3.02085610740486        2.41532197800353       -1.86806543758923
H           -1.63271229487270        3.24747760538176       -1.17372191323920
H           -1.80564982094304        0.24063279646866       -1.62148086419577
H           -1.03595529132878        1.38670220435371       -2.72735502875241
H           -0.69279622148221        1.64654328235855        0.70292860915615
H            0.64868723697331        1.99512871488186       -0.95677306551746
H            2.12892397598929       -0.67069379459650        0.71177964578411
H            2.29639044771488        0.98346549313295        0.10241898666292
H            2.77541336276989        0.08621175354879       -2.17929326895561
H            2.69353837918940       -1.56282678780578       -1.53582248669103
H            4.62950596348355        1.57531061059096       -1.56646460475933
H            6.92962461005112        1.76777067669559       -0.79129687604756
H            8.65947840508441        1.82228455843384        0.81129337154272
H            9.20725424998604        1.15675911671313       -0.75419979256645
H           10.04540065652207        0.70653127866447        0.75017660846486
H            7.08678736900303       -4.19633680263750        1.74159594141290
H            5.42622040867543       -3.53079671834600        1.74465955316889
H            6.06126804608684       -4.29760717466475        0.30278952206608
H            4.40935244486187       -2.39311349927868       -0.02589392363863
H           -0.21825569838246       -1.62105715175844       -1.67956080625871
H           -1.01089492788760       -1.24910216306775       -0.13263773634466
H            0.56438862391243       -2.06108379585860       -0.15000550467429
H           -4.64907067008181        2.95100821390281       -0.19028025268495
H           -3.79175318519153        2.90945230659224        2.72804858262894
H           -4.89510434242730        1.75529660184282        1.97167592149769
H           -5.35343620330835        3.45456446718489        2.10816649416224
H           -2.62886055037924        4.69048884169731        1.28015479998447
H           -3.04909067944062        4.81345083205503       -0.43594294032066
H           -4.25000536317184        5.18076458606798        0.79442917194999
H           -0.63858656293195        2.80088875578961        2.75756862673596
72
 energy: -4.787884781694 xtb: 6.6.1 (8d0f1dd)
N           -1.53403237284641        2.81647428728540        2.25693375947216
C           -1.56684144265195        2.16173579079458        1.18465213184120
C           -2.74887481393462        2.06443635980277        0.26069357049228
C           -3.31569330969374        0.65281028158748        0.33708684376659
C           -4.29705118111448        0.24829246479719       -0.57014115709967
C           -4.84317748939898       -1.01980588595569       -0.52602481048278
O           -5.80870483817170       -1.48791598346348       -1.36599674056064
C           -6.38062764230990       -0.60585849454487       -2.29724970246970
C           -4.39987012856166       -1.93820771951704        0.45173274123464
O           -4.99480744150139       -3.16462403436627        0.41666914266155
C           -4.66522848766682       -4.09936107098737        1.41130273005379
C           -3.43088379602000       -1.53680112155640        1.35082378820307
C           -2.89643240182231       -0.25408932725069        1.29332245993428
C           -2.18832577868026        2.31226415560116       -1.16458393554859
C           -1.26862027916527        1.18787641540336       -1.67248280228173
C            0.00736507383196        1.13401410918941       -0.91526419228551
N            0.63710434538447       -0.04881700088634       -0.57854405959476
C            2.00623178343921       -0.03487998659754       -0.17710785851924
C            2.94676010681582       -0.52574112486391       -1.29879304248441
C            4.36801774982253       -0.41861952282647       -0.85166236711192
C            5.08621623276156        0.74597426065031       -1.05028519878355
C            6.39594520917833        0.85202286491617       -0.60558775707168
C            7.00908607272589       -0.20860958646585        0.04352970675894
O            8.28929834506023       -0.19969080163371        0.51621733787227
C            9.07855466661099        0.94436655418904        0.30890540600115
C            6.28297261114457       -1.41229196087787        0.24429911107626
O            6.95811760658784       -2.44117307284829        0.84173815342560
C            6.34469334656343       -3.67511533082153        1.16296549746102
C            4.97365569373751       -1.48257413316335       -0.18560603597016
C           -0.04418718925140       -1.30831748441952       -0.65241037647108
C           -3.88458918740547        3.07502584879449        0.58206008907368
C           -4.52819192730270        2.77529245604943        1.93478557504427
C           -3.42014418866946        4.52975964732127        0.54827662524999
H           -4.64254113531205        0.94494413532106       -1.31601094702385
H           -6.83421771420429        0.26286303010819       -1.80781826168540
H           -7.15756154194349       -1.17974675763878       -2.80033628958285
H           -5.64903782094434       -0.26539272268529       -3.03821499723678
H           -4.88936479201551       -3.72064072715030        2.41399695846970
H           -5.28808694726727       -4.96935489831502        1.20785752694411
H           -3.61031529530439       -4.39155521244990        1.36161023751069
H           -3.08358198927595       -2.21126672733431        2.11811252815566
H           -2.16063221650017        0.03179826937972        2.02954339528166
H           -3.01927453200250        2.42533129076448       -1.86224248632848
H           -1.62661926018017        3.24789862822958       -1.16460089217658
H           -1.80773116448142        0.24326054036892       -1.61982175808125
H           -1.04544778882899        1.38928226881290       -2.73105258318759
H           -0.69536055183321        1.64615843852377        0.72343739203886
H            0.64968784404183        1.99600457106579       -0.96259296071892
H            2.13172741735679       -0.67286515016800        0.70472104814242
H            2.29443214859611        0.98282858084398        0.09873322251431
H            2.77894511264779        0.09259896053654       -2.18345393468600
H            2.69830439642568       -1.55864616877365       -1.54483417297960
H            4.63305753398672        1.58019850733163       -1.56734864678934
H            6.93150037675384        1.77168529859446       -0.78836739161388
H            8.66115368466017        1.82554057906767        0.80874029945597
H            9.20920821086855        1.16085502060144       -0.75693966259768
H           10.04834532645424        0.71155230590735        0.74689202645319
H            7.09590032384520       -4.18129659637111        1.77076553709306
H            5.42087062008101       -3.53751647144301        1.72482726688447
H            6.07714290845559       -4.36275713818615        0.33640701043546
H            4.41173175809973       -2.39038116297260       -0.03138844354730
H           -0.21997186741665       -1.61989399310101       -1.68922786906987
H           -1.00883291253308       -1.25215248221498       -0.13958956282687
H            0.56593083618237       -2.06438166287080       -0.16250510387070
H           -4.65080418798437        2.94882472313803       -0.19258291832857
H           -3.80083979229641        2.91076002930208        2.72741269374137
H           -4.90091601192581        1.75429428687116        1.96992147979590
H           -5.36213588663243        3.45314825580698        2.10402965765970
H           -2.63758161342766        4.69121110378875        1.28264687302563
H           -3.05259910417916        4.81295971300166       -0.43479594186595
H           -4.25800207599162        5.18002716088763        0.79169162724941
H           -0.65391410302142        2.81241847006662        2.76794734437584
72
 energy: -3.924051479261 xtb: 6.6.1 (8d0f1dd)
N           -1.54518274155713        2.82835263628362        2.26178130215591
C           -1.57095308922071        2.16474320926079        1.19457996881617
C           -2.74923997052299        2.06557917259080        0.26526226684979
C           -3.31546747164210        0.65388455821561        0.34058622199266
C           -4.29513747749519        0.24891606646089       -0.56822733654555
C           -4.84155559173797       -1.01908228895244       -0.52465031005232
O           -5.80590232787546       -1.48728678775269       -1.36609139497345
C           -6.37657362339262       -0.60495413350715       -2.29784346041708
C           -4.40007506188484       -1.93721007266451        0.45406228517767
O           -4.99519406904863       -3.16380158087333        0.41829926171130
C           -4.66555848753841       -4.09919470375632        1.41221331512866
C           -3.43282894616836       -1.53549093864753        1.35488732291007
C           -2.89861606387342       -0.25268610690289        1.29814295444522
C           -2.18635232222650        2.31548254873160       -1.15896215697313
C           -1.27040315894279        1.19047398280998       -1.67390446982054
C            0.00877195979896        1.13506913742449       -0.92299423431881
N            0.63816092628660       -0.04938676942068       -0.58531529701758
C            2.00684241027248       -0.03495138103941       -0.18229313462960
C            2.94983441332206       -0.52193689976021       -1.30359275020980
C            4.37041564833363       -0.41492911854387       -0.85475760069263